                               Psi4 1.9 release

  ==> Input File <==

--------------------------------------------------------------------------
memory 64 GB # how much memory is available ! Depends on the nodes/cores !

molecule dimer {
# monomer A
+1 1    # Charge and multiplicity
C  0.680067 -1.215929 4.608042
C -0.680504 -1.215545 4.606014
N -1.085635  0.102779 4.605016
C  0.000108  0.884180 4.601740
C -2.477365  0.570758 4.555610
N  1.085222  0.102779 4.605016
H  1.385146 -2.033368 4.615870
H -1.385302 -2.033214 4.606204
H -0.000009  1.965269 4.599993
C  2.478117  0.567877 4.621908
H  2.490592  1.658130 4.594563
H  2.967028  0.220701 5.535354
H  3.001428  0.176405 3.746425
H -2.857359  0.490799 3.533539
H -3.082679 -0.042306 5.225694
H -2.518128  1.610706 4.882594
--
# monomer B
0 1     # Charge and multiplicity
C   -3.66844126402057      7.80375217008252      0.00190004133558
C   -4.84759871934653      7.13124183134024     -0.00046653359696
C   -4.89495929917518      5.69633040353158     -0.00103944469517
C   -3.65374067877320      4.98073034095895      0.00662099703436
C   -2.40942512149445      7.11398103667468      0.00209438359570
C   -2.42547734410473      5.68112195090346     -0.00491050527438
C   -1.19474401643570      7.78614419430947      0.00356656413763
C   0.03795902893699      7.09942164575698      0.00139585983271
C   0.03033258741920      5.66948955970466     -0.00408752508301
C   -1.20098450790502      4.96927034791531      0.00488220885047
C   1.27795782581485      7.77285944319479      0.00277170839332
C   2.48535808472416      7.08769688523756      0.00049722048857
C   2.48612868491717      5.65477081024076     -0.00644052849921
C   1.25408291964399      4.95607811366431      0.00518741308898
C   3.75171459140595      7.76391215098033      0.00062407186893
C   4.92356605618520      7.07878077698995     -0.00143240883900
C   4.95560727132542      5.64344746336949     -0.00159282164606
C   3.70680153420475      4.94121020833308      0.00349873852374
H   -3.65852113775815      8.89082741913536      0.00358502958574
H   -1.18921332975660      8.87412108735996      0.00753844057883
H   1.28429423888630      8.86083343548850      0.00693053253426
H   3.75354208679975      8.85103527897216      0.00214659618464
H   5.86995870320703      7.61379483465560     -0.00235777588134
H   -5.78823170750226      7.67630221293400     -0.00202638095293
C   -6.09197395869619      4.99326001364347     -0.00291168518608
C   -6.12866148031747      3.58258016879823     -0.00171050815740
C   -3.66457974004527      3.56418217974434     -0.00463560277484
C   -4.89429820469869      2.86108077590057      0.00453338221034
C   -2.43733499489796      2.84761165708481      0.00719617576166
C   -1.20922785759670      3.54788693497833     -0.00648285103018
C   1.24714157216223      3.53468075142962     -0.00729145743546
C   0.01517603956900      2.83311183930540      0.00439272578912
C   2.46764517244071      2.82128997725533      0.00449278391269
C   3.70254947457969      3.52466015442405     -0.00899517692985
C   6.14498038638375      4.92757236613191     -0.00282626685777
C   6.16658835886151      3.51658447594213     -0.00065971342101
C   4.92460995845939      2.80840792535402      0.00587903281610
H   7.08990550964105      5.46688776622306     -0.00658814770723
H   -7.03104175110130      5.54268795285765     -0.00714490013730
C   -7.33969804112295      2.85841153457957     -0.00333767559888
C   -7.36488195805880      1.47032337158330     -0.00157213747140
C   -4.90350460894690      1.44442681216000     -0.00628840166334
C   -6.13225715261081      0.73993935705394      0.00600164231964
C   -3.67687480051673      0.72669714267312      0.00433931473643
C   -2.44565658606518      1.42964113326212     -0.00597039546461
C   -1.22360068130162      0.71532450163492      0.00545886906656
C   0.00763786931376      1.41738314923765      0.00392452278437
C   1.23121980774686      0.70211669058719     -0.01490206287210
C   2.46082110053113      1.40329203612573      0.00460244601878
C   3.68443025419614      0.68719842821222      0.00377365974158
C   4.91870890153864      1.39173456118907     -0.00862816189375
C   7.36980207796101      2.77948220318441     -0.00242013321349
C   7.38016266612146      1.39121750785509     -0.00087345036788
C   6.13979953912259      0.67411862320065      0.00545489144369
H   -8.27919079934664      3.40711804112415     -0.00763522772059
H   8.31511347147953      3.31811809662368     -0.00663070901292
C   -8.59175593758115      0.72483255304480     -0.00123170985383
C   -8.59902460370342     -0.63263980622873      0.00089141472904
C   -6.13981313911873     -0.67413663715361     -0.00609792660607
C   -7.38018411213749     -1.39126618958160      0.00131813493501
C   -4.91868448025621     -1.39175501803000      0.00624257154343
C   -3.68443829568458     -0.68723731573599     -0.00478966852105
C   -2.46081704024768     -1.40334517882457      0.00575341766833
C   -1.23116201232071     -0.70217386488055     -0.00636696112346
C   -0.00756962538737     -1.41741884941102      0.00108956317991
C   1.22364771588843     -0.71527537726392      0.01109518512883
C   2.44567064933149     -1.42964328900682     -0.00065482763106
C   3.67686670284649     -0.72670743155550     -0.00479541202602
C   6.13224884641929     -0.73997883984993     -0.00632338623858
C   4.90351914550401     -1.44445752054090      0.00751768830159
C   8.59901484869081      0.63260386666793     -0.00101133422380
C   8.59174548810050     -0.72485086719319      0.00072504603735
C   7.36486276438985     -1.47033266560598      0.00049486934466
H   -9.52830597181814      1.27684744919284     -0.00270163681798
H   9.54141097460619      1.17457248844457     -0.00206336648518
C   -7.36983790976868     -2.77954514593389      0.00312634335708
C   -4.92459910905015     -2.80843725734101     -0.00460528907921
C   -6.16662249566744     -3.51665219282533      0.00169655107992
C   -3.70251035970491     -3.52468154912026      0.00571878010666
C   -2.46764698511392     -2.82132596280400     -0.00632585824990
C   -0.01513347410770     -2.83314164539971     -0.00604426974092
C   -1.24712184122656     -3.53473217556300      0.00551968366725
C   1.20924506964357     -3.54791467864352      0.00805871345849
C   2.43733602215464     -2.84764173817541     -0.00608104485234
C   4.89430234377080     -2.86112296828604     -0.00526030478103
C   3.66461525504104     -3.56421984553201      0.00761911515957
C   6.12863901474565     -3.58258405771778      0.00096495711699
C   7.33967266469532     -2.85841330737039      0.00248018319869
H   -9.54144911125902     -1.17456346666430      0.00226083090216
H   9.52826186807155     -1.27691907390448      0.00197485379837
H   -8.31516504384864     -3.31814985321231      0.00729857188773
H   8.27915514249207     -3.40714078989363      0.00681973918158
C   -6.14499418870218     -4.92764727278338      0.00302254913999
C   -3.70678334799751     -4.94126171411716     -0.00679841894792
C   -4.95559005800169     -5.64349397349412      0.00116871569699
C   -2.48612132622665     -5.65478557440947      0.00614125209662
C   -1.25405833548005     -4.95612205000132     -0.00503435388927
C   1.20101257386816     -4.96928038819302     -0.00385322963129
C   -0.03033667441341     -5.66952030313900      0.00398997003238
C   3.65375010132847     -4.98074377541453     -0.00309522988330
C   2.42549269587528     -5.68117463552727      0.00628170066869
C   6.09196561781097     -4.99325796338655      0.00325918379042
C   4.89497644461045     -5.69634842095790      0.00202298796027
H   -7.08989238804069     -5.46699984223871      0.00742531082125
H   7.03105520920009     -5.54265853633254      0.00683896355417
C   -4.92354532219813     -7.07882109967734      0.00061394679214
C   -2.48534208823777     -7.08772807792913     -0.00189594564379
C   -3.75168589177895     -7.76394715763627     -0.00170126671874
C   -0.03794895698805     -7.09946487446944     -0.00168022049625
C   -1.27795610040136     -7.77290438466689     -0.00366491325785
C   2.40944432072629     -7.11402201200282     -0.00081701968533
C   1.19474993715296     -7.78618536556242     -0.00296931056689
C   4.84762105249800     -7.13126211057943      0.00168979497423
C   3.66847160587561     -7.80378799294376     -0.00065863938960
H   -5.86994035041618     -7.61383059804164      0.00215798365757
H   5.78824962538815     -7.67633218931421      0.00281691445618
H   -3.75352693944918     -8.85107156923607     -0.00353718114765
H   -1.28430440589466     -8.86087539249706     -0.00809229711623
H   1.18922157469537     -8.87416062058945     -0.00706194725726
H   3.65854661482387     -8.89086063405326     -0.00231318081200

    units angstrom      # Angstroms are the default
    no_reorient         # Geometry fixed, default
    symmetry c1         # C1 symmetry, default
}

set {
    scf_type DF         # Density fitting, faster than exact integrals
    freeze_core True    # Freeze core electrons
    basis jun-cc-pVDZ   # Jun-cc-pVDZ basis set, recommended for sSAPT0 in https://doi.org/10.1063/1.4867135
}

energy('ssapt0')        # Compute sSAPT0 energy, includes also SAPT0
--------------------------------------------------------------------------

  //              Dimer HF             //
    Molecular point group: c1
  Charge       = 1
  Multiplicity = 1
  Basis Set: JUN-CC-PVDZ
    Blend: JUN-CC-PVDZ
  Basis Set: (JUN-CC-PVDZ AUX)
    Blend: JUN-CC-PVDZ-JKFIT
  @DF-RHF Final Energy: -3953.65791025143335
    Total Energy =                      -3953.6579102514333499
 Dipole X            :          0.0017179            0.0004804            0.0021983
 Dipole Y            :         -1.5922842            1.8866171            0.2943329
 Dipole Z            :        -21.3182947           27.8801878            6.5618930
 Magnitude           :                                                    6.5684912
  //            Monomer A HF           //
    Molecular point group: c1
  Multiplicity = 1
  Basis Set: JUN-CC-PVDZ
    Blend: JUN-CC-PVDZ
  Basis Set: (JUN-CC-PVDZ AUX)
    Blend: JUN-CC-PVDZ-JKFIT
  @DF-RHF Final Energy:  -303.29812806631674
    Total Energy =                       -303.2981280663167354
  //            Monomer B HF           //
    Molecular point group: c1

    Geometry (in Angstrom), charge = 0, multiplicity = 1:

       Center              X                  Y                   Z               Mass
    ------------   -----------------  -----------------  -----------------  -----------------
      Gh(C)           0.680062820275    -1.215917226251     4.257324421259    12.000000000000
      Gh(C)          -0.680508179725    -1.215533226251     4.255296421259    12.000000000000
      Gh(N)          -1.085639179725     0.102790773749     4.254298421259    14.003074004430
      Gh(C)           0.000103820275     0.884191773749     4.251022421259    12.000000000000
      Gh(C)          -2.477369179725     0.570769773749     4.204892421259    12.000000000000
      Gh(N)           1.085217820275     0.102790773749     4.254298421259    14.003074004430
      Gh(H)           1.385141820275    -2.033356226251     4.265152421259     1.007825032230
      Gh(H)          -1.385306179725    -2.033202226251     4.255486421259     1.007825032230
      Gh(H)          -0.000013179725     1.965280773749     4.249275421259     1.007825032230
      Gh(C)           2.478112820275     0.567888773749     4.271190421259    12.000000000000
      Gh(H)           2.490587820275     1.658141773750     4.243845421259     1.007825032230
      Gh(H)           2.967023820275     0.220712773749     5.184636421259     1.007825032230
      Gh(H)           3.001423820275     0.176416773749     3.395707421259     1.007825032230
      Gh(H)          -2.857363179725     0.490810773749     3.182821421259     1.007825032230
      Gh(H)          -3.082683179725    -0.042294226251     4.874976421259     1.007825032230
      Gh(H)          -2.518132179725     1.610717773749     4.531876421259     1.007825032230
         C           -3.668445443746     7.803763943832    -0.348817537406    12.000000000000
         C           -4.847602899072     7.131253605090    -0.351184112338    12.000000000000
         C           -4.894963478901     5.696342177281    -0.351757023436    12.000000000000
         C           -3.653744858499     4.980742114708    -0.344096581707    12.000000000000
         C           -2.409429301220     7.113992810424    -0.348623195146    12.000000000000
         C           -2.425481523830     5.681133724653    -0.355628084016    12.000000000000
         C           -1.194748196161     7.786155968059    -0.347151014604    12.000000000000
         C            0.037954849212     7.099433419506    -0.349321718909    12.000000000000
         C            0.030328407694     5.669501333454    -0.354805103824    12.000000000000
         C           -1.200988687630     4.969282121665    -0.345835369891    12.000000000000
         C            1.277953646089     7.772871216944    -0.347945870348    12.000000000000
         C            2.485353904999     7.087708658987    -0.350220358253    12.000000000000
         C            2.486124505192     5.654782583990    -0.357158107240    12.000000000000
         C            1.254078739919     4.956089887414    -0.345530165652    12.000000000000
         C            3.751710411681     7.763923924730    -0.350093506872    12.000000000000
         C            4.923561876460     7.078792550739    -0.352149987580    12.000000000000
         C            4.955603091600     5.643459237119    -0.352310400387    12.000000000000
         C            3.706797354479     4.941221982083    -0.347218840218    12.000000000000
         H           -3.658525317484     8.890839192885    -0.347132549156     1.007825032230
         H           -1.189217509482     8.874132861109    -0.343179138162     1.007825032230
         H            1.284290059161     8.860845209238    -0.343787046207     1.007825032230
         H            3.753537907074     8.851047052722    -0.348570982557     1.007825032230
         H            5.869954523482     7.613806608405    -0.353075354623     1.007825032230
         H           -5.788235887228     7.676313986684    -0.352743959694     1.007825032230
         C           -6.091978138422     4.993271787393    -0.353629263927    12.000000000000
         C           -6.128665660043     3.582591942548    -0.352428086899    12.000000000000
         C           -3.664583919771     3.564193953494    -0.355353181516    12.000000000000
         C           -4.894302384424     2.861092549650    -0.346184196531    12.000000000000
         C           -2.437339174623     2.847623430834    -0.343521402980    12.000000000000
         C           -1.209232037322     3.547898708728    -0.357200429771    12.000000000000
         C            1.247137392437     3.534692525179    -0.358009036177    12.000000000000
         C            0.015171859844     2.833123613055    -0.346324852952    12.000000000000
         C            2.467640992715     2.821301751005    -0.346224794829    12.000000000000
         C            3.702545294854     3.524671928174    -0.359712755671    12.000000000000
         C            6.144976206658     4.927584139881    -0.353543845599    12.000000000000
         C            6.166584179136     3.516596249692    -0.351377292162    12.000000000000
         C            4.924605778734     2.808419699104    -0.344838545925    12.000000000000
         H            7.089901329916     5.466899539973    -0.357305726448     1.007825032230
         H           -7.031045930827     5.542699726607    -0.357862478879     1.007825032230
         C           -7.339702220848     2.858423308329    -0.354055254340    12.000000000000
         C           -7.364886137784     1.470335145333    -0.352289716213    12.000000000000
         C           -4.903508788672     1.444438585909    -0.357005980405    12.000000000000
         C           -6.132261332336     0.739951130803    -0.344715936422    12.000000000000
         C           -3.676878980242     0.726708916423    -0.346378264005    12.000000000000
         C           -2.445660765791     1.429652907012    -0.356687974206    12.000000000000
         C           -1.223604861027     0.715336275384    -0.345258709675    12.000000000000
         C            0.007633689588     1.417394922987    -0.346793055957    12.000000000000
         C            1.231215628021     0.702128464337    -0.365619641613    12.000000000000
         C            2.460816920806     1.403303809875    -0.346115132722    12.000000000000
         C            3.684426074471     0.687210201962    -0.346943919000    12.000000000000
         C            4.918704721813     1.391746334939    -0.359345740635    12.000000000000
         C            7.369797898236     2.779493976934    -0.353137711955    12.000000000000
         C            7.380158486396     1.391229281605    -0.351591029109    12.000000000000
         C            6.139795359397     0.674130396950    -0.345262687298    12.000000000000
         H           -8.279194979072     3.407129814874    -0.358352806462     1.007825032230
         H            8.315109291754     3.318129870373    -0.357348287754     1.007825032230
         C           -8.591760117307     0.724844326794    -0.351949288595    12.000000000000
         C           -8.599028783429    -0.632628032479    -0.349826164012    12.000000000000
         C           -6.139817318844    -0.674124863404    -0.356815505347    12.000000000000
         C           -7.380188291863    -1.391254415832    -0.349399443806    12.000000000000
         C           -4.918688659982    -1.391743244281    -0.344475007198    12.000000000000
         C           -3.684442475410    -0.687225541986    -0.355507247262    12.000000000000
         C           -2.460821219973    -1.403333405075    -0.344964161073    12.000000000000
         C           -1.231166192046    -0.702162091131    -0.357084539865    12.000000000000
         C           -0.007573805113    -1.417407075662    -0.349628015561    12.000000000000
         C            1.223643536163    -0.715263603514    -0.339622393612    12.000000000000
         C            2.445666469606    -1.429631515257    -0.351372406372    12.000000000000
         C            3.676862523121    -0.726695657806    -0.355512990767    12.000000000000
         C            6.132244666694    -0.739967066100    -0.357040964980    12.000000000000
         C            4.903514965779    -1.444445746791    -0.343199890440    12.000000000000
         C            8.599010668965     0.632615640417    -0.351728912965    12.000000000000
         C            8.591741308375    -0.724839093444    -0.349992532704    12.000000000000
         C            7.364858584664    -1.470320891856    -0.350222709397    12.000000000000
         H           -9.528310151544     1.276859222942    -0.353419215559     1.007825032230
         H            9.541406794881     1.174584262194    -0.352780945226     1.007825032230
         C           -7.369842089494    -2.779533372184    -0.347591235384    12.000000000000
         C           -4.924603288776    -2.808425483592    -0.355322867820    12.000000000000
         C           -6.166626675393    -3.516640419076    -0.349021027661    12.000000000000
         C           -3.702514539430    -3.524669775371    -0.344998798635    12.000000000000
         C           -2.467651164839    -2.821314189055    -0.357043436991    12.000000000000
         C           -0.015137653833    -2.833129871650    -0.356761848482    12.000000000000
         C           -1.247126020952    -3.534720401814    -0.345197895074    12.000000000000
         C            1.209240889918    -3.547902904894    -0.342658865283    12.000000000000
         C            2.437331842429    -2.847629964426    -0.356798623594    12.000000000000
         C            4.894298164045    -2.861111194537    -0.355977883522    12.000000000000
         C            3.664611075316    -3.564208071783    -0.343098463582    12.000000000000
         C            6.128634835020    -3.582572283968    -0.349752621624    12.000000000000
         C            7.339668484970    -2.858401533621    -0.348237395543    12.000000000000
         H           -9.541453290984    -1.174551692915    -0.348456747839     1.007825032230
         H            9.528257688346    -1.276907300155    -0.348742724943     1.007825032230
         H           -8.315169223574    -3.318138079463    -0.343419006854     1.007825032230
         H            8.279150962767    -3.407129016144    -0.343897839560     1.007825032230
         C           -6.144998368428    -4.927635499034    -0.347695029601    12.000000000000
         C           -3.706787527723    -4.941249940368    -0.357515997689    12.000000000000
         C           -4.955594237727    -5.643482199745    -0.349548863044    12.000000000000
         C           -2.486125505952    -5.654773800660    -0.344576326645    12.000000000000
         C           -1.254062515205    -4.956110276252    -0.355751932631    12.000000000000
         C            1.201008394143    -4.969268614444    -0.354570808373    12.000000000000
         C           -0.030340854139    -5.669508529390    -0.346727608709    12.000000000000
         C            3.653745921603    -4.980732001665    -0.353812808625    12.000000000000
         C            2.425488516150    -5.681162861778    -0.344435878073    12.000000000000
         C            6.091961438086    -4.993246189637    -0.347458394951    12.000000000000
         C            4.894972264885    -5.696336647208    -0.348694590781    12.000000000000
         H           -7.089896567766    -5.466988068489    -0.343292267920     1.007825032230
         H            7.031051029475    -5.542646762583    -0.343878615187     1.007825032230
         C           -4.923549501924    -7.078809325928    -0.350103631949    12.000000000000
         C           -2.485346267963    -7.087716304180    -0.352613524385    12.000000000000
         C           -3.751690071504    -7.763935383887    -0.352418845460    12.000000000000
         C           -0.037953136713    -7.099453100720    -0.352397799237    12.000000000000
         C           -1.277960280127    -7.772892610917    -0.354382491999    12.000000000000
         C            2.409440141001    -7.114010238253    -0.351534598427    12.000000000000
         C            1.194745757428    -7.786173591813    -0.353686889308    12.000000000000
         C            4.847616872773    -7.131250336830    -0.349027783767    12.000000000000
         C            3.668467426150    -7.803776219194    -0.351376218131    12.000000000000
         H           -5.869944530142    -7.613818824292    -0.348559595084     1.007825032230
         H            5.788245445663    -7.676320415565    -0.347900664285     1.007825032230
         H           -3.753531119175    -8.851059795487    -0.354254759889     1.007825032230
         H           -1.284308585620    -8.860863618748    -0.358809875857     1.007825032230
         H            1.189217394970    -8.874148846840    -0.357779525999     1.007825032230
         H            3.658542435098    -8.890848860304    -0.353030759553     1.007825032230

  Charge       = 0
  Multiplicity = 1
  Basis Set: JUN-CC-PVDZ
    Blend: JUN-CC-PVDZ
  Basis Set: (JUN-CC-PVDZ AUX)
    Blend: JUN-CC-PVDZ-JKFIT

    Orbital Energies [Eh]
    ---------------------

    Doubly Occupied:

       1A    -11.264010     2A    -11.263689     3A    -11.263661
       4A    -11.263314     5A    -11.263303     6A    -11.263265
       7A    -11.263121     8A    -11.263110     9A    -11.263084
      10A    -11.262908    11A    -11.262766    12A    -11.262753
      13A    -11.262271    14A    -11.262262    15A    -11.262215
      16A    -11.262194    17A    -11.262128    18A    -11.262097
      19A    -11.262054    20A    -11.262012    21A    -11.262009
      22A    -11.261881    23A    -11.261877    24A    -11.261741
      25A    -11.261731    26A    -11.261711    27A    -11.261706
      28A    -11.261663    29A    -11.261655    30A    -11.261568
      31A    -11.261546    32A    -11.261543    33A    -11.261521
      34A    -11.261515    35A    -11.261499    36A    -11.261495
      37A    -11.261318    38A    -11.261309    39A    -11.261302
      40A    -11.261298    41A    -11.261288    42A    -11.261284
      43A    -11.261272    44A    -11.261258    45A    -11.261252
      46A    -11.261229    47A    -11.261224    48A    -11.261219
      49A    -11.261063    50A    -11.261042    51A    -11.261024
      52A    -11.260969    53A    -11.260944    54A    -11.260892
      55A    -11.259899    56A    -11.259886    57A    -11.259881
      58A    -11.259854    59A    -11.259850    60A    -11.259835
      61A    -11.259272    62A    -11.259248    63A    -11.259241
      64A    -11.259192    65A    -11.259186    66A    -11.259158
      67A    -11.258901    68A    -11.258884    69A    -11.258880
      70A    -11.258854    71A    -11.258850    72A    -11.258838
      73A    -11.254514    74A    -11.254512    75A    -11.254508
      76A    -11.254505    77A    -11.254504    78A    -11.254498
      79A    -11.253641    80A    -11.253639    81A    -11.253635
      82A    -11.253631    83A    -11.253630    84A    -11.253627
      85A    -11.253557    86A    -11.253554    87A    -11.253550
      88A    -11.253546    89A    -11.253545    90A    -11.253542
      91A    -11.253041    92A    -11.253040    93A    -11.253036
      94A    -11.253033    95A    -11.253031    96A    -11.253026
      97A     -1.253897    98A     -1.238967    99A     -1.238946
     100A     -1.220432   101A     -1.220424   102A     -1.215403
     103A     -1.201014   104A     -1.195574   105A     -1.188109
     106A     -1.188091   107A     -1.173737   108A     -1.173736
     109A     -1.155588   110A     -1.155582   111A     -1.152675
     112A     -1.144697   113A     -1.144695   114A     -1.128528
     115A     -1.114672   116A     -1.113137   117A     -1.112451
     118A     -1.112425   119A     -1.111595   120A     -1.088392
     121A     -1.088378   122A     -1.076938   123A     -1.076936
     124A     -1.067578   125A     -1.067546   126A     -1.064931
     127A     -1.046768   128A     -1.046758   129A     -1.040444
     130A     -1.038712   131A     -1.038709   132A     -1.025198
     133A     -1.021344   134A     -1.021283   135A     -1.007147
     136A     -1.006769   137A     -1.003764   138A     -1.000449
     139A     -1.000399   140A     -0.991052   141A     -0.970951
     142A     -0.970901   143A     -0.955856   144A     -0.955798
     145A     -0.905541   146A     -0.905527   147A     -0.905501
     148A     -0.905484   149A     -0.904278   150A     -0.892315
     151A     -0.892254   152A     -0.890319   153A     -0.890265
     154A     -0.889411   155A     -0.872189   156A     -0.869036
     157A     -0.851508   158A     -0.847818   159A     -0.847803
     160A     -0.845552   161A     -0.842971   162A     -0.834528
     163A     -0.834517   164A     -0.828093   165A     -0.828085
     166A     -0.784516   167A     -0.784506   168A     -0.783621
     169A     -0.783601   170A     -0.782247   171A     -0.782224
     172A     -0.781987   173A     -0.766953   174A     -0.760740
     175A     -0.750528   176A     -0.733456   177A     -0.727037
     178A     -0.727010   179A     -0.725039   180A     -0.724506
     181A     -0.724480   182A     -0.718445   183A     -0.713726
     184A     -0.713719   185A     -0.699543   186A     -0.699521
     187A     -0.686073   188A     -0.685923   189A     -0.685917
     190A     -0.682135   191A     -0.682128   192A     -0.678739
     193A     -0.653590   194A     -0.650835   195A     -0.650802
     196A     -0.649762   197A     -0.649752   198A     -0.649533
     199A     -0.640887   200A     -0.640844   201A     -0.640050
     202A     -0.639129   203A     -0.635980   204A     -0.635947
     205A     -0.629096   206A     -0.617753   207A     -0.615272
     208A     -0.615248   209A     -0.608763   210A     -0.608757
     211A     -0.599131   212A     -0.599114   213A     -0.598701
     214A     -0.598550   215A     -0.598537   216A     -0.597992
     217A     -0.595031   218A     -0.595019   219A     -0.594681
     220A     -0.594176   221A     -0.591911   222A     -0.591907
     223A     -0.587335   224A     -0.577770   225A     -0.577756
     226A     -0.575683   227A     -0.575677   228A     -0.573340
     229A     -0.569572   230A     -0.568097   231A     -0.568071
     232A     -0.566709   233A     -0.566700   234A     -0.560886
     235A     -0.558676   236A     -0.558642   237A     -0.558398
     238A     -0.554325   239A     -0.550548   240A     -0.547445
     241A     -0.544246   242A     -0.535012   243A     -0.534991
     244A     -0.533498   245A     -0.533480   246A     -0.528041
     247A     -0.528026   248A     -0.527735   249A     -0.517120
     250A     -0.517087   251A     -0.515333   252A     -0.515326
     253A     -0.509603   254A     -0.509591   255A     -0.497983
     256A     -0.496411   257A     -0.496377   258A     -0.493790
     259A     -0.493762   260A     -0.489420   261A     -0.481413
     262A     -0.477393   263A     -0.477393   264A     -0.473952
     265A     -0.469386   266A     -0.466475   267A     -0.466472
     268A     -0.458786   269A     -0.446623   270A     -0.446568
     271A     -0.440995   272A     -0.440755   273A     -0.440708
     274A     -0.434662   275A     -0.433879   276A     -0.407342
     277A     -0.407320   278A     -0.386382   279A     -0.386320
     280A     -0.385703   281A     -0.385702   282A     -0.383724
     283A     -0.354291   284A     -0.354268   285A     -0.350634
     286A     -0.338052   287A     -0.335545   288A     -0.335510
     289A     -0.332683   290A     -0.332681   291A     -0.307032
     292A     -0.301905   293A     -0.301841   294A     -0.300807
     295A     -0.286136   296A     -0.256445   297A     -0.253453
     298A     -0.253410   299A     -0.204227   300A     -0.204141

  @DF-RHF Final Energy: -3650.34061853996081

   => Energetics <=

    Nuclear Repulsion Energy =          15611.4211649754324753
    One-Electron Energy =              -36072.1652999701982480
    Two-Electron Energy =               16810.4035164548040484
    Total Energy =                      -3650.3406185399617243
 Dipole X            :         -0.0009025            0.0002112           -0.0006913
 Dipole Y            :          0.0044537           -0.0044281            0.0000256
 Dipole Z            :        397.6417263         -397.6527108           -0.0109845
 Magnitude           :                                                    0.0110062

    SAPT Results
  --------------------------------------------------------------------------------------------------------
    Electrostatics                -11.75326105 [mEh]      -7.37528266 [kcal/mol]     -30.85818264 [kJ/mol]
      Elst10,r                    -11.75326105 [mEh]      -7.37528266 [kcal/mol]     -30.85818264 [kJ/mol]

    Exchange                        0.49490411 [mEh]       0.31055702 [kcal/mol]       1.29937056 [kJ/mol]
      Exch10                        0.49490411 [mEh]       0.31055702 [kcal/mol]       1.29937056 [kJ/mol]
      Exch10(S^2)                   0.49488441 [mEh]       0.31054466 [kcal/mol]       1.29931885 [kJ/mol]

    Induction                      -7.90528821 [mEh]      -4.96064325 [kcal/mol]     -20.75533135 [kJ/mol]
      Ind20,r                      -7.70872973 [mEh]      -4.83730094 [kcal/mol]     -20.23926713 [kJ/mol]
      Exch-Ind20,r                  0.10077322 [mEh]       0.06323615 [kcal/mol]       0.26458005 [kJ/mol]
      delta HF,r (2)               -0.29733170 [mEh]      -0.18657846 [kcal/mol]      -0.78064427 [kJ/mol]

    Dispersion                     -9.92880939 [mEh]      -6.23042196 [kcal/mol]     -26.06808547 [kJ/mol]
      Disp20                      -10.01677811 [mEh]      -6.28562316 [kcal/mol]     -26.29904731 [kJ/mol]
      Exch-Disp20                   0.08796872 [mEh]       0.05520121 [kcal/mol]       0.23096185 [kJ/mol]
      Disp20 (SS)                  -5.00838906 [mEh]      -3.14281158 [kcal/mol]     -13.14952366 [kJ/mol]
      Disp20 (OS)                  -5.00838906 [mEh]      -3.14281158 [kcal/mol]     -13.14952366 [kJ/mol]
      Exch-Disp20 (SS)              0.05822687 [mEh]       0.03653792 [kcal/mol]       0.15287464 [kJ/mol]
      Exch-Disp20 (OS)              0.02974185 [mEh]       0.01866329 [kcal/mol]       0.07808721 [kJ/mol]

  Total HF                        -19.16364516 [mEh]     -12.02536889 [kcal/mol]     -50.31414343 [kJ/mol]
  Total SAPT0                     -29.09245455 [mEh]     -18.25579084 [kcal/mol]     -76.38222889 [kJ/mol]

  Special recipe for scaled SAPT0 (see Manual):
    Electrostatics sSAPT0         -11.75326105 [mEh]      -7.37528266 [kcal/mol]     -30.85818264 [kJ/mol]
    Exchange sSAPT0                 0.49490411 [mEh]       0.31055702 [kcal/mol]       1.29937056 [kJ/mol]
    Induction sSAPT0               -7.90527618 [mEh]      -4.96063570 [kcal/mol]     -20.75529976 [kJ/mol]
    Dispersion sSAPT0              -9.92879889 [mEh]      -6.23041537 [kcal/mol]     -26.06805789 [kJ/mol]
  Total sSAPT0                    -29.09243201 [mEh]     -18.25577670 [kcal/mol]     -76.38216973 [kJ/mol]
  --------------------------------------------------------------------------------------------------------

*** Psi4 exiting successfully. Buy a developer a beer!
