                               Psi4 1.9 release

  ==> Input File <==

--------------------------------------------------------------------------
memory 64 GB # how much memory is available ! Depends on the nodes/cores !

molecule dimer {
# monomer A
+1 1    # Charge and multiplicity
C  0.680067 -1.215929 5.208042
C -0.680504 -1.215545 5.206014
N -1.085635  0.102779 5.205016
C  0.000108  0.884180 5.201740
C -2.477365  0.570758 5.155610
N  1.085222  0.102779 5.205016
H  1.385146 -2.033368 5.215870
H -1.385302 -2.033214 5.206204
H -0.000009  1.965269 5.199993
C  2.478117  0.567877 5.221908
H  2.490592  1.658130 5.194563
H  2.967028  0.220701 6.135354
H  3.001428  0.176405 4.346425
H -2.857359  0.490799 4.133539
H -3.082679 -0.042306 5.825694
H -2.518128  1.610706 5.482594
--
# monomer B
0 1     # Charge and multiplicity
C   -3.66844126402057      7.80375217008252      0.00190004133558
C   -4.84759871934653      7.13124183134024     -0.00046653359696
C   -4.89495929917518      5.69633040353158     -0.00103944469517
C   -3.65374067877320      4.98073034095895      0.00662099703436
C   -2.40942512149445      7.11398103667468      0.00209438359570
C   -2.42547734410473      5.68112195090346     -0.00491050527438
C   -1.19474401643570      7.78614419430947      0.00356656413763
C   0.03795902893699      7.09942164575698      0.00139585983271
C   0.03033258741920      5.66948955970466     -0.00408752508301
C   -1.20098450790502      4.96927034791531      0.00488220885047
C   1.27795782581485      7.77285944319479      0.00277170839332
C   2.48535808472416      7.08769688523756      0.00049722048857
C   2.48612868491717      5.65477081024076     -0.00644052849921
C   1.25408291964399      4.95607811366431      0.00518741308898
C   3.75171459140595      7.76391215098033      0.00062407186893
C   4.92356605618520      7.07878077698995     -0.00143240883900
C   4.95560727132542      5.64344746336949     -0.00159282164606
C   3.70680153420475      4.94121020833308      0.00349873852374
H   -3.65852113775815      8.89082741913536      0.00358502958574
H   -1.18921332975660      8.87412108735996      0.00753844057883
H   1.28429423888630      8.86083343548850      0.00693053253426
H   3.75354208679975      8.85103527897216      0.00214659618464
H   5.86995870320703      7.61379483465560     -0.00235777588134
H   -5.78823170750226      7.67630221293400     -0.00202638095293
C   -6.09197395869619      4.99326001364347     -0.00291168518608
C   -6.12866148031747      3.58258016879823     -0.00171050815740
C   -3.66457974004527      3.56418217974434     -0.00463560277484
C   -4.89429820469869      2.86108077590057      0.00453338221034
C   -2.43733499489796      2.84761165708481      0.00719617576166
C   -1.20922785759670      3.54788693497833     -0.00648285103018
C   1.24714157216223      3.53468075142962     -0.00729145743546
C   0.01517603956900      2.83311183930540      0.00439272578912
C   2.46764517244071      2.82128997725533      0.00449278391269
C   3.70254947457969      3.52466015442405     -0.00899517692985
C   6.14498038638375      4.92757236613191     -0.00282626685777
C   6.16658835886151      3.51658447594213     -0.00065971342101
C   4.92460995845939      2.80840792535402      0.00587903281610
H   7.08990550964105      5.46688776622306     -0.00658814770723
H   -7.03104175110130      5.54268795285765     -0.00714490013730
C   -7.33969804112295      2.85841153457957     -0.00333767559888
C   -7.36488195805880      1.47032337158330     -0.00157213747140
C   -4.90350460894690      1.44442681216000     -0.00628840166334
C   -6.13225715261081      0.73993935705394      0.00600164231964
C   -3.67687480051673      0.72669714267312      0.00433931473643
C   -2.44565658606518      1.42964113326212     -0.00597039546461
C   -1.22360068130162      0.71532450163492      0.00545886906656
C   0.00763786931376      1.41738314923765      0.00392452278437
C   1.23121980774686      0.70211669058719     -0.01490206287210
C   2.46082110053113      1.40329203612573      0.00460244601878
C   3.68443025419614      0.68719842821222      0.00377365974158
C   4.91870890153864      1.39173456118907     -0.00862816189375
C   7.36980207796101      2.77948220318441     -0.00242013321349
C   7.38016266612146      1.39121750785509     -0.00087345036788
C   6.13979953912259      0.67411862320065      0.00545489144369
H   -8.27919079934664      3.40711804112415     -0.00763522772059
H   8.31511347147953      3.31811809662368     -0.00663070901292
C   -8.59175593758115      0.72483255304480     -0.00123170985383
C   -8.59902460370342     -0.63263980622873      0.00089141472904
C   -6.13981313911873     -0.67413663715361     -0.00609792660607
C   -7.38018411213749     -1.39126618958160      0.00131813493501
C   -4.91868448025621     -1.39175501803000      0.00624257154343
C   -3.68443829568458     -0.68723731573599     -0.00478966852105
C   -2.46081704024768     -1.40334517882457      0.00575341766833
C   -1.23116201232071     -0.70217386488055     -0.00636696112346
C   -0.00756962538737     -1.41741884941102      0.00108956317991
C   1.22364771588843     -0.71527537726392      0.01109518512883
C   2.44567064933149     -1.42964328900682     -0.00065482763106
C   3.67686670284649     -0.72670743155550     -0.00479541202602
C   6.13224884641929     -0.73997883984993     -0.00632338623858
C   4.90351914550401     -1.44445752054090      0.00751768830159
C   8.59901484869081      0.63260386666793     -0.00101133422380
C   8.59174548810050     -0.72485086719319      0.00072504603735
C   7.36486276438985     -1.47033266560598      0.00049486934466
H   -9.52830597181814      1.27684744919284     -0.00270163681798
H   9.54141097460619      1.17457248844457     -0.00206336648518
C   -7.36983790976868     -2.77954514593389      0.00312634335708
C   -4.92459910905015     -2.80843725734101     -0.00460528907921
C   -6.16662249566744     -3.51665219282533      0.00169655107992
C   -3.70251035970491     -3.52468154912026      0.00571878010666
C   -2.46764698511392     -2.82132596280400     -0.00632585824990
C   -0.01513347410770     -2.83314164539971     -0.00604426974092
C   -1.24712184122656     -3.53473217556300      0.00551968366725
C   1.20924506964357     -3.54791467864352      0.00805871345849
C   2.43733602215464     -2.84764173817541     -0.00608104485234
C   4.89430234377080     -2.86112296828604     -0.00526030478103
C   3.66461525504104     -3.56421984553201      0.00761911515957
C   6.12863901474565     -3.58258405771778      0.00096495711699
C   7.33967266469532     -2.85841330737039      0.00248018319869
H   -9.54144911125902     -1.17456346666430      0.00226083090216
H   9.52826186807155     -1.27691907390448      0.00197485379837
H   -8.31516504384864     -3.31814985321231      0.00729857188773
H   8.27915514249207     -3.40714078989363      0.00681973918158
C   -6.14499418870218     -4.92764727278338      0.00302254913999
C   -3.70678334799751     -4.94126171411716     -0.00679841894792
C   -4.95559005800169     -5.64349397349412      0.00116871569699
C   -2.48612132622665     -5.65478557440947      0.00614125209662
C   -1.25405833548005     -4.95612205000132     -0.00503435388927
C   1.20101257386816     -4.96928038819302     -0.00385322963129
C   -0.03033667441341     -5.66952030313900      0.00398997003238
C   3.65375010132847     -4.98074377541453     -0.00309522988330
C   2.42549269587528     -5.68117463552727      0.00628170066869
C   6.09196561781097     -4.99325796338655      0.00325918379042
C   4.89497644461045     -5.69634842095790      0.00202298796027
H   -7.08989238804069     -5.46699984223871      0.00742531082125
H   7.03105520920009     -5.54265853633254      0.00683896355417
C   -4.92354532219813     -7.07882109967734      0.00061394679214
C   -2.48534208823777     -7.08772807792913     -0.00189594564379
C   -3.75168589177895     -7.76394715763627     -0.00170126671874
C   -0.03794895698805     -7.09946487446944     -0.00168022049625
C   -1.27795610040136     -7.77290438466689     -0.00366491325785
C   2.40944432072629     -7.11402201200282     -0.00081701968533
C   1.19474993715296     -7.78618536556242     -0.00296931056689
C   4.84762105249800     -7.13126211057943      0.00168979497423
C   3.66847160587561     -7.80378799294376     -0.00065863938960
H   -5.86994035041618     -7.61383059804164      0.00215798365757
H   5.78824962538815     -7.67633218931421      0.00281691445618
H   -3.75352693944918     -8.85107156923607     -0.00353718114765
H   -1.28430440589466     -8.86087539249706     -0.00809229711623
H   1.18922157469537     -8.87416062058945     -0.00706194725726
H   3.65854661482387     -8.89086063405326     -0.00231318081200

    units angstrom      # Angstroms are the default
    no_reorient         # Geometry fixed, default
    symmetry c1         # C1 symmetry, default
}

set {
    scf_type DF         # Density fitting, faster than exact integrals
    freeze_core True    # Freeze core electrons
    basis jun-cc-pVDZ   # Jun-cc-pVDZ basis set, recommended for sSAPT0 in https://doi.org/10.1063/1.4867135
}

energy('ssapt0')        # Compute sSAPT0 energy, includes also SAPT0
--------------------------------------------------------------------------

  //              Dimer HF             //
    Molecular point group: c1
  Charge       = 1
  Multiplicity = 1
  Basis Set: JUN-CC-PVDZ
    Blend: JUN-CC-PVDZ
  Basis Set: (JUN-CC-PVDZ AUX)
    Blend: JUN-CC-PVDZ-JKFIT
  @DF-RHF Final Energy: -3953.65373751971129
    Total Energy =                      -3953.6537375197112851
 Dipole X            :          0.0016534            0.0004804            0.0021338
 Dipole Y            :         -1.5779543            1.8866171            0.3086628
 Dipole Z            :        -23.7796669           31.5241021            7.7444352
 Magnitude           :                                                    7.7505841
  //            Monomer A HF           //
    Molecular point group: c1
  Multiplicity = 1
  Basis Set: JUN-CC-PVDZ
    Blend: JUN-CC-PVDZ
  Basis Set: (JUN-CC-PVDZ AUX)
    Blend: JUN-CC-PVDZ-JKFIT
  @DF-RHF Final Energy:  -303.29775433762524
    Total Energy =                       -303.2977543376252356
  //            Monomer B HF           //
    Molecular point group: c1

    Geometry (in Angstrom), charge = 0, multiplicity = 1:

       Center              X                  Y                   Z               Mass
    ------------   -----------------  -----------------  -----------------  -----------------
      Gh(C)           0.680062820275    -1.215917226251     4.811579055909    12.000000000000
      Gh(C)          -0.680508179725    -1.215533226251     4.809551055909    12.000000000000
      Gh(N)          -1.085639179725     0.102790773749     4.808553055909    14.003074004430
      Gh(C)           0.000103820275     0.884191773749     4.805277055909    12.000000000000
      Gh(C)          -2.477369179725     0.570769773749     4.759147055909    12.000000000000
      Gh(N)           1.085217820275     0.102790773749     4.808553055909    14.003074004430
      Gh(H)           1.385141820275    -2.033356226251     4.819407055909     1.007825032230
      Gh(H)          -1.385306179725    -2.033202226251     4.809741055909     1.007825032230
      Gh(H)          -0.000013179725     1.965280773749     4.803530055909     1.007825032230
      Gh(C)           2.478112820275     0.567888773749     4.825445055909    12.000000000000
      Gh(H)           2.490587820275     1.658141773750     4.798100055909     1.007825032230
      Gh(H)           2.967023820275     0.220712773749     5.738891055909     1.007825032230
      Gh(H)           3.001423820275     0.176416773749     3.949962055909     1.007825032230
      Gh(H)          -2.857363179725     0.490810773749     3.737076055909     1.007825032230
      Gh(H)          -3.082683179725    -0.042294226251     5.429231055909     1.007825032230
      Gh(H)          -2.518132179725     1.610717773749     5.086131055909     1.007825032230
         C           -3.668445443746     7.803763943832    -0.394562902756    12.000000000000
         C           -4.847602899072     7.131253605090    -0.396929477688    12.000000000000
         C           -4.894963478901     5.696342177281    -0.397502388787    12.000000000000
         C           -3.653744858499     4.980742114708    -0.389841947057    12.000000000000
         C           -2.409429301220     7.113992810424    -0.394368560496    12.000000000000
         C           -2.425481523830     5.681133724653    -0.401373449366    12.000000000000
         C           -1.194748196161     7.786155968059    -0.392896379954    12.000000000000
         C            0.037954849212     7.099433419506    -0.395067084259    12.000000000000
         C            0.030328407694     5.669501333454    -0.400550469174    12.000000000000
         C           -1.200988687630     4.969282121665    -0.391580735241    12.000000000000
         C            1.277953646089     7.772871216944    -0.393691235698    12.000000000000
         C            2.485353904999     7.087708658987    -0.395965723603    12.000000000000
         C            2.486124505192     5.654782583990    -0.402903472591    12.000000000000
         C            1.254078739919     4.956089887414    -0.391275531002    12.000000000000
         C            3.751710411681     7.763923924730    -0.395838872223    12.000000000000
         C            4.923561876460     7.078792550739    -0.397895352930    12.000000000000
         C            4.955603091600     5.643459237119    -0.398055765738    12.000000000000
         C            3.706797354479     4.941221982083    -0.392964205568    12.000000000000
         H           -3.658525317484     8.890839192885    -0.392877914506     1.007825032230
         H           -1.189217509482     8.874132861109    -0.388924503513     1.007825032230
         H            1.284290059161     8.860845209238    -0.389532411557     1.007825032230
         H            3.753537907074     8.851047052722    -0.394316347907     1.007825032230
         H            5.869954523482     7.613806608405    -0.398820719973     1.007825032230
         H           -5.788235887228     7.676313986684    -0.398489325044     1.007825032230
         C           -6.091978138422     4.993271787393    -0.399374629278    12.000000000000
         C           -6.128665660043     3.582591942548    -0.398173452249    12.000000000000
         C           -3.664583919771     3.564193953494    -0.401098546866    12.000000000000
         C           -4.894302384424     2.861092549650    -0.391929561881    12.000000000000
         C           -2.437339174623     2.847623430834    -0.389266768330    12.000000000000
         C           -1.209232037322     3.547898708728    -0.402945795122    12.000000000000
         C            1.247137392437     3.534692525179    -0.403754401527    12.000000000000
         C            0.015171859844     2.833123613055    -0.392070218302    12.000000000000
         C            2.467640992715     2.821301751005    -0.391970160179    12.000000000000
         C            3.702545294854     3.524671928174    -0.405458121021    12.000000000000
         C            6.144976206658     4.927584139881    -0.399289210949    12.000000000000
         C            6.166584179136     3.516596249692    -0.397122657512    12.000000000000
         C            4.924605778734     2.808419699104    -0.390583911275    12.000000000000
         H            7.089901329916     5.466899539973    -0.403051091799     1.007825032230
         H           -7.031045930827     5.542699726607    -0.403607844229     1.007825032230
         C           -7.339702220848     2.858423308329    -0.399800619690    12.000000000000
         C           -7.364886137784     1.470335145333    -0.398035081563    12.000000000000
         C           -4.903508788672     1.444438585909    -0.402751345755    12.000000000000
         C           -6.132261332336     0.739951130803    -0.390461301772    12.000000000000
         C           -3.676878980242     0.726708916423    -0.392123629355    12.000000000000
         C           -2.445660765791     1.429652907012    -0.402433339556    12.000000000000
         C           -1.223604861027     0.715336275384    -0.391004075025    12.000000000000
         C            0.007633689588     1.417394922987    -0.392538421307    12.000000000000
         C            1.231215628021     0.702128464337    -0.411365006964    12.000000000000
         C            2.460816920806     1.403303809875    -0.391860498073    12.000000000000
         C            3.684426074471     0.687210201962    -0.392689284350    12.000000000000
         C            4.918704721813     1.391746334939    -0.405091105985    12.000000000000
         C            7.369797898236     2.779493976934    -0.398883077305    12.000000000000
         C            7.380158486396     1.391229281605    -0.397336394459    12.000000000000
         C            6.139795359397     0.674130396950    -0.391008052648    12.000000000000
         H           -8.279194979072     3.407129814874    -0.404098171812     1.007825032230
         H            8.315109291754     3.318129870373    -0.403093653104     1.007825032230
         C           -8.591760117307     0.724844326794    -0.397694653945    12.000000000000
         C           -8.599028783429    -0.632628032479    -0.395571529362    12.000000000000
         C           -6.139817318844    -0.674124863404    -0.402560870698    12.000000000000
         C           -7.380188291863    -1.391254415832    -0.395144809156    12.000000000000
         C           -4.918688659982    -1.391743244281    -0.390220372548    12.000000000000
         C           -3.684442475410    -0.687225541986    -0.401252612613    12.000000000000
         C           -2.460821219973    -1.403333405075    -0.390709526423    12.000000000000
         C           -1.231166192046    -0.702162091131    -0.402829905215    12.000000000000
         C           -0.007573805113    -1.417407075662    -0.395373380912    12.000000000000
         C            1.223643536163    -0.715263603514    -0.385367758963    12.000000000000
         C            2.445666469606    -1.429631515257    -0.397117771723    12.000000000000
         C            3.676862523121    -0.726695657806    -0.401258356117    12.000000000000
         C            6.132244666694    -0.739967066100    -0.402786330330    12.000000000000
         C            4.903514965779    -1.444445746791    -0.388945255790    12.000000000000
         C            8.599010668965     0.632615640417    -0.397474278315    12.000000000000
         C            8.591741308375    -0.724839093444    -0.395737898054    12.000000000000
         C            7.364858584664    -1.470320891856    -0.395968074747    12.000000000000
         H           -9.528310151544     1.276859222942    -0.399164580909     1.007825032230
         H            9.541406794881     1.174584262194    -0.398526310577     1.007825032230
         C           -7.369842089494    -2.779533372184    -0.393336600734    12.000000000000
         C           -4.924603288776    -2.808425483592    -0.401068233171    12.000000000000
         C           -6.166626675393    -3.516640419076    -0.394766393012    12.000000000000
         C           -3.702514539430    -3.524669775371    -0.390744163985    12.000000000000
         C           -2.467651164839    -2.821314189055    -0.402788802341    12.000000000000
         C           -0.015137653833    -2.833129871650    -0.402507213832    12.000000000000
         C           -1.247126020952    -3.534720401814    -0.390943260424    12.000000000000
         C            1.209240889918    -3.547902904894    -0.388404230633    12.000000000000
         C            2.437331842429    -2.847629964426    -0.402543988944    12.000000000000
         C            4.894298164045    -2.861111194537    -0.401723248872    12.000000000000
         C            3.664611075316    -3.564208071783    -0.388843828932    12.000000000000
         C            6.128634835020    -3.582572283968    -0.395497986974    12.000000000000
         C            7.339668484970    -2.858401533621    -0.393982760893    12.000000000000
         H           -9.541453290984    -1.174551692915    -0.394202113189     1.007825032230
         H            9.528257688346    -1.276907300155    -0.394488090293     1.007825032230
         H           -8.315169223574    -3.318138079463    -0.389164372204     1.007825032230
         H            8.279150962767    -3.407129016144    -0.389643204910     1.007825032230
         C           -6.144998368428    -4.927635499034    -0.393440394951    12.000000000000
         C           -3.706787527723    -4.941249940368    -0.403261363039    12.000000000000
         C           -4.955594237727    -5.643482199745    -0.395294228394    12.000000000000
         C           -2.486125505952    -5.654773800660    -0.390321691995    12.000000000000
         C           -1.254062515205    -4.956110276252    -0.401497297981    12.000000000000
         C            1.201008394143    -4.969268614444    -0.400316173723    12.000000000000
         C           -0.030340854139    -5.669508529390    -0.392472974059    12.000000000000
         C            3.653745921603    -4.980732001665    -0.399558173975    12.000000000000
         C            2.425488516150    -5.681162861778    -0.390181243423    12.000000000000
         C            6.091961438086    -4.993246189637    -0.393203760301    12.000000000000
         C            4.894972264885    -5.696336647208    -0.394439956131    12.000000000000
         H           -7.089896567766    -5.466988068489    -0.389037633270     1.007825032230
         H            7.031051029475    -5.542646762583    -0.389623980537     1.007825032230
         C           -4.923549501924    -7.078809325928    -0.395848997299    12.000000000000
         C           -2.485346267963    -7.087716304180    -0.398358889735    12.000000000000
         C           -3.751690071504    -7.763935383887    -0.398164210810    12.000000000000
         C           -0.037953136713    -7.099453100720    -0.398143164588    12.000000000000
         C           -1.277960280127    -7.772892610917    -0.400127857349    12.000000000000
         C            2.409440141001    -7.114010238253    -0.397279963777    12.000000000000
         C            1.194745757428    -7.786173591813    -0.399432254658    12.000000000000
         C            4.847616872773    -7.131250336830    -0.394773149117    12.000000000000
         C            3.668467426150    -7.803776219194    -0.397121583481    12.000000000000
         H           -5.869944530142    -7.613818824292    -0.394304960434     1.007825032230
         H            5.788245445663    -7.676320415565    -0.393646029635     1.007825032230
         H           -3.753531119175    -8.851059795487    -0.400000125239     1.007825032230
         H           -1.284308585620    -8.860863618748    -0.404555241208     1.007825032230
         H            1.189217394970    -8.874148846840    -0.403524891349     1.007825032230
         H            3.658542435098    -8.890848860304    -0.398776124903     1.007825032230

  Charge       = 0
  Multiplicity = 1
  Basis Set: JUN-CC-PVDZ
    Blend: JUN-CC-PVDZ
  Basis Set: (JUN-CC-PVDZ AUX)
    Blend: JUN-CC-PVDZ-JKFIT

    Orbital Energies [Eh]
    ---------------------

    Doubly Occupied:

       1A    -11.263983     2A    -11.263662     3A    -11.263657
       4A    -11.263307     5A    -11.263307     6A    -11.263271
       7A    -11.263114     8A    -11.263095     9A    -11.263090
      10A    -11.262921    11A    -11.262766    12A    -11.262763
      13A    -11.262281    14A    -11.262279    15A    -11.262213
      16A    -11.262209    17A    -11.262151    18A    -11.262121
      19A    -11.262077    20A    -11.262039    21A    -11.262036
      22A    -11.261892    23A    -11.261890    24A    -11.261769
      25A    -11.261757    26A    -11.261740    27A    -11.261736
      28A    -11.261690    29A    -11.261682    30A    -11.261601
      31A    -11.261576    32A    -11.261573    33A    -11.261547
      34A    -11.261545    35A    -11.261525    36A    -11.261488
      37A    -11.261349    38A    -11.261340    39A    -11.261333
      40A    -11.261328    41A    -11.261321    42A    -11.261315
      43A    -11.261304    44A    -11.261288    45A    -11.261283
      46A    -11.261261    47A    -11.261256    48A    -11.261252
      49A    -11.261086    50A    -11.261053    51A    -11.261052
      52A    -11.260973    53A    -11.260969    54A    -11.260902
      55A    -11.259937    56A    -11.259924    57A    -11.259921
      58A    -11.259892    59A    -11.259890    60A    -11.259874
      61A    -11.259311    62A    -11.259286    63A    -11.259282
      64A    -11.259231    65A    -11.259227    66A    -11.259199
      67A    -11.258940    68A    -11.258922    69A    -11.258920
      70A    -11.258892    71A    -11.258890    72A    -11.258878
      73A    -11.254539    74A    -11.254537    75A    -11.254534
      76A    -11.254533    77A    -11.254529    78A    -11.254526
      79A    -11.253673    80A    -11.253672    81A    -11.253669
      82A    -11.253666    83A    -11.253665    84A    -11.253660
      85A    -11.253588    86A    -11.253587    87A    -11.253585
      88A    -11.253581    89A    -11.253580    90A    -11.253576
      91A    -11.253067    92A    -11.253065    93A    -11.253062
      94A    -11.253061    95A    -11.253057    96A    -11.253054
      97A     -1.253971    98A     -1.239022    99A     -1.239012
     100A     -1.220484   101A     -1.220477   102A     -1.215468
     103A     -1.201059   104A     -1.195623   105A     -1.188169
     106A     -1.188158   107A     -1.173781   108A     -1.173779
     109A     -1.155648   110A     -1.155644   111A     -1.152741
     112A     -1.144739   113A     -1.144737   114A     -1.128584
     115A     -1.114732   116A     -1.113179   117A     -1.112510
     118A     -1.112491   119A     -1.111634   120A     -1.088447
     121A     -1.088432   122A     -1.076978   123A     -1.076976
     124A     -1.067635   125A     -1.067604   126A     -1.064993
     127A     -1.046818   128A     -1.046809   129A     -1.040497
     130A     -1.038751   131A     -1.038750   132A     -1.025260
     133A     -1.021412   134A     -1.021356   135A     -1.007195
     136A     -1.006824   137A     -1.003812   138A     -1.000508
     139A     -1.000459   140A     -0.991090   141A     -0.971007
     142A     -0.970958   143A     -0.955900   144A     -0.955843
     145A     -0.905613   146A     -0.905572   147A     -0.905564
     148A     -0.905523   149A     -0.904355   150A     -0.892385
     151A     -0.892326   152A     -0.890384   153A     -0.890328
     154A     -0.889471   155A     -0.872233   156A     -0.869069
     157A     -0.851555   158A     -0.847882   159A     -0.847864
     160A     -0.845616   161A     -0.843031   162A     -0.834580
     163A     -0.834568   164A     -0.828132   165A     -0.828127
     166A     -0.784567   167A     -0.784556   168A     -0.783681
     169A     -0.783657   170A     -0.782302   171A     -0.782281
     172A     -0.782049   173A     -0.767005   174A     -0.760810
     175A     -0.750592   176A     -0.733499   177A     -0.727086
     178A     -0.727067   179A     -0.725097   180A     -0.724556
     181A     -0.724534   182A     -0.718513   183A     -0.713789
     184A     -0.713782   185A     -0.699591   186A     -0.699574
     187A     -0.686142   188A     -0.685968   189A     -0.685964
     190A     -0.682184   191A     -0.682176   192A     -0.678796
     193A     -0.653641   194A     -0.650887   195A     -0.650855
     196A     -0.649829   197A     -0.649816   198A     -0.649578
     199A     -0.640949   200A     -0.640915   201A     -0.640098
     202A     -0.639172   203A     -0.636037   204A     -0.636008
     205A     -0.629150   206A     -0.617741   207A     -0.615315
     208A     -0.615292   209A     -0.608813   210A     -0.608806
     211A     -0.599133   212A     -0.599119   213A     -0.598756
     214A     -0.598613   215A     -0.598597   216A     -0.598058
     217A     -0.595077   218A     -0.595064   219A     -0.594733
     220A     -0.594249   221A     -0.591968   222A     -0.591964
     223A     -0.587406   224A     -0.577805   225A     -0.577793
     226A     -0.575695   227A     -0.575686   228A     -0.573389
     229A     -0.569572   230A     -0.568160   231A     -0.568135
     232A     -0.566763   233A     -0.566754   234A     -0.560922
     235A     -0.558732   236A     -0.558706   237A     -0.558436
     238A     -0.554378   239A     -0.550570   240A     -0.547482
     241A     -0.544274   242A     -0.535013   243A     -0.534996
     244A     -0.533549   245A     -0.533528   246A     -0.528087
     247A     -0.528072   248A     -0.527805   249A     -0.517182
     250A     -0.517148   251A     -0.515361   252A     -0.515355
     253A     -0.509649   254A     -0.509635   255A     -0.498033
     256A     -0.496462   257A     -0.496432   258A     -0.493799
     259A     -0.493788   260A     -0.489434   261A     -0.481458
     262A     -0.477423   263A     -0.477422   264A     -0.474001
     265A     -0.469446   266A     -0.466531   267A     -0.466527
     268A     -0.458811   269A     -0.446698   270A     -0.446640
     271A     -0.441025   272A     -0.440773   273A     -0.440734
     274A     -0.434692   275A     -0.433909   276A     -0.407374
     277A     -0.407352   278A     -0.386412   279A     -0.386359
     280A     -0.385733   281A     -0.385733   282A     -0.383755
     283A     -0.354324   284A     -0.354304   285A     -0.350665
     286A     -0.338082   287A     -0.335575   288A     -0.335529
     289A     -0.332713   290A     -0.332711   291A     -0.307072
     292A     -0.301939   293A     -0.301880   294A     -0.300841
     295A     -0.286169   296A     -0.256470   297A     -0.253488
     298A     -0.253444   299A     -0.204259   300A     -0.204173

  @DF-RHF Final Energy: -3650.33948161904573

   => Energetics <=

    Nuclear Repulsion Energy =          15611.4211649754324753
    One-Electron Energy =              -36072.1388782110225293
    Two-Electron Energy =               16810.3782316165452357
    Total Energy =                      -3650.3394816190448182
 Dipole X            :         -0.0010837            0.0002112           -0.0008725
 Dipole Y            :          0.0043534           -0.0044281           -0.0000747
 Dipole Z            :        449.5075668         -449.5204380           -0.0128713
 Magnitude           :                                                    0.0129010

    SAPT Results
  --------------------------------------------------------------------------------------------------------
    Electrostatics                -10.70362207 [mEh]      -6.71662425 [kcal/mol]     -28.10235587 [kJ/mol]
      Elst10,r                    -10.70362207 [mEh]      -6.71662425 [kcal/mol]     -28.10235587 [kJ/mol]

    Exchange                        0.05110156 [mEh]       0.03206671 [kcal/mol]       0.13416712 [kJ/mol]
      Exch10                        0.05110156 [mEh]       0.03206671 [kcal/mol]       0.13416712 [kJ/mol]
      Exch10(S^2)                   0.05110124 [mEh]       0.03206651 [kcal/mol]       0.13416628 [kJ/mol]

    Induction                      -5.84904253 [mEh]      -3.67032960 [kcal/mol]     -15.35665905 [kJ/mol]
      Ind20,r                      -5.70637721 [mEh]      -3.58080576 [kcal/mol]     -14.98209130 [kJ/mol]
      Exch-Ind20,r                  0.01213260 [mEh]       0.00761332 [kcal/mol]       0.03185414 [kJ/mol]
      delta HF,r (2)               -0.15479792 [mEh]      -0.09713716 [kcal/mol]      -0.40642189 [kJ/mol]

    Dispersion                     -5.69758740 [mEh]      -3.57529007 [kcal/mol]     -14.95901365 [kJ/mol]
      Disp20                       -5.71083141 [mEh]      -3.58360081 [kcal/mol]     -14.99378581 [kJ/mol]
      Exch-Disp20                   0.01324402 [mEh]       0.00831074 [kcal/mol]       0.03477216 [kJ/mol]
      Disp20 (SS)                  -2.85541571 [mEh]      -1.79180041 [kcal/mol]      -7.49689290 [kJ/mol]
      Disp20 (OS)                  -2.85541571 [mEh]      -1.79180041 [kcal/mol]      -7.49689290 [kJ/mol]
      Exch-Disp20 (SS)              0.00914771 [mEh]       0.00574028 [kcal/mol]       0.02401732 [kJ/mol]
      Exch-Disp20 (OS)              0.00409630 [mEh]       0.00257047 [kcal/mol]       0.01075484 [kJ/mol]

  Total HF                        -16.50156304 [mEh]     -10.35488714 [kcal/mol]     -43.32484779 [kJ/mol]
  Total SAPT0                     -22.19915044 [mEh]     -13.93017721 [kcal/mol]     -58.28386144 [kJ/mol]

  Special recipe for scaled SAPT0 (see Manual):
    Electrostatics sSAPT0         -10.70362207 [mEh]      -6.71662425 [kcal/mol]     -28.10235587 [kJ/mol]
    Exchange sSAPT0                 0.05110156 [mEh]       0.03206671 [kcal/mol]       0.13416712 [kJ/mol]
    Induction sSAPT0               -5.84904230 [mEh]      -3.67032946 [kcal/mol]     -15.35665845 [kJ/mol]
    Dispersion sSAPT0              -5.69758715 [mEh]      -3.57528991 [kcal/mol]     -14.95901299 [kJ/mol]
  Total sSAPT0                    -22.19914996 [mEh]     -13.93017691 [kcal/mol]     -58.28386018 [kJ/mol]
  --------------------------------------------------------------------------------------------------------

*** Psi4 exiting successfully. Buy a developer a beer!
