                               Psi4 1.9 release

  ==> Input File <==

--------------------------------------------------------------------------
memory 64 GB # how much memory is available ! Depends on the nodes/cores !

molecule dimer {
# monomer A
+1 1    # Charge and multiplicity
C  0.680067 -0.008042  -9.415929
C -0.680504 -0.006014  -9.415545
N -1.085635 -0.005016  -8.097221
C  0.000108 -0.001740  -7.315820
C -2.477365  0.044390  -7.629242
N  1.085222 -0.005016  -8.097221
H  1.385146 -0.015870 -10.233368
H -1.385302 -0.006204 -10.233214
H -0.000009  0.000007  -6.234731
C  2.478117 -0.021908  -7.632123
H  2.490592  0.005437  -6.541870
H  2.967028 -0.935354  -7.979299
H  3.001428  0.853575  -8.023595
H -2.857359  1.066461  -7.709201
H -3.082679 -0.625694  -8.242306
H -2.518128 -0.282594  -6.589294
--
# monomer B
0 1     # Charge and multiplicity
C   -3.66844126402057      7.80375217008252      0.00190004133558
C   -4.84759871934653      7.13124183134024     -0.00046653359696
C   -4.89495929917518      5.69633040353158     -0.00103944469517
C   -3.65374067877320      4.98073034095895      0.00662099703436
C   -2.40942512149445      7.11398103667468      0.00209438359570
C   -2.42547734410473      5.68112195090346     -0.00491050527438
C   -1.19474401643570      7.78614419430947      0.00356656413763
C   0.03795902893699      7.09942164575698      0.00139585983271
C   0.03033258741920      5.66948955970466     -0.00408752508301
C   -1.20098450790502      4.96927034791531      0.00488220885047
C   1.27795782581485      7.77285944319479      0.00277170839332
C   2.48535808472416      7.08769688523756      0.00049722048857
C   2.48612868491717      5.65477081024076     -0.00644052849921
C   1.25408291964399      4.95607811366431      0.00518741308898
C   3.75171459140595      7.76391215098033      0.00062407186893
C   4.92356605618520      7.07878077698995     -0.00143240883900
C   4.95560727132542      5.64344746336949     -0.00159282164606
C   3.70680153420475      4.94121020833308      0.00349873852374
H   -3.65852113775815      8.89082741913536      0.00358502958574
H   -1.18921332975660      8.87412108735996      0.00753844057883
H   1.28429423888630      8.86083343548850      0.00693053253426
H   3.75354208679975      8.85103527897216      0.00214659618464
H   5.86995870320703      7.61379483465560     -0.00235777588134
H   -5.78823170750226      7.67630221293400     -0.00202638095293
C   -6.09197395869619      4.99326001364347     -0.00291168518608
C   -6.12866148031747      3.58258016879823     -0.00171050815740
C   -3.66457974004527      3.56418217974434     -0.00463560277484
C   -4.89429820469869      2.86108077590057      0.00453338221034
C   -2.43733499489796      2.84761165708481      0.00719617576166
C   -1.20922785759670      3.54788693497833     -0.00648285103018
C   1.24714157216223      3.53468075142962     -0.00729145743546
C   0.01517603956900      2.83311183930540      0.00439272578912
C   2.46764517244071      2.82128997725533      0.00449278391269
C   3.70254947457969      3.52466015442405     -0.00899517692985
C   6.14498038638375      4.92757236613191     -0.00282626685777
C   6.16658835886151      3.51658447594213     -0.00065971342101
C   4.92460995845939      2.80840792535402      0.00587903281610
H   7.08990550964105      5.46688776622306     -0.00658814770723
H   -7.03104175110130      5.54268795285765     -0.00714490013730
C   -7.33969804112295      2.85841153457957     -0.00333767559888
C   -7.36488195805880      1.47032337158330     -0.00157213747140
C   -4.90350460894690      1.44442681216000     -0.00628840166334
C   -6.13225715261081      0.73993935705394      0.00600164231964
C   -3.67687480051673      0.72669714267312      0.00433931473643
C   -2.44565658606518      1.42964113326212     -0.00597039546461
C   -1.22360068130162      0.71532450163492      0.00545886906656
C   0.00763786931376      1.41738314923765      0.00392452278437
C   1.23121980774686      0.70211669058719     -0.01490206287210
C   2.46082110053113      1.40329203612573      0.00460244601878
C   3.68443025419614      0.68719842821222      0.00377365974158
C   4.91870890153864      1.39173456118907     -0.00862816189375
C   7.36980207796101      2.77948220318441     -0.00242013321349
C   7.38016266612146      1.39121750785509     -0.00087345036788
C   6.13979953912259      0.67411862320065      0.00545489144369
H   -8.27919079934664      3.40711804112415     -0.00763522772059
H   8.31511347147953      3.31811809662368     -0.00663070901292
C   -8.59175593758115      0.72483255304480     -0.00123170985383
C   -8.59902460370342     -0.63263980622873      0.00089141472904
C   -6.13981313911873     -0.67413663715361     -0.00609792660607
C   -7.38018411213749     -1.39126618958160      0.00131813493501
C   -4.91868448025621     -1.39175501803000      0.00624257154343
C   -3.68443829568458     -0.68723731573599     -0.00478966852105
C   -2.46081704024768     -1.40334517882457      0.00575341766833
C   -1.23116201232071     -0.70217386488055     -0.00636696112346
C   -0.00756962538737     -1.41741884941102      0.00108956317991
C   1.22364771588843     -0.71527537726392      0.01109518512883
C   2.44567064933149     -1.42964328900682     -0.00065482763106
C   3.67686670284649     -0.72670743155550     -0.00479541202602
C   6.13224884641929     -0.73997883984993     -0.00632338623858
C   4.90351914550401     -1.44445752054090      0.00751768830159
C   8.59901484869081      0.63260386666793     -0.00101133422380
C   8.59174548810050     -0.72485086719319      0.00072504603735
C   7.36486276438985     -1.47033266560598      0.00049486934466
H   -9.52830597181814      1.27684744919284     -0.00270163681798
H   9.54141097460619      1.17457248844457     -0.00206336648518
C   -7.36983790976868     -2.77954514593389      0.00312634335708
C   -4.92459910905015     -2.80843725734101     -0.00460528907921
C   -6.16662249566744     -3.51665219282533      0.00169655107992
C   -3.70251035970491     -3.52468154912026      0.00571878010666
C   -2.46764698511392     -2.82132596280400     -0.00632585824990
C   -0.01513347410770     -2.83314164539971     -0.00604426974092
C   -1.24712184122656     -3.53473217556300      0.00551968366725
C   1.20924506964357     -3.54791467864352      0.00805871345849
C   2.43733602215464     -2.84764173817541     -0.00608104485234
C   4.89430234377080     -2.86112296828604     -0.00526030478103
C   3.66461525504104     -3.56421984553201      0.00761911515957
C   6.12863901474565     -3.58258405771778      0.00096495711699
C   7.33967266469532     -2.85841330737039      0.00248018319869
H   -9.54144911125902     -1.17456346666430      0.00226083090216
H   9.52826186807155     -1.27691907390448      0.00197485379837
H   -8.31516504384864     -3.31814985321231      0.00729857188773
H   8.27915514249207     -3.40714078989363      0.00681973918158
C   -6.14499418870218     -4.92764727278338      0.00302254913999
C   -3.70678334799751     -4.94126171411716     -0.00679841894792
C   -4.95559005800169     -5.64349397349412      0.00116871569699
C   -2.48612132622665     -5.65478557440947      0.00614125209662
C   -1.25405833548005     -4.95612205000132     -0.00503435388927
C   1.20101257386816     -4.96928038819302     -0.00385322963129
C   -0.03033667441341     -5.66952030313900      0.00398997003238
C   3.65375010132847     -4.98074377541453     -0.00309522988330
C   2.42549269587528     -5.68117463552727      0.00628170066869
C   6.09196561781097     -4.99325796338655      0.00325918379042
C   4.89497644461045     -5.69634842095790      0.00202298796027
H   -7.08989238804069     -5.46699984223871      0.00742531082125
H   7.03105520920009     -5.54265853633254      0.00683896355417
C   -4.92354532219813     -7.07882109967734      0.00061394679214
C   -2.48534208823777     -7.08772807792913     -0.00189594564379
C   -3.75168589177895     -7.76394715763627     -0.00170126671874
C   -0.03794895698805     -7.09946487446944     -0.00168022049625
C   -1.27795610040136     -7.77290438466689     -0.00366491325785
C   2.40944432072629     -7.11402201200282     -0.00081701968533
C   1.19474993715296     -7.78618536556242     -0.00296931056689
C   4.84762105249800     -7.13126211057943      0.00168979497423
C   3.66847160587561     -7.80378799294376     -0.00065863938960
H   -5.86994035041618     -7.61383059804164      0.00215798365757
H   5.78824962538815     -7.67633218931421      0.00281691445618
H   -3.75352693944918     -8.85107156923607     -0.00353718114765
H   -1.28430440589466     -8.86087539249706     -0.00809229711623
H   1.18922157469537     -8.87416062058945     -0.00706194725726
H   3.65854661482387     -8.89086063405326     -0.00231318081200

    units angstrom      # Angstroms are the default
    no_reorient         # Geometry fixed, default
    symmetry c1         # C1 symmetry, default
}

set {
    scf_type DF         # Density fitting, faster than exact integrals
    freeze_core True    # Freeze core electrons
    basis jun-cc-pVDZ   # Jun-cc-pVDZ basis set, recommended for sSAPT0 in https://doi.org/10.1063/1.4867135
}

energy('ssapt0')        # Compute sSAPT0 energy, includes also SAPT0
--------------------------------------------------------------------------

  //              Dimer HF             //
    Molecular point group: c1
  Charge       = 1
  Multiplicity = 1
  Basis Set: JUN-CC-PVDZ
    Blend: JUN-CC-PVDZ
  Basis Set: (JUN-CC-PVDZ AUX)
    Blend: JUN-CC-PVDZ-JKFIT
  @DF-RHF Final Energy: -3953.64416617428651
    Total Energy =                      -3953.6441661742865108
 Dipole X            :         -0.0019810            0.0004804           -0.0015006
 Dipole Y            :         -0.0490685            0.0561130            0.0070445
 Dipole Z            :         34.9842213          -47.9140345          -12.9298133
 Magnitude           :                                                   12.9298153
  //            Monomer A HF           //
    Molecular point group: c1
  Multiplicity = 1
  Basis Set: JUN-CC-PVDZ
    Blend: JUN-CC-PVDZ
  Basis Set: (JUN-CC-PVDZ AUX)
    Blend: JUN-CC-PVDZ-JKFIT
  @DF-RHF Final Energy:  -303.29719453823606
    Total Energy =                       -303.2971945382360559
  //            Monomer B HF           //
    Molecular point group: c1

    Geometry (in Angstrom), charge = 0, multiplicity = 1:

       Center              X                  Y                   Z               Mass
    ------------   -----------------  -----------------  -----------------  -----------------
      Gh(C)           0.680062820275    -0.008027535675    -8.790748117996    12.000000000000
      Gh(C)          -0.680508179725    -0.005999535675    -8.790364117996    12.000000000000
      Gh(N)          -1.085639179725    -0.005001535675    -7.472040117996    14.003074004430
      Gh(C)           0.000103820275    -0.001725535675    -6.690639117996    12.000000000000
      Gh(C)          -2.477369179725     0.044404464325    -7.004061117996    12.000000000000
      Gh(N)           1.085217820275    -0.005001535675    -7.472040117996    14.003074004430
      Gh(H)           1.385141820275    -0.015855535675    -9.608187117996     1.007825032230
      Gh(H)          -1.385306179725    -0.006189535675    -9.608033117996     1.007825032230
      Gh(H)          -0.000013179725     0.000021464325    -5.609550117996     1.007825032230
      Gh(C)           2.478112820275    -0.021893535675    -7.006942117996    12.000000000000
      Gh(H)           2.490587820275     0.005451464325    -5.916689117996     1.007825032230
      Gh(H)           2.967023820275    -0.935339535675    -7.354118117996     1.007825032230
      Gh(H)           3.001423820275     0.853589464325    -7.398414117996     1.007825032230
      Gh(H)          -2.857363179725     1.066475464325    -7.084020117996     1.007825032230
      Gh(H)          -3.082683179725    -0.625679535675    -7.617125117996     1.007825032230
      Gh(H)          -2.518132179725    -0.282579535675    -5.964113117996     1.007825032230
         C           -3.668445443746     7.803766634408     0.627080923339    12.000000000000
         C           -4.847602899072     7.131256295665     0.624714348407    12.000000000000
         C           -4.894963478901     5.696344867857     0.624141437309    12.000000000000
         C           -3.653744858499     4.980744805284     0.631801879038    12.000000000000
         C           -2.409429301220     7.113995501000     0.627275265599    12.000000000000
         C           -2.425481523830     5.681136415228     0.620270376729    12.000000000000
         C           -1.194748196161     7.786158658634     0.628747446141    12.000000000000
         C            0.037954849212     7.099436110082     0.626576741836    12.000000000000
         C            0.030328407694     5.669504024030     0.621093356921    12.000000000000
         C           -1.200988687630     4.969284812240     0.630063090854    12.000000000000
         C            1.277953646089     7.772873907520     0.627952590397    12.000000000000
         C            2.485353904999     7.087711349563     0.625678102492    12.000000000000
         C            2.486124505192     5.654785274566     0.618740353505    12.000000000000
         C            1.254078739919     4.956092577989     0.630368295093    12.000000000000
         C            3.751710411681     7.763926615305     0.625804953873    12.000000000000
         C            4.923561876460     7.078795241315     0.623748473165    12.000000000000
         C            4.955603091600     5.643461927694     0.623588060358    12.000000000000
         C            3.706797354479     4.941224672658     0.628679620528    12.000000000000
         H           -3.658525317484     8.890841883460     0.628765911590     1.007825032230
         H           -1.189217509482     8.874135551685     0.632719322583     1.007825032230
         H            1.284290059161     8.860847899813     0.632111414538     1.007825032230
         H            3.753537907074     8.851049743297     0.627327478188     1.007825032230
         H            5.869954523482     7.613809298981     0.622823106122     1.007825032230
         H           -5.788235887228     7.676316677259     0.623154501051     1.007825032230
         C           -6.091978138422     4.993274477968     0.622269196818    12.000000000000
         C           -6.128665660043     3.582594633123     0.623470373846    12.000000000000
         C           -3.664583919771     3.564196644069     0.620545279229    12.000000000000
         C           -4.894302384424     2.861095240226     0.629714264214    12.000000000000
         C           -2.437339174623     2.847626121410     0.632377057765    12.000000000000
         C           -1.209232037322     3.547901399303     0.618698030974    12.000000000000
         C            1.247137392437     3.534695215755     0.617889424568    12.000000000000
         C            0.015171859844     2.833126303630     0.629573607793    12.000000000000
         C            2.467640992715     2.821304441580     0.629673665916    12.000000000000
         C            3.702545294854     3.524674618749     0.616185705074    12.000000000000
         C            6.144976206658     4.927586830457     0.622354615146    12.000000000000
         C            6.166584179136     3.516598940267     0.624521168583    12.000000000000
         C            4.924605778734     2.808422389679     0.631059914820    12.000000000000
         H            7.089901329916     5.466902230548     0.618592734297     1.007825032230
         H           -7.031045930827     5.542702417183     0.618035981866     1.007825032230
         C           -7.339702220848     2.858425998905     0.621843206405    12.000000000000
         C           -7.364886137784     1.470337835908     0.623608744532    12.000000000000
         C           -4.903508788672     1.444441276485     0.618892480340    12.000000000000
         C           -6.132261332336     0.739953821379     0.631182524323    12.000000000000
         C           -3.676878980242     0.726711606998     0.629520196740    12.000000000000
         C           -2.445660765791     1.429655597587     0.619210486539    12.000000000000
         C           -1.223604861027     0.715338965960     0.630639751070    12.000000000000
         C            0.007633689588     1.417397613563     0.629105404788    12.000000000000
         C            1.231215628021     0.702131154912     0.610278819132    12.000000000000
         C            2.460816920806     1.403306500451     0.629783328023    12.000000000000
         C            3.684426074471     0.687212892537     0.628954541745    12.000000000000
         C            4.918704721813     1.391749025514     0.616552720110    12.000000000000
         C            7.369797898236     2.779496667509     0.622760748790    12.000000000000
         C            7.380158486396     1.391231972180     0.624307431636    12.000000000000
         C            6.139795359397     0.674133087526     0.630635773447    12.000000000000
         H           -8.279194979072     3.407132505449     0.617545654283     1.007825032230
         H            8.315109291754     3.318132560949     0.618550172991     1.007825032230
         C           -8.591760117307     0.724847017370     0.623949172150    12.000000000000
         C           -8.599028783429    -0.632625341904     0.626072296733    12.000000000000
         C           -6.139817318844    -0.674122172829     0.619082955398    12.000000000000
         C           -7.380188291863    -1.391251725257     0.626499016939    12.000000000000
         C           -4.918688659982    -1.391740553705     0.631423453547    12.000000000000
         C           -3.684442475410    -0.687222851411     0.620391213483    12.000000000000
         C           -2.460821219973    -1.403330714500     0.630934299672    12.000000000000
         C           -1.231166192046    -0.702159400556     0.618813920880    12.000000000000
         C           -0.007573805113    -1.417404385086     0.626270445184    12.000000000000
         C            1.223643536163    -0.715260912939     0.636276067133    12.000000000000
         C            2.445666469606    -1.429628824682     0.624526054373    12.000000000000
         C            3.676862523121    -0.726692967231     0.620385469978    12.000000000000
         C            6.132244666694    -0.739964375525     0.618857495765    12.000000000000
         C            4.903514965779    -1.444443056216     0.632698570305    12.000000000000
         C            8.599010668965     0.632618330993     0.624169547780    12.000000000000
         C            8.591741308375    -0.724836402868     0.625905928041    12.000000000000
         C            7.364858584664    -1.470318201281     0.625675751348    12.000000000000
         H           -9.528310151544     1.276861913518     0.622479245186     1.007825032230
         H            9.541406794881     1.174586952770     0.623117515519     1.007825032230
         C           -7.369842089494    -2.779530681609     0.628307225361    12.000000000000
         C           -4.924603288776    -2.808422793016     0.620575592925    12.000000000000
         C           -6.166626675393    -3.516637728500     0.626877433084    12.000000000000
         C           -3.702514539430    -3.524667084795     0.630899662110    12.000000000000
         C           -2.467651164839    -2.821311498479     0.618855023754    12.000000000000
         C           -0.015137653833    -2.833127181075     0.619136612263    12.000000000000
         C           -1.247126020952    -3.534717711238     0.630700565671    12.000000000000
         C            1.209240889918    -3.547900214319     0.633239595462    12.000000000000
         C            2.437331842429    -2.847627273850     0.619099837151    12.000000000000
         C            4.894298164045    -2.861108503961     0.619920577223    12.000000000000
         C            3.664611075316    -3.564205381207     0.632799997163    12.000000000000
         C            6.128634835020    -3.582569593393     0.626145839121    12.000000000000
         C            7.339668484970    -2.858398843045     0.627661065202    12.000000000000
         H           -9.541453290984    -1.174549002339     0.627441712906     1.007825032230
         H            9.528257688346    -1.276904609579     0.627155735802     1.007825032230
         H           -8.315169223574    -3.318135388887     0.632479453891     1.007825032230
         H            8.279150962767    -3.407126325569     0.632000621185     1.007825032230
         C           -6.144998368428    -4.927632808458     0.628203431144    12.000000000000
         C           -3.706787527723    -4.941247249792     0.618382463056    12.000000000000
         C           -4.955594237727    -5.643479509169     0.626349597701    12.000000000000
         C           -2.486125505952    -5.654771110084     0.631322134100    12.000000000000
         C           -1.254062515205    -4.956107585676     0.620146528114    12.000000000000
         C            1.201008394143    -4.969265923868     0.621327652372    12.000000000000
         C           -0.030340854139    -5.669505838814     0.629170852036    12.000000000000
         C            3.653745921603    -4.980729311090     0.622085652120    12.000000000000
         C            2.425488516150    -5.681160171202     0.631462582672    12.000000000000
         C            6.091961438086    -4.993243499062     0.628440065794    12.000000000000
         C            4.894972264885    -5.696333956633     0.627203869964    12.000000000000
         H           -7.089896567766    -5.466985377914     0.632606192825     1.007825032230
         H            7.031051029475    -5.542644072008     0.632019845558     1.007825032230
         C           -4.923549501924    -7.078806635352     0.625794828796    12.000000000000
         C           -2.485346267963    -7.087713613604     0.623284936360    12.000000000000
         C           -3.751690071504    -7.763932693311     0.623479615285    12.000000000000
         C           -0.037953136713    -7.099450410144     0.623500661508    12.000000000000
         C           -1.277960280127    -7.772889920342     0.621515968746    12.000000000000
         C            2.409440141001    -7.114007547678     0.624363862318    12.000000000000
         C            1.194745757428    -7.786170901237     0.622211571437    12.000000000000
         C            4.847616872773    -7.131247646254     0.626870676978    12.000000000000
         C            3.668467426150    -7.803773528619     0.624522242614    12.000000000000
         H           -5.869944530142    -7.613816133717     0.627338865661     1.007825032230
         H            5.788245445663    -7.676317724989     0.627997796460     1.007825032230
         H           -3.753531119175    -8.851057104911     0.621643700856     1.007825032230
         H           -1.284308585620    -8.860860928172     0.617088584888     1.007825032230
         H            1.189217394970    -8.874146156264     0.618118934747     1.007825032230
         H            3.658542435098    -8.890846169728     0.622867701192     1.007825032230

  Charge       = 0
  Multiplicity = 1
  Basis Set: JUN-CC-PVDZ
    Blend: JUN-CC-PVDZ
  Basis Set: (JUN-CC-PVDZ AUX)
    Blend: JUN-CC-PVDZ-JKFIT

    Orbital Energies [Eh]
    ---------------------

    Doubly Occupied:

       1A    -11.264055     2A    -11.263742     3A    -11.263739
       4A    -11.263399     5A    -11.263397     6A    -11.263362
       7A    -11.263205     8A    -11.263178     9A    -11.263175
      10A    -11.263019    11A    -11.262859    12A    -11.262855
      13A    -11.262376    14A    -11.262374    15A    -11.262299
      16A    -11.262298    17A    -11.262249    18A    -11.262213
      19A    -11.262168    20A    -11.262130    21A    -11.262128
      22A    -11.261973    23A    -11.261969    24A    -11.261850
      25A    -11.261836    26A    -11.261821    27A    -11.261817
      28A    -11.261770    29A    -11.261762    30A    -11.261690
      31A    -11.261663    32A    -11.261660    33A    -11.261634
      34A    -11.261633    35A    -11.261612    36A    -11.261564
      37A    -11.261425    38A    -11.261413    39A    -11.261407
      40A    -11.261400    41A    -11.261395    42A    -11.261386
      43A    -11.261383    44A    -11.261368    45A    -11.261363
      46A    -11.261341    47A    -11.261337    48A    -11.261332
      49A    -11.261180    50A    -11.261149    51A    -11.261146
      52A    -11.261066    53A    -11.261065    54A    -11.260994
      55A    -11.260026    56A    -11.260013    57A    -11.260010
      58A    -11.259981    59A    -11.259979    60A    -11.259963
      61A    -11.259404    62A    -11.259379    63A    -11.259376
      64A    -11.259324    65A    -11.259321    66A    -11.259293
      67A    -11.259030    68A    -11.259013    69A    -11.259011
      70A    -11.258983    71A    -11.258981    72A    -11.258970
      73A    -11.254598    74A    -11.254596    75A    -11.254594
      76A    -11.254592    77A    -11.254587    78A    -11.254584
      79A    -11.253750    80A    -11.253748    81A    -11.253745
      82A    -11.253744    83A    -11.253741    84A    -11.253735
      85A    -11.253665    86A    -11.253664    87A    -11.253661
      88A    -11.253660    89A    -11.253657    90A    -11.253651
      91A    -11.253125    92A    -11.253124    93A    -11.253123
      94A    -11.253120    95A    -11.253114    96A    -11.253112
      97A     -1.254153    98A     -1.239156    99A     -1.239156
     100A     -1.220597   101A     -1.220593   102A     -1.215625
     103A     -1.201157   104A     -1.195727   105A     -1.188316
     106A     -1.188314   107A     -1.173877   108A     -1.173874
     109A     -1.155789   110A     -1.155785   111A     -1.152894
     112A     -1.144830   113A     -1.144827   114A     -1.128711
     115A     -1.114870   116A     -1.113272   117A     -1.112654
     118A     -1.112641   119A     -1.111720   120A     -1.088572
     121A     -1.088557   122A     -1.077067   123A     -1.077066
     124A     -1.067766   125A     -1.067737   126A     -1.065138
     127A     -1.046931   128A     -1.046923   129A     -1.040620
     130A     -1.038840   131A     -1.038839   132A     -1.025405
     133A     -1.021578   134A     -1.021528   135A     -1.007302
     136A     -1.006947   137A     -1.003921   138A     -1.000648
     139A     -1.000600   140A     -0.991175   141A     -0.971135
     142A     -0.971087   143A     -0.956001   144A     -0.955946
     145A     -0.905777   146A     -0.905735   147A     -0.905647
     148A     -0.905607   149A     -0.904534   150A     -0.892548
     151A     -0.892489   152A     -0.890532   153A     -0.890475
     154A     -0.889606   155A     -0.872330   156A     -0.869142
     157A     -0.851660   158A     -0.848027   159A     -0.848005
     160A     -0.845763   161A     -0.843167   162A     -0.834695
     163A     -0.834683   164A     -0.828222   165A     -0.828218
     166A     -0.784685   167A     -0.784674   168A     -0.783813
     169A     -0.783786   170A     -0.782432   171A     -0.782412
     172A     -0.782197   173A     -0.767120   174A     -0.760970
     175A     -0.750745   176A     -0.733596   177A     -0.727202
     178A     -0.727189   179A     -0.725228   180A     -0.724669
     181A     -0.724651   182A     -0.718673   183A     -0.713935
     184A     -0.713929   185A     -0.699705   186A     -0.699693
     187A     -0.686306   188A     -0.686070   189A     -0.686067
     190A     -0.682293   191A     -0.682283   192A     -0.678928
     193A     -0.653757   194A     -0.651006   195A     -0.650976
     196A     -0.649982   197A     -0.649966   198A     -0.649677
     199A     -0.641102   200A     -0.641074   201A     -0.640203
     202A     -0.639266   203A     -0.636174   204A     -0.636147
     205A     -0.629274   206A     -0.617660   207A     -0.615411
     208A     -0.615391   209A     -0.608924   210A     -0.608918
     211A     -0.599188   212A     -0.599147   213A     -0.598882
     214A     -0.598757   215A     -0.598732   216A     -0.598211
     217A     -0.595179   218A     -0.595166   219A     -0.594852
     220A     -0.594416   221A     -0.592100   222A     -0.592097
     223A     -0.587572   224A     -0.577884   225A     -0.577874
     226A     -0.575736   227A     -0.575734   228A     -0.573499
     229A     -0.569572   230A     -0.568309   231A     -0.568285
     232A     -0.566889   233A     -0.566879   234A     -0.561004
     235A     -0.558868   236A     -0.558848   237A     -0.558520
     238A     -0.554499   239A     -0.550633   240A     -0.547562
     241A     -0.544343   242A     -0.535038   243A     -0.535004
     244A     -0.533662   245A     -0.533639   246A     -0.528188
     247A     -0.528173   248A     -0.527969   249A     -0.517328
     250A     -0.517294   251A     -0.515428   252A     -0.515423
     253A     -0.509751   254A     -0.509735   255A     -0.498147
     256A     -0.496578   257A     -0.496552   258A     -0.493847
     259A     -0.493836   260A     -0.489481   261A     -0.481560
     262A     -0.477491   263A     -0.477489   264A     -0.474112
     265A     -0.469582   266A     -0.466659   267A     -0.466655
     268A     -0.458880   269A     -0.446872   270A     -0.446812
     271A     -0.441104   272A     -0.440830   273A     -0.440806
     274A     -0.434760   275A     -0.433977   276A     -0.407453
     277A     -0.407429   278A     -0.386490   279A     -0.386442
     280A     -0.385801   281A     -0.385800   282A     -0.383834
     283A     -0.354404   284A     -0.354388   285A     -0.350742
     286A     -0.338174   287A     -0.335674   288A     -0.335606
     289A     -0.332784   290A     -0.332777   291A     -0.307170
     292A     -0.302032   293A     -0.301970   294A     -0.300917
     295A     -0.286247   296A     -0.256531   297A     -0.253583
     298A     -0.253531   299A     -0.204341   300A     -0.204252

  @DF-RHF Final Energy: -3650.33757233139340

   => Energetics <=

    Nuclear Repulsion Energy =          15611.4211649754306563
    One-Electron Energy =              -36072.0742187818468665
    Two-Electron Energy =               16810.3154814750232617
    Total Energy =                      -3650.3375723313947674
 Dipole X            :         -0.0009250            0.0002112           -0.0007138
 Dipole Y            :          0.0011259           -0.0013774           -0.0002515
 Dipole Z            :       -708.8539816          708.8557794            0.0017978
 Magnitude           :                                                    0.0019506

    SAPT Results
  --------------------------------------------------------------------------------------------------------
    Electrostatics                 -7.15960669 [mEh]      -4.49272103 [kcal/mol]     -18.79754478 [kJ/mol]
      Elst10,r                     -7.15960669 [mEh]      -4.49272103 [kcal/mol]     -18.79754478 [kJ/mol]

    Exchange                       -0.00017736 [mEh]      -0.00011129 [kcal/mol]      -0.00046565 [kJ/mol]
      Exch10                       -0.00017736 [mEh]      -0.00011129 [kcal/mol]      -0.00046565 [kJ/mol]
      Exch10(S^2)                  -0.00017736 [mEh]      -0.00011129 [kcal/mol]      -0.00046565 [kJ/mol]

    Induction                      -2.23952061 [mEh]      -1.40532040 [kcal/mol]      -5.87986055 [kJ/mol]
      Ind20,r                      -2.21084818 [mEh]      -1.38732818 [kcal/mol]      -5.80458109 [kJ/mol]
      Exch-Ind20,r                  0.00009125 [mEh]       0.00005726 [kcal/mol]       0.00023958 [kJ/mol]
      delta HF,r (2)               -0.02876368 [mEh]      -0.01804948 [kcal/mol]      -0.07551904 [kJ/mol]

    Dispersion                     -0.86467838 [mEh]      -0.54259388 [kcal/mol]      -2.27021278 [kJ/mol]
      Disp20                       -0.86471479 [mEh]      -0.54261672 [kcal/mol]      -2.27030838 [kJ/mol]
      Exch-Disp20                   0.00003641 [mEh]       0.00002285 [kcal/mol]       0.00009560 [kJ/mol]
      Disp20 (SS)                  -0.43235740 [mEh]      -0.27130836 [kcal/mol]      -1.13515419 [kJ/mol]
      Disp20 (OS)                  -0.43235740 [mEh]      -0.27130836 [kcal/mol]      -1.13515419 [kJ/mol]
      Exch-Disp20 (SS)              0.00002674 [mEh]       0.00001678 [kcal/mol]       0.00007020 [kJ/mol]
      Exch-Disp20 (OS)              0.00000967 [mEh]       0.00000607 [kcal/mol]       0.00002539 [kJ/mol]

  Total HF                         -9.39930466 [mEh]      -5.89815272 [kcal/mol]     -24.67787098 [kJ/mol]
  Total SAPT0                     -10.26398304 [mEh]      -6.44074660 [kcal/mol]     -26.94808376 [kJ/mol]

  Special recipe for scaled SAPT0 (see Manual):
    Electrostatics sSAPT0          -7.15960669 [mEh]      -4.49272103 [kcal/mol]     -18.79754478 [kJ/mol]
    Exchange sSAPT0                -0.00017736 [mEh]      -0.00011129 [kcal/mol]      -0.00046565 [kJ/mol]
    Induction sSAPT0               -2.23952061 [mEh]      -1.40532040 [kcal/mol]      -5.87986055 [kJ/mol]
    Dispersion sSAPT0              -0.86467838 [mEh]      -0.54259388 [kcal/mol]      -2.27021278 [kJ/mol]
  Total sSAPT0                    -10.26398304 [mEh]      -6.44074660 [kcal/mol]     -26.94808376 [kJ/mol]
  --------------------------------------------------------------------------------------------------------

*** Psi4 exiting successfully. Buy a developer a beer!
