                               Psi4 1.9 release

  ==> Input File <==

--------------------------------------------------------------------------
memory 64 GB # how much memory is available ! Depends on the nodes/cores !

molecule dimer {
# monomer A
-1 1    # Charge and multiplicity
B -0.000046  0.000337 2.399994
F -1.153597  0.000048 3.215641
F  1.153661 -0.000581 3.215641
F -0.000019 -1.153637 1.584360
F -0.000019  1.153978 1.584360
--
# monomer B
0 1     # Charge and multiplicity
C   -3.66844126402057      7.80375217008252      0.00190004133558
C   -4.84759871934653      7.13124183134024     -0.00046653359696
C   -4.89495929917518      5.69633040353158     -0.00103944469517
C   -3.65374067877320      4.98073034095895      0.00662099703436
C   -2.40942512149445      7.11398103667468      0.00209438359570
C   -2.42547734410473      5.68112195090346     -0.00491050527438
C   -1.19474401643570      7.78614419430947      0.00356656413763
C   0.03795902893699      7.09942164575698      0.00139585983271
C   0.03033258741920      5.66948955970466     -0.00408752508301
C   -1.20098450790502      4.96927034791531      0.00488220885047
C   1.27795782581485      7.77285944319479      0.00277170839332
C   2.48535808472416      7.08769688523756      0.00049722048857
C   2.48612868491717      5.65477081024076     -0.00644052849921
C   1.25408291964399      4.95607811366431      0.00518741308898
C   3.75171459140595      7.76391215098033      0.00062407186893
C   4.92356605618520      7.07878077698995     -0.00143240883900
C   4.95560727132542      5.64344746336949     -0.00159282164606
C   3.70680153420475      4.94121020833308      0.00349873852374
H   -3.65852113775815      8.89082741913536      0.00358502958574
H   -1.18921332975660      8.87412108735996      0.00753844057883
H   1.28429423888630      8.86083343548850      0.00693053253426
H   3.75354208679975      8.85103527897216      0.00214659618464
H   5.86995870320703      7.61379483465560     -0.00235777588134
H   -5.78823170750226      7.67630221293400     -0.00202638095293
C   -6.09197395869619      4.99326001364347     -0.00291168518608
C   -6.12866148031747      3.58258016879823     -0.00171050815740
C   -3.66457974004527      3.56418217974434     -0.00463560277484
C   -4.89429820469869      2.86108077590057      0.00453338221034
C   -2.43733499489796      2.84761165708481      0.00719617576166
C   -1.20922785759670      3.54788693497833     -0.00648285103018
C   1.24714157216223      3.53468075142962     -0.00729145743546
C   0.01517603956900      2.83311183930540      0.00439272578912
C   2.46764517244071      2.82128997725533      0.00449278391269
C   3.70254947457969      3.52466015442405     -0.00899517692985
C   6.14498038638375      4.92757236613191     -0.00282626685777
C   6.16658835886151      3.51658447594213     -0.00065971342101
C   4.92460995845939      2.80840792535402      0.00587903281610
H   7.08990550964105      5.46688776622306     -0.00658814770723
H   -7.03104175110130      5.54268795285765     -0.00714490013730
C   -7.33969804112295      2.85841153457957     -0.00333767559888
C   -7.36488195805880      1.47032337158330     -0.00157213747140
C   -4.90350460894690      1.44442681216000     -0.00628840166334
C   -6.13225715261081      0.73993935705394      0.00600164231964
C   -3.67687480051673      0.72669714267312      0.00433931473643
C   -2.44565658606518      1.42964113326212     -0.00597039546461
C   -1.22360068130162      0.71532450163492      0.00545886906656
C   0.00763786931376      1.41738314923765      0.00392452278437
C   1.23121980774686      0.70211669058719     -0.01490206287210
C   2.46082110053113      1.40329203612573      0.00460244601878
C   3.68443025419614      0.68719842821222      0.00377365974158
C   4.91870890153864      1.39173456118907     -0.00862816189375
C   7.36980207796101      2.77948220318441     -0.00242013321349
C   7.38016266612146      1.39121750785509     -0.00087345036788
C   6.13979953912259      0.67411862320065      0.00545489144369
H   -8.27919079934664      3.40711804112415     -0.00763522772059
H   8.31511347147953      3.31811809662368     -0.00663070901292
C   -8.59175593758115      0.72483255304480     -0.00123170985383
C   -8.59902460370342     -0.63263980622873      0.00089141472904
C   -6.13981313911873     -0.67413663715361     -0.00609792660607
C   -7.38018411213749     -1.39126618958160      0.00131813493501
C   -4.91868448025621     -1.39175501803000      0.00624257154343
C   -3.68443829568458     -0.68723731573599     -0.00478966852105
C   -2.46081704024768     -1.40334517882457      0.00575341766833
C   -1.23116201232071     -0.70217386488055     -0.00636696112346
C   -0.00756962538737     -1.41741884941102      0.00108956317991
C   1.22364771588843     -0.71527537726392      0.01109518512883
C   2.44567064933149     -1.42964328900682     -0.00065482763106
C   3.67686670284649     -0.72670743155550     -0.00479541202602
C   6.13224884641929     -0.73997883984993     -0.00632338623858
C   4.90351914550401     -1.44445752054090      0.00751768830159
C   8.59901484869081      0.63260386666793     -0.00101133422380
C   8.59174548810050     -0.72485086719319      0.00072504603735
C   7.36486276438985     -1.47033266560598      0.00049486934466
H   -9.52830597181814      1.27684744919284     -0.00270163681798
H   9.54141097460619      1.17457248844457     -0.00206336648518
C   -7.36983790976868     -2.77954514593389      0.00312634335708
C   -4.92459910905015     -2.80843725734101     -0.00460528907921
C   -6.16662249566744     -3.51665219282533      0.00169655107992
C   -3.70251035970491     -3.52468154912026      0.00571878010666
C   -2.46764698511392     -2.82132596280400     -0.00632585824990
C   -0.01513347410770     -2.83314164539971     -0.00604426974092
C   -1.24712184122656     -3.53473217556300      0.00551968366725
C   1.20924506964357     -3.54791467864352      0.00805871345849
C   2.43733602215464     -2.84764173817541     -0.00608104485234
C   4.89430234377080     -2.86112296828604     -0.00526030478103
C   3.66461525504104     -3.56421984553201      0.00761911515957
C   6.12863901474565     -3.58258405771778      0.00096495711699
C   7.33967266469532     -2.85841330737039      0.00248018319869
H   -9.54144911125902     -1.17456346666430      0.00226083090216
H   9.52826186807155     -1.27691907390448      0.00197485379837
H   -8.31516504384864     -3.31814985321231      0.00729857188773
H   8.27915514249207     -3.40714078989363      0.00681973918158
C   -6.14499418870218     -4.92764727278338      0.00302254913999
C   -3.70678334799751     -4.94126171411716     -0.00679841894792
C   -4.95559005800169     -5.64349397349412      0.00116871569699
C   -2.48612132622665     -5.65478557440947      0.00614125209662
C   -1.25405833548005     -4.95612205000132     -0.00503435388927
C   1.20101257386816     -4.96928038819302     -0.00385322963129
C   -0.03033667441341     -5.66952030313900      0.00398997003238
C   3.65375010132847     -4.98074377541453     -0.00309522988330
C   2.42549269587528     -5.68117463552727      0.00628170066869
C   6.09196561781097     -4.99325796338655      0.00325918379042
C   4.89497644461045     -5.69634842095790      0.00202298796027
H   -7.08989238804069     -5.46699984223871      0.00742531082125
H   7.03105520920009     -5.54265853633254      0.00683896355417
C   -4.92354532219813     -7.07882109967734      0.00061394679214
C   -2.48534208823777     -7.08772807792913     -0.00189594564379
C   -3.75168589177895     -7.76394715763627     -0.00170126671874
C   -0.03794895698805     -7.09946487446944     -0.00168022049625
C   -1.27795610040136     -7.77290438466689     -0.00366491325785
C   2.40944432072629     -7.11402201200282     -0.00081701968533
C   1.19474993715296     -7.78618536556242     -0.00296931056689
C   4.84762105249800     -7.13126211057943      0.00168979497423
C   3.66847160587561     -7.80378799294376     -0.00065863938960
H   -5.86994035041618     -7.61383059804164      0.00215798365757
H   5.78824962538815     -7.67633218931421      0.00281691445618
H   -3.75352693944918     -8.85107156923607     -0.00353718114765
H   -1.28430440589466     -8.86087539249706     -0.00809229711623
H   1.18922157469537     -8.87416062058945     -0.00706194725726
H   3.65854661482387     -8.89086063405326     -0.00231318081200

    units angstrom      # Angstroms are the default
    no_reorient         # Geometry fixed, default
    symmetry c1         # C1 symmetry, default
}

set {
    scf_type DF         # Density fitting, faster than exact integrals
    freeze_core True    # Freeze core electrons
    basis jun-cc-pVDZ   # Jun-cc-pVDZ basis set, recommended for sSAPT0 in https://doi.org/10.1063/1.4867135
}

energy('ssapt0')        # Compute sSAPT0 energy, includes also SAPT0
--------------------------------------------------------------------------

  //              Dimer HF             //
    Molecular point group: c1
  Charge       = -1
  Multiplicity = 1
  Basis Set: JUN-CC-PVDZ
    Blend: JUN-CC-PVDZ
  Basis Set: (JUN-CC-PVDZ AUX)
    Blend: JUN-CC-PVDZ-JKFIT
  @DF-RHF Final Energy: -4072.78296120025152
    Total Energy =                      -4072.7829612002497015
 Dipole X            :          0.0017682           -0.0001188            0.0016494
 Dipole Y            :         -0.0016202           -0.0002727           -0.0018929
 Dipole Z            :         12.6145174          -14.2831277           -1.6686103
 Magnitude           :                                                    1.6686122
  //            Monomer A HF           //
    Molecular point group: c1
  Multiplicity = 1
  Basis Set: JUN-CC-PVDZ
    Blend: JUN-CC-PVDZ
  Basis Set: (JUN-CC-PVDZ AUX)
    Blend: JUN-CC-PVDZ-JKFIT
  @DF-RHF Final Energy:  -422.77823204138230
    Total Energy =                       -422.7782320413822958
  //            Monomer B HF           //
    Molecular point group: c1

    Geometry (in Angstrom), charge = 0, multiplicity = 1:

       Center              X                  Y                   Z               Mass
    ------------   -----------------  -----------------  -----------------  -----------------
      Gh(B)          -0.000050191042     0.000351518223     2.234689649615    11.009305360000
      Gh(F)          -1.153601191042     0.000062518223     3.050336649615    18.998403162730
      Gh(F)           1.153656808958    -0.000566481777     3.050336649615    18.998403162730
      Gh(F)          -0.000023191042    -1.153622481777     1.419055649615    18.998403162730
      Gh(F)          -0.000023191042     1.153992518223     1.419055649615    18.998403162730
         C           -3.668445455062     7.803766688305    -0.163404309049    12.000000000000
         C           -4.847602910388     7.131256349563    -0.165770883982    12.000000000000
         C           -4.894963490217     5.696344921754    -0.166343795080    12.000000000000
         C           -3.653744869815     4.980744859182    -0.158683353351    12.000000000000
         C           -2.409429312536     7.113995554897    -0.163209966789    12.000000000000
         C           -2.425481535146     5.681136469126    -0.170214855659    12.000000000000
         C           -1.194748207477     7.786158712532    -0.161737786247    12.000000000000
         C            0.037954837895     7.099436163980    -0.163908490552    12.000000000000
         C            0.030328396378     5.669504077927    -0.169391875468    12.000000000000
         C           -1.200988698947     4.969284866138    -0.160422141535    12.000000000000
         C            1.277953634773     7.772873961417    -0.162532641992    12.000000000000
         C            2.485353893683     7.087711403460    -0.164807129896    12.000000000000
         C            2.486124493876     5.654785328463    -0.171744878884    12.000000000000
         C            1.254078728602     4.956092631887    -0.160116937296    12.000000000000
         C            3.751710400364     7.763926669203    -0.164680278516    12.000000000000
         C            4.923561865144     7.078795295213    -0.166736759224    12.000000000000
         C            4.955603080284     5.643461981592    -0.166897172031    12.000000000000
         C            3.706797343163     4.941224726556    -0.161805611861    12.000000000000
         H           -3.658525328800     8.890841937358    -0.161719320799     1.007825032230
         H           -1.189217520798     8.874135605583    -0.157765909806     1.007825032230
         H            1.284290047845     8.860847953711    -0.158373817851     1.007825032230
         H            3.753537895758     8.851049797195    -0.163157754200     1.007825032230
         H            5.869954512165     7.613809352878    -0.167662126266     1.007825032230
         H           -5.788235898544     7.676316731157    -0.167330731338     1.007825032230
         C           -6.091978149738     4.993274531866    -0.168216035571    12.000000000000
         C           -6.128665671359     3.582594687021    -0.167014858542    12.000000000000
         C           -3.664583931087     3.564196697967    -0.169939953160    12.000000000000
         C           -4.894302395740     2.861095294123    -0.160770968175    12.000000000000
         C           -2.437339185940     2.847626175307    -0.158108174623    12.000000000000
         C           -1.209232048638     3.547901453201    -0.171787201415    12.000000000000
         C            1.247137381121     3.534695269652    -0.172595807821    12.000000000000
         C            0.015171848527     2.833126357528    -0.160911624596    12.000000000000
         C            2.467640981399     2.821304495478    -0.160811566472    12.000000000000
         C            3.702545283538     3.524674672647    -0.174299527315    12.000000000000
         C            6.144976195342     4.927586884354    -0.168130617243    12.000000000000
         C            6.166584167820     3.516598994165    -0.165964063806    12.000000000000
         C            4.924605767418     2.808422443577    -0.159425317569    12.000000000000
         H            7.089901318599     5.466902284446    -0.171892498092     1.007825032230
         H           -7.031045942143     5.542702471080    -0.172449250522     1.007825032230
         C           -7.339702232165     2.858426052802    -0.168642025984    12.000000000000
         C           -7.364886149100     1.470337889806    -0.166876487856    12.000000000000
         C           -4.903508799989     1.444441330383    -0.171592752048    12.000000000000
         C           -6.132261343652     0.739953875277    -0.159302708065    12.000000000000
         C           -3.676878991558     0.726711660896    -0.160965035649    12.000000000000
         C           -2.445660777107     1.429655651485    -0.171274745850    12.000000000000
         C           -1.223604872343     0.715339019858    -0.159845481318    12.000000000000
         C            0.007633678272     1.417397667460    -0.161379827601    12.000000000000
         C            1.231215616705     0.702131208810    -0.180206413257    12.000000000000
         C            2.460816909489     1.403306554348    -0.160701904366    12.000000000000
         C            3.684426063155     0.687212946435    -0.161530690643    12.000000000000
         C            4.918704710497     1.391749079412    -0.173932512279    12.000000000000
         C            7.369797886919     2.779496721407    -0.167724483599    12.000000000000
         C            7.380158475080     1.391232026078    -0.166177800753    12.000000000000
         C            6.139795348081     0.674133141423    -0.159849458941    12.000000000000
         H           -8.279194990388     3.407132559347    -0.172939578106     1.007825032230
         H            8.315109280438     3.318132614846    -0.171935059398     1.007825032230
         C           -8.591760128623     0.724847071267    -0.166536060239    12.000000000000
         C           -8.599028794745    -0.632625288006    -0.164412935656    12.000000000000
         C           -6.139817330160    -0.674122118931    -0.171402276991    12.000000000000
         C           -7.380188303179    -1.391251671359    -0.163986215450    12.000000000000
         C           -4.918688671298    -1.391740499807    -0.159061778842    12.000000000000
         C           -3.684442486726    -0.687222797513    -0.170094018906    12.000000000000
         C           -2.460821231289    -1.403330660602    -0.159550932717    12.000000000000
         C           -1.231166203362    -0.702159346658    -0.171671311509    12.000000000000
         C           -0.007573816429    -1.417404331188    -0.164214787205    12.000000000000
         C            1.223643524847    -0.715260859041    -0.154209165256    12.000000000000
         C            2.445666458290    -1.429628770784    -0.165959178016    12.000000000000
         C            3.676862511805    -0.726692913333    -0.170099762411    12.000000000000
         C            6.132244655378    -0.739964321627    -0.171627736624    12.000000000000
         C            4.903514954462    -1.444443002318    -0.157786662083    12.000000000000
         C            8.599010657649     0.632618384891    -0.166315684609    12.000000000000
         C            8.591741297059    -0.724836348971    -0.164579304348    12.000000000000
         C            7.364858573348    -1.470318147383    -0.164809481040    12.000000000000
         H           -9.528310162860     1.276861967415    -0.168005987203     1.007825032230
         H            9.541406783565     1.174587006667    -0.167367716870     1.007825032230
         C           -7.369842100810    -2.779530627711    -0.162178007028    12.000000000000
         C           -4.924603300092    -2.808422739118    -0.169909639464    12.000000000000
         C           -6.166626686709    -3.516637674603    -0.163607799305    12.000000000000
         C           -3.702514550747    -3.524667030898    -0.159585570278    12.000000000000
         C           -2.467651176156    -2.821311444581    -0.171630208635    12.000000000000
         C           -0.015137665149    -2.833127127177    -0.171348620126    12.000000000000
         C           -1.247126032268    -3.534717657340    -0.159784666718    12.000000000000
         C            1.209240878602    -3.547900160421    -0.157245636927    12.000000000000
         C            2.437331831113    -2.847627219953    -0.171385395237    12.000000000000
         C            4.894298152729    -2.861108450063    -0.170564655166    12.000000000000
         C            3.664611063999    -3.564205327309    -0.157685235225    12.000000000000
         C            6.128634823704    -3.582569539495    -0.164339393268    12.000000000000
         C            7.339668473654    -2.858398789148    -0.162824167186    12.000000000000
         H           -9.541453302301    -1.174548948442    -0.163043519483     1.007825032230
         H            9.528257677030    -1.276904555682    -0.163329496587     1.007825032230
         H           -8.315169234890    -3.318135334990    -0.158005778497     1.007825032230
         H            8.279150951450    -3.407126271671    -0.158484611203     1.007825032230
         C           -6.144998379744    -4.927632754561    -0.162281801245    12.000000000000
         C           -3.706787539039    -4.941247195895    -0.172102769333    12.000000000000
         C           -4.955594249043    -5.643479455272    -0.164135634688    12.000000000000
         C           -2.486125517268    -5.654771056187    -0.159163098288    12.000000000000
         C           -1.254062526522    -4.956107531779    -0.170338704274    12.000000000000
         C            1.201008382827    -4.969265869970    -0.169157580016    12.000000000000
         C           -0.030340865455    -5.669505784916    -0.161314380353    12.000000000000
         C            3.653745910287    -4.980729257192    -0.168399580268    12.000000000000
         C            2.425488504834    -5.681160117305    -0.159022649716    12.000000000000
         C            6.091961426769    -4.993243445164    -0.162045166595    12.000000000000
         C            4.894972253569    -5.696333902735    -0.163281362425    12.000000000000
         H           -7.089896579082    -5.466985324016    -0.157879039564     1.007825032230
         H            7.031051018158    -5.542644018110    -0.158465386831     1.007825032230
         C           -4.923549513240    -7.078806581455    -0.164690403593    12.000000000000
         C           -2.485346279279    -7.087713559707    -0.167200296029    12.000000000000
         C           -3.751690082821    -7.763932639414    -0.167005617104    12.000000000000
         C           -0.037953148030    -7.099450356247    -0.166984570881    12.000000000000
         C           -1.277960291443    -7.772889866444    -0.168969263643    12.000000000000
         C            2.409440129685    -7.114007493780    -0.166121370070    12.000000000000
         C            1.194745746111    -7.786170847340    -0.168273660952    12.000000000000
         C            4.847616861456    -7.131247592357    -0.163614555411    12.000000000000
         C            3.668467414834    -7.803773474721    -0.165962989775    12.000000000000
         H           -5.869944541458    -7.613816079819    -0.163146366727     1.007825032230
         H            5.788245434347    -7.676317671092    -0.162487435929     1.007825032230
         H           -3.753531130491    -8.851057051013    -0.168841531533     1.007825032230
         H           -1.284308596936    -8.860860874274    -0.173396647501     1.007825032230
         H            1.189217383654    -8.874146102367    -0.172366297642     1.007825032230
         H            3.658542423782    -8.890846115831    -0.167617531197     1.007825032230

  Charge       = 0
  Multiplicity = 1
  Basis Set: JUN-CC-PVDZ
    Blend: JUN-CC-PVDZ
  Basis Set: (JUN-CC-PVDZ AUX)
    Blend: JUN-CC-PVDZ-JKFIT

    Orbital Energies [Eh]
    ---------------------

    Doubly Occupied:

       1A    -11.264086     2A    -11.263783     3A    -11.263638
       4A    -11.263305     5A    -11.263231     6A    -11.263224
       7A    -11.263106     8A    -11.263080     9A    -11.263052
      10A    -11.262827    11A    -11.262736    12A    -11.262684
      13A    -11.262239    14A    -11.262230    15A    -11.262195
      16A    -11.262179    17A    -11.262083    18A    -11.262074
      19A    -11.262040    20A    -11.262006    21A    -11.261987
      22A    -11.261915    23A    -11.261868    24A    -11.261738
      25A    -11.261733    26A    -11.261719    27A    -11.261698
      28A    -11.261671    29A    -11.261651    30A    -11.261557
      31A    -11.261541    32A    -11.261537    33A    -11.261527
      34A    -11.261501    35A    -11.261498    36A    -11.261480
      37A    -11.261322    38A    -11.261316    39A    -11.261308
      40A    -11.261303    41A    -11.261299    42A    -11.261295
      43A    -11.261271    44A    -11.261252    45A    -11.261249
      46A    -11.261226    47A    -11.261220    48A    -11.261216
      49A    -11.261016    50A    -11.260990    51A    -11.260970
      52A    -11.260903    53A    -11.260896    54A    -11.260843
      55A    -11.259901    56A    -11.259889    57A    -11.259883
      58A    -11.259857    59A    -11.259851    60A    -11.259837
      61A    -11.259269    62A    -11.259246    63A    -11.259237
      64A    -11.259190    65A    -11.259180    66A    -11.259154
      67A    -11.258903    68A    -11.258887    69A    -11.258881
      70A    -11.258856    71A    -11.258849    72A    -11.258839
      73A    -11.254526    74A    -11.254524    75A    -11.254519
      76A    -11.254518    77A    -11.254517    78A    -11.254516
      79A    -11.253647    80A    -11.253645    81A    -11.253642
      82A    -11.253640    83A    -11.253639    84A    -11.253637
      85A    -11.253563    86A    -11.253560    87A    -11.253558
      88A    -11.253556    89A    -11.253555    90A    -11.253553
      91A    -11.253054    92A    -11.253052    93A    -11.253047
      94A    -11.253046    95A    -11.253045    96A    -11.253044
      97A     -1.253864    98A     -1.238961    99A     -1.238943
     100A     -1.220440   101A     -1.220430   102A     -1.215365
     103A     -1.201027   104A     -1.195585   105A     -1.188081
     106A     -1.188067   107A     -1.173753   108A     -1.173745
     109A     -1.155578   110A     -1.155575   111A     -1.152646
     112A     -1.144711   113A     -1.144708   114A     -1.128534
     115A     -1.114665   116A     -1.113149   117A     -1.112414
     118A     -1.112407   119A     -1.111611   120A     -1.088394
     121A     -1.088373   122A     -1.076949   123A     -1.076947
     124A     -1.067571   125A     -1.067541   126A     -1.064913
     127A     -1.046776   128A     -1.046766   129A     -1.040447
     130A     -1.038723   131A     -1.038722   132A     -1.025181
     133A     -1.021306   134A     -1.021260   135A     -1.007157
     136A     -1.006785   137A     -1.003767   138A     -1.000439
     139A     -1.000388   140A     -0.991064   141A     -0.970945
     142A     -0.970902   143A     -0.955861   144A     -0.955805
     145A     -0.905540   146A     -0.905523   147A     -0.905501
     148A     -0.905489   149A     -0.904262   150A     -0.892306
     151A     -0.892251   152A     -0.890310   153A     -0.890253
     154A     -0.889416   155A     -0.872199   156A     -0.869051
     157A     -0.851517   158A     -0.847820   159A     -0.847797
     160A     -0.845544   161A     -0.842980   162A     -0.834536
     163A     -0.834521   164A     -0.828098   165A     -0.828097
     166A     -0.784517   167A     -0.784510   168A     -0.783611
     169A     -0.783586   170A     -0.782249   171A     -0.782230
     172A     -0.781987   173A     -0.766969   174A     -0.760737
     175A     -0.750511   176A     -0.733466   177A     -0.727040
     178A     -0.727030   179A     -0.725044   180A     -0.724514
     181A     -0.724502   182A     -0.718420   183A     -0.713719
     184A     -0.713712   185A     -0.699541   186A     -0.699534
     187A     -0.686056   188A     -0.685939   189A     -0.685935
     190A     -0.682156   191A     -0.682140   192A     -0.678719
     193A     -0.653589   194A     -0.650835   195A     -0.650805
     196A     -0.649753   197A     -0.649742   198A     -0.649548
     199A     -0.640858   200A     -0.640842   201A     -0.640069
     202A     -0.639148   203A     -0.635968   204A     -0.635946
     205A     -0.629112   206A     -0.617726   207A     -0.615285
     208A     -0.615267   209A     -0.608776   210A     -0.608768
     211A     -0.599107   212A     -0.599065   213A     -0.598704
     214A     -0.598570   215A     -0.598540   216A     -0.597967
     217A     -0.595046   218A     -0.595036   219A     -0.594686
     220A     -0.594166   221A     -0.591910   222A     -0.591905
     223A     -0.587323   224A     -0.577785   225A     -0.577776
     226A     -0.575637   227A     -0.575631   228A     -0.573359
     229A     -0.569601   230A     -0.568074   231A     -0.568057
     232A     -0.566717   233A     -0.566699   234A     -0.560901
     235A     -0.558669   236A     -0.558652   237A     -0.558413
     238A     -0.554332   239A     -0.550530   240A     -0.547463
     241A     -0.544242   242A     -0.535037   243A     -0.534956
     244A     -0.533503   245A     -0.533479   246A     -0.528053
     247A     -0.528039   248A     -0.527728   249A     -0.517104
     250A     -0.517072   251A     -0.515332   252A     -0.515326
     253A     -0.509621   254A     -0.509603   255A     -0.498001
     256A     -0.496416   257A     -0.496389   258A     -0.493760
     259A     -0.493718   260A     -0.489433   261A     -0.481428
     262A     -0.477401   263A     -0.477396   264A     -0.473968
     265A     -0.469401   266A     -0.466486   267A     -0.466482
     268A     -0.458753   269A     -0.446622   270A     -0.446558
     271A     -0.441007   272A     -0.440763   273A     -0.440735
     274A     -0.434669   275A     -0.433892   276A     -0.407339
     277A     -0.407326   278A     -0.386355   279A     -0.386301
     280A     -0.385723   281A     -0.385716   282A     -0.383702
     283A     -0.354296   284A     -0.354293   285A     -0.350611
     286A     -0.338028   287A     -0.335547   288A     -0.335445
     289A     -0.332695   290A     -0.332691   291A     -0.307001
     292A     -0.301867   293A     -0.301811   294A     -0.300824
     295A     -0.286137   296A     -0.256473   297A     -0.253429
     298A     -0.253367   299A     -0.204221   300A     -0.204128

  @DF-RHF Final Energy: -3650.34106346850604

   => Energetics <=

    Nuclear Repulsion Energy =          15611.4211649754324753
    One-Electron Energy =              -36072.1676203222305048
    Two-Electron Energy =               16810.4053918782919936
    Total Energy =                      -3650.3410634685060359
 Dipole X            :          0.0002096            0.0001983            0.0004079
 Dipole Y            :          0.0010699           -0.0013163           -0.0002464
 Dipole Z            :        187.4274470         -187.4245778            0.0028692
 Magnitude           :                                                    0.0029085

    SAPT Results
  --------------------------------------------------------------------------------------------------------
    Electrostatics               -365.68939526 [mEh]    -229.47355998 [kcal/mol]    -960.11737498 [kJ/mol]
      Elst10,r                   -365.68939526 [mEh]    -229.47355998 [kcal/mol]    -960.11737498 [kJ/mol]

    Exchange                      838.69121418 [mEh]     526.28668247 [kcal/mol]    2201.98347945 [kJ/mol]
      Exch10                      838.69121418 [mEh]     526.28668247 [kcal/mol]    2201.98347945 [kJ/mol]
      Exch10(S^2)                 755.04758946 [mEh]     473.79951554 [kcal/mol]    1982.37717301 [kJ/mol]

    Induction                    -136.66750928 [mEh]     -85.76015683 [kcal/mol]    -358.82049618 [kJ/mol]
      Ind20,r                    -600.77163950 [mEh]    -376.98989536 [kcal/mol]   -1577.32572219 [kJ/mol]
      Exch-Ind20,r                425.68108610 [mEh]     267.11891434 [kcal/mol]    1117.62553758 [kJ/mol]
      delta HF,r (2)               38.42304412 [mEh]      24.11082419 [kcal/mol]     100.87968843 [kJ/mol]

    Dispersion                    -79.38322341 [mEh]     -49.81372475 [kcal/mol]    -208.42062436 [kJ/mol]
      Disp20                     -126.77598714 [mEh]     -79.55313298 [kcal/mol]    -332.85030838 [kJ/mol]
      Exch-Disp20                  47.39276373 [mEh]      29.73940823 [kcal/mol]     124.42968402 [kJ/mol]
      Disp20 (SS)                 -63.38799357 [mEh]     -39.77656649 [kcal/mol]    -166.42515419 [kJ/mol]
      Disp20 (OS)                 -63.38799357 [mEh]     -39.77656649 [kcal/mol]    -166.42515419 [kJ/mol]
      Exch-Disp20 (SS)             22.29005855 [mEh]      13.98722291 [kcal/mol]      58.52254065 [kJ/mol]
      Exch-Disp20 (OS)             25.10270518 [mEh]      15.75218532 [kcal/mol]      65.90714337 [kJ/mol]

  Total HF                        336.33430964 [mEh]     211.05296565 [kcal/mol]     883.04560829 [kJ/mol]
  Total SAPT0                     256.95108622 [mEh]     161.23924090 [kcal/mol]     674.62498394 [kJ/mol]

  Special recipe for scaled SAPT0 (see Manual):
    Electrostatics sSAPT0        -365.68939526 [mEh]    -229.47355998 [kcal/mol]    -960.11737498 [kJ/mol]
    Exchange sSAPT0               838.69121418 [mEh]     526.28668247 [kcal/mol]    2201.98347945 [kJ/mol]
    Induction sSAPT0               21.05306180 [mEh]      13.21099573 [kcal/mol]      55.27480614 [kJ/mol]
    Dispersion sSAPT0             -61.82356666 [mEh]     -38.79487378 [kcal/mol]    -162.31775189 [kJ/mol]
  Total sSAPT0                    432.23131406 [mEh]     271.22924444 [kcal/mol]    1134.82315872 [kJ/mol]
  --------------------------------------------------------------------------------------------------------

*** Psi4 exiting successfully. Buy a developer a beer!
