                               Psi4 1.9 release

  ==> Input File <==

--------------------------------------------------------------------------
memory 32 GB # how much memory is available ! Depends on the nodes/cores !

molecule dimer {
# monomer A
-1 1    # Charge and multiplicity
B -1.977592e-04  2.742729e-04 -6.399966
F  1.123153e-16  1.430594e-17 -4.987181
F  1.147860e+00  6.757812e-01 -6.871107
F  1.191806e-02 -1.332011e+00 -6.870905
F -1.159666e+00  6.560735e-01 -6.870826
--
# monomer B
0 1     # Charge and multiplicity
C   1.22531237526482      0.70753866091955      0.00613762728373
C   1.22532433589282     -0.70753852257020     -0.00619318228664
C   -0.00000567409046      1.41496628609039     -0.00672680580738
C   2.45644923379077      1.41832825917820      0.00902448468363
C   0.00001130712078     -1.41497612663474      0.00347275151708
C   -1.22530046906674      0.70754574598412      0.00838914760619
C   2.45643823516184     -1.41832293188077     -0.00843833914343
C   -0.00000085313587      2.83680140328112     -0.00913035594137
C   3.68182717731192      0.70931832800114     -0.00808954934571
C   2.45512052870677      2.83422403348893     -0.00819210630633
C   3.68182158506039     -0.70933346742900      0.00798293467272
C   -1.22531311884624     -0.70752714354401     -0.00512042085974
C   1.22670006104402      3.54346985599427      0.00816696660346
C   0.00000526469929     -2.83678176723568      0.00832091913869
C   -2.45643555300670      1.41831729028492      0.00842454345199
C   2.45512389762097     -2.83422965658853      0.00783102630520
C   -1.22671388474763      3.54346943575023      0.00827029982280
C   4.91451777504333      1.42717324448953     -0.00160886631602
C   3.69315067131765      3.54279566454522     -0.00155906667985
C   -2.45643712022637     -1.41831290883911     -0.00846337726810
C   1.22670532178455     -3.54347386990643     -0.00780316414624
C   -2.45512491866593      2.83421703463423     -0.00818572995999
C   4.91452486062398     -1.42718653794377      0.00136387641845
C   1.22142509354026      4.97013443726031      0.00150231067809
C   4.89300870916237      2.82518837202648     -0.00039219795739
C   -1.22669652864725     -3.54347062507680     -0.00753595973677
C   -3.68181849668397      0.70932533873199     -0.00807686886569
C   3.69314758099218     -3.54280096939050      0.00148176697923
C   -1.22143177215231      4.97012866986289      0.00168580605083
C   6.13477145276790      0.68054831910577     -0.00083909176631
C   3.65678936045204      4.97295361556775     -0.00065042889723
C   -2.45512642789169     -2.83421472106065      0.00758666850712
C   -3.68181869921921     -0.70932533146830      0.00810055625144
C   4.89301309775526     -2.82519973363176      0.00021895393805
C   -0.00000059327114      5.65044773803267      0.00045449734393
C   6.13477559217374     -0.68055448207492      0.00042622874941
C   2.47813196269732      5.65357712333155      0.00063835075260
C   1.22142288457925     -4.97012668293268     -0.00129718634452
C   -3.69316190412301      3.54279732619245     -0.00139355922051
C   -1.22142804110313     -4.97011793159564     -0.00140994817719
C   -4.91452132810043      1.42717581899491     -0.00153192130862
C   3.65678749952045     -4.97295485423912      0.00080007163680
C   -2.47813805026426      5.65357479452875      0.00092287576113
C   -3.69314125872231     -3.54278984697859      0.00136564082345
C   -4.91451200321153     -1.42718062802730      0.00139857359209
C   -0.00000552908399     -5.65043791501335      0.00005899322272
C   -4.89302000425900      2.82518897091939     -0.00040227981744
C   2.47812647313991     -5.65357317188818     -0.00029052915548
C   -3.65679823041642      4.97295655404175     -0.00047374852278
C   -4.89299899901461     -2.82519139505969      0.00006491824035
C   -2.47812801824129     -5.65356579800621     -0.00056571680280
C   -6.13477002348955      0.68054913825639     -0.00086464346868
C   -3.65678835334731     -4.97294365097028      0.00058578382008
C   -6.13476456307132     -0.68055354348201      0.00040575295444
H   5.83528897565761      3.36927626695423      0.00396712770529
H   7.07385965258860      1.22821762089947     -0.00037744837300
H   4.60066374401555      5.51238117445323     -0.00014522814529
H   5.83528386714679     -3.36930568472863     -0.00423551337640
H   -0.00001167146422      6.73853104613662     -0.00389474766392
H   7.07386165167227     -1.22822657074368     -0.00008250934481
H   2.47331421164041      6.74068466339473      0.00017162982210
H   4.60066897122302     -5.51237575717576      0.00039007446835
H   -2.47331820069565      6.74068209160650      0.00047297644710
H   -0.00000978838621     -6.73852780445195      0.00458867820736
H   -5.83530143450167      3.36927132229595      0.00410314985360
H   2.47330840367253     -6.74068500242887      0.00027980126949
H   -4.60067436136587      5.51237839860371      0.00002010017831
H   -5.83527902699321     -3.36928859177951     -0.00451481925734
H   -2.47329986759855     -6.74067870613986     -0.00016951527498
H   -7.07385728692578      1.22822084484047     -0.00046143985387
H   -4.60067330624313     -5.51236229778631      0.00021776644566
H   -7.07385645456741     -1.22822025997701     -0.00017736581114

    units angstrom      # Angstroms are the default
    no_reorient         # Geometry fixed, default
    symmetry c1         # C1 symmetry, default
}

set {
    scf_type DF         # Density fitting, faster than exact integrals
    freeze_core True    # Freeze core electrons
    basis jun-cc-pVDZ   # Jun-cc-pVDZ basis set, recommended for sSAPT0 in https://doi.org/10.1063/1.4867135
}

energy('ssapt0')        # Compute sSAPT0 energy, includes also SAPT0
--------------------------------------------------------------------------

  //              Dimer HF             //
    Molecular point group: c1
  Charge       = -1
  Multiplicity = 1
  Basis Set: JUN-CC-PVDZ
    Blend: JUN-CC-PVDZ
  Basis Set: (JUN-CC-PVDZ AUX)
    Blend: JUN-CC-PVDZ-JKFIT
  @DF-RHF Final Energy: -2478.65837290886930
    Total Energy =                      -2478.6583729088688415
 Dipole X            :         -0.0004987            0.0000481           -0.0004507
 Dipole Y            :          0.0010240           -0.0001453            0.0008787
 Dipole Z            :        -29.3839448           39.2342901            9.8503453
 Magnitude           :                                                    9.8503454
  //            Monomer A HF           //
    Molecular point group: c1
  Multiplicity = 1
  Basis Set: JUN-CC-PVDZ
    Blend: JUN-CC-PVDZ
  Basis Set: (JUN-CC-PVDZ AUX)
    Blend: JUN-CC-PVDZ-JKFIT
  @DF-RHF Final Energy:  -422.77160718357419
    Total Energy =                       -422.7716071835741900
  //            Monomer B HF           //
    Molecular point group: c1

    Geometry (in Angstrom), charge = 0, multiplicity = 1:

       Center              X                  Y                   Z               Mass
    ------------   -----------------  -----------------  -----------------  -----------------
      Gh(B)          -0.000198161052     0.000273808717    -5.660637914394    11.009305360000
      Gh(F)          -0.000000401852    -0.000000464183    -4.247852914394    18.998403162730
      Gh(F)           1.147859598148     0.675780735817    -6.131778914394    18.998403162730
      Gh(F)           0.011917658148    -1.332011464183    -6.131576914394    18.998403162730
      Gh(F)          -1.159666401852     0.656073035817    -6.131497914394    18.998403162730
         C            1.225311973413     0.707538196736     0.745465712890    12.000000000000
         C            1.225323934041    -0.707538986754     0.733134903319    12.000000000000
         C           -0.000006075942     1.414965821907     0.732601279798    12.000000000000
         C            2.456448831939     1.418327794995     0.748352570289    12.000000000000
         C            0.000010905269    -1.414976590818     0.742800837123    12.000000000000
         C           -1.225300870919     0.707545281801     0.747717233212    12.000000000000
         C            2.456437833310    -1.418323396064     0.730889746462    12.000000000000
         C           -0.000001254988     2.836800939098     0.730197729664    12.000000000000
         C            3.681826775460     0.709317863818     0.731238536260    12.000000000000
         C            2.455120126855     2.834223569306     0.731135979300    12.000000000000
         C            3.681821183209    -0.709333931612     0.747311020279    12.000000000000
         C           -1.225313520698    -0.707527607727     0.734207664746    12.000000000000
         C            1.226699659192     3.543469391811     0.747495052209    12.000000000000
         C            0.000004862847    -2.836782231419     0.747649004745    12.000000000000
         C           -2.456435954859     1.418316826102     0.747752629058    12.000000000000
         C            2.455123495769    -2.834230120772     0.747159111911    12.000000000000
         C           -1.226714286599     3.543468971567     0.747598385429    12.000000000000
         C            4.914517373191     1.427172780306     0.737719219290    12.000000000000
         C            3.693150269466     3.542795200362     0.737769018926    12.000000000000
         C           -2.456437522078    -1.418313373022     0.730864708338    12.000000000000
         C            1.226704919933    -3.543474334090     0.731524921460    12.000000000000
         C           -2.455125320518     2.834216570451     0.731142355646    12.000000000000
         C            4.914524458772    -1.427187002127     0.740691962024    12.000000000000
         C            1.221424691688     4.970133973077     0.740830396284    12.000000000000
         C            4.893008307311     2.825187907843     0.738935887648    12.000000000000
         C           -1.226696930499    -3.543471089260     0.731792125869    12.000000000000
         C           -3.681818898536     0.709324874549     0.731251216740    12.000000000000
         C            3.693147179140    -3.542801433574     0.740809852585    12.000000000000
         C           -1.221432174004     4.970128205680     0.741013891657    12.000000000000
         C            6.134771050916     0.680547854922     0.738488993840    12.000000000000
         C            3.656788958600     4.972953151384     0.738677656709    12.000000000000
         C           -2.455126829744    -2.834215185244     0.746914754113    12.000000000000
         C           -3.681819101071    -0.709325795652     0.747428641857    12.000000000000
         C            4.893012695903    -2.825200197815     0.739547039544    12.000000000000
         C           -0.000000995123     5.650447273849     0.739782582950    12.000000000000
         C            6.134775190322    -0.680554946258     0.739754314355    12.000000000000
         C            2.478131560845     5.653576659148     0.739966436358    12.000000000000
         C            1.221422482727    -4.970127147116     0.738030899261    12.000000000000
         C           -3.693162305975     3.542796862009     0.737934526385    12.000000000000
         C           -1.221428442955    -4.970118395779     0.737918137429    12.000000000000
         C           -4.914521729952     1.427175354812     0.737796164297    12.000000000000
         C            3.656787097669    -4.972955318422     0.740128157243    12.000000000000
         C           -2.478138452116     5.653574330345     0.740250961367    12.000000000000
         C           -3.693141660574    -3.542790311162     0.740693726429    12.000000000000
         C           -4.914512405063    -1.427181092211     0.740726659198    12.000000000000
         C           -0.000005930936    -5.650438379197     0.739387078829    12.000000000000
         C           -4.893020406111     2.825188506736     0.738925805788    12.000000000000
         C            2.478126071288    -5.653573636072     0.739037556450    12.000000000000
         C           -3.656798632268     4.972956089858     0.738854337083    12.000000000000
         C           -4.892999400866    -2.825191859243     0.739393003846    12.000000000000
         C           -2.478128420093    -5.653566262190     0.738762368803    12.000000000000
         C           -6.134770425341     0.680548674073     0.738463442137    12.000000000000
         C           -3.656788755199    -4.972944115154     0.739913869426    12.000000000000
         C           -6.134764964923    -0.680554007665     0.739733838560    12.000000000000
         H            5.835288573806     3.369275802771     0.743295213311     1.007825032230
         H            7.073859250737     1.228217156716     0.738950637233     1.007825032230
         H            4.600663342164     5.512380710270     0.739182857461     1.007825032230
         H            5.835283465295    -3.369306148912     0.735092572229     1.007825032230
         H           -0.000012073316     6.738530581953     0.735433337942     1.007825032230
         H            7.073861249820    -1.228227034927     0.739245576261     1.007825032230
         H            2.473313809789     6.740684199211     0.739499715428     1.007825032230
         H            4.600668569371    -5.512376221359     0.739718160074     1.007825032230
         H           -2.473318602548     6.740681627423     0.739801062053     1.007825032230
         H           -0.000010190238    -6.738528268635     0.743916763813     1.007825032230
         H           -5.835301836354     3.369270858113     0.743431235459     1.007825032230
         H            2.473308001821    -6.740685466612     0.739607886875     1.007825032230
         H           -4.600674763218     5.512377934420     0.739348185784     1.007825032230
         H           -5.835279428845    -3.369289055963     0.734813266349     1.007825032230
         H           -2.473300269450    -6.740679170323     0.739158570331     1.007825032230
         H           -7.073857688778     1.228220380657     0.738866645752     1.007825032230
         H           -4.600673708095    -5.512362761970     0.739545852052     1.007825032230
         H           -7.073856856419    -1.228220724160     0.739150719795     1.007825032230

  Charge       = 0
  Multiplicity = 1
  Basis Set: JUN-CC-PVDZ
    Blend: JUN-CC-PVDZ
  Basis Set: (JUN-CC-PVDZ AUX)
    Blend: JUN-CC-PVDZ-JKFIT

    Orbital Energies [Eh]
    ---------------------

    Doubly Occupied:

       1A    -11.260653     2A    -11.260209     3A    -11.260207
       4A    -11.259489     5A    -11.259488     6A    -11.259314
       7A    -11.259105     8A    -11.259029     9A    -11.259027
      10A    -11.258711    11A    -11.258708    12A    -11.258638
      13A    -11.258577    14A    -11.258571    15A    -11.258569
      16A    -11.258539    17A    -11.258534    18A    -11.258518
      19A    -11.258502    20A    -11.258497    21A    -11.258492
      22A    -11.258393    23A    -11.258390    24A    -11.258095
      25A    -11.257428    26A    -11.257365    27A    -11.257364
      28A    -11.257228    29A    -11.257228    30A    -11.257143
      31A    -11.256521    32A    -11.256450    33A    -11.256450
      34A    -11.256340    35A    -11.256339    36A    -11.256292
      37A    -11.252380    38A    -11.252380    39A    -11.252378
      40A    -11.252377    41A    -11.252375    42A    -11.252373
      43A    -11.251508    44A    -11.251505    45A    -11.251504
      46A    -11.251498    47A    -11.251498    48A    -11.251494
      49A    -11.250942    50A    -11.250941    51A    -11.250939
      52A    -11.250937    53A    -11.250936    54A    -11.250934
      55A     -1.244235    56A     -1.219974    57A     -1.219973
      58A     -1.189690    59A     -1.189683    60A     -1.181109
      61A     -1.157696    62A     -1.149125    63A     -1.135653
      64A     -1.135647    65A     -1.113329    66A     -1.113325
      67A     -1.082586    68A     -1.082579    69A     -1.078763
      70A     -1.066114    71A     -1.066110    72A     -1.039547
      73A     -1.024444    74A     -1.021935    75A     -1.021892
      76A     -1.017863    77A     -1.012923    78A     -0.987180
      79A     -0.987134    80A     -0.962018    81A     -0.961968
      82A     -0.894435    83A     -0.894409    84A     -0.888109
      85A     -0.886355    86A     -0.886297    87A     -0.881561
      88A     -0.881513    89A     -0.862041    90A     -0.837530
      91A     -0.818361    92A     -0.816780    93A     -0.812296
      94A     -0.812287    95A     -0.794825    96A     -0.794814
      97A     -0.746795    98A     -0.745018    99A     -0.733580
     100A     -0.733571   101A     -0.732323   102A     -0.732299
     103A     -0.716653   104A     -0.699117   105A     -0.699107
     106A     -0.693739   107A     -0.693723   108A     -0.661371
     109A     -0.653270   110A     -0.651327   111A     -0.650387
     112A     -0.650381   113A     -0.639502   114A     -0.639499
     115A     -0.629872   116A     -0.627683   117A     -0.627667
     118A     -0.606493   119A     -0.605915   120A     -0.601823
     121A     -0.599886   122A     -0.599855   123A     -0.593791
     124A     -0.591397   125A     -0.591386   126A     -0.585398
     127A     -0.576400   128A     -0.576394   129A     -0.567453
     130A     -0.567438   131A     -0.566114   132A     -0.566094
     133A     -0.558887   134A     -0.554987   135A     -0.554981
     136A     -0.538730   137A     -0.538728   138A     -0.538265
     139A     -0.538259   140A     -0.529863   141A     -0.528244
     142A     -0.523017   143A     -0.523010   144A     -0.500641
     145A     -0.495699   146A     -0.493377   147A     -0.487925
     148A     -0.485231   149A     -0.481910   150A     -0.481902
     151A     -0.470416   152A     -0.470398   153A     -0.451196
     154A     -0.451118   155A     -0.439168   156A     -0.439159
     157A     -0.404841   158A     -0.404818   159A     -0.403480
     160A     -0.375523   161A     -0.375521   162A     -0.349225
     163A     -0.337678   164A     -0.336659   165A     -0.336601
     166A     -0.311203   167A     -0.298194   168A     -0.284449
     169A     -0.284395   170A     -0.225026   171A     -0.224961

  @DF-RHF Final Energy: -2055.89201100017362

   => Energetics <=

    Nuclear Repulsion Energy =           6452.5568002797772351
    One-Electron Energy =              -15636.4379527312648861
    Two-Electron Energy =                7127.9891414513140262
    Total Energy =                      -2055.8920110001736248
 Dipole X            :          0.0000466            0.0000419            0.0000885
 Dipole Y            :          0.0000340           -0.0000426           -0.0000086
 Dipole Z            :       -477.8131206          477.8161958            0.0030752
 Magnitude           :                                                    0.0030764

    SAPT Results
  --------------------------------------------------------------------------------------------------------
    Electrostatics                  8.46943580 [mEh]       5.31465120 [kcal/mol]      22.23650064 [kJ/mol]
      Elst10,r                      8.46943580 [mEh]       5.31465120 [kcal/mol]      22.23650064 [kJ/mol]

    Exchange                        0.00066156 [mEh]       0.00041513 [kcal/mol]       0.00173692 [kJ/mol]
      Exch10                        0.00066156 [mEh]       0.00041513 [kcal/mol]       0.00173692 [kJ/mol]
      Exch10(S^2)                   0.00066157 [mEh]       0.00041514 [kcal/mol]       0.00173696 [kJ/mol]

    Induction                      -3.22482248 [mEh]      -2.02360666 [kcal/mol]      -8.46677026 [kJ/mol]
      Ind20,r                      -3.25556593 [mEh]      -2.04289847 [kcal/mol]      -8.54748718 [kJ/mol]
      Exch-Ind20,r                  0.00199854 [mEh]       0.00125410 [kcal/mol]       0.00524716 [kJ/mol]
      delta HF,r (2)                0.02874492 [mEh]       0.01803771 [kcal/mol]       0.07546977 [kJ/mol]

    Dispersion                     -0.69591110 [mEh]      -0.43669081 [kcal/mol]      -1.82711434 [kJ/mol]
      Disp20                       -0.69738432 [mEh]      -0.43761527 [kcal/mol]      -1.83098229 [kJ/mol]
      Exch-Disp20                   0.00147323 [mEh]       0.00092446 [kcal/mol]       0.00386795 [kJ/mol]
      Disp20 (SS)                  -0.34869216 [mEh]      -0.21880763 [kcal/mol]      -0.91549114 [kJ/mol]
      Disp20 (OS)                  -0.34869216 [mEh]      -0.21880763 [kcal/mol]      -0.91549114 [kJ/mol]
      Exch-Disp20 (SS)              0.00111899 [mEh]       0.00070218 [kcal/mol]       0.00293791 [kJ/mol]
      Exch-Disp20 (OS)              0.00035423 [mEh]       0.00022228 [kcal/mol]       0.00093004 [kJ/mol]

  Total HF                          5.24527488 [mEh]       3.29145968 [kcal/mol]      13.77146730 [kJ/mol]
  Total SAPT0                       4.54936378 [mEh]       2.85476887 [kcal/mol]      11.94435296 [kJ/mol]

  Special recipe for scaled SAPT0 (see Manual):
    Electrostatics sSAPT0           8.46943580 [mEh]       5.31465120 [kcal/mol]      22.23650064 [kJ/mol]
    Exchange sSAPT0                 0.00066156 [mEh]       0.00041513 [kcal/mol]       0.00173692 [kJ/mol]
    Induction sSAPT0               -3.22482248 [mEh]      -2.02360666 [kcal/mol]      -8.46677026 [kJ/mol]
    Dispersion sSAPT0              -0.69591110 [mEh]      -0.43669081 [kcal/mol]      -1.82711434 [kJ/mol]
  Total sSAPT0                      4.54936378 [mEh]       2.85476887 [kcal/mol]      11.94435296 [kJ/mol]
  --------------------------------------------------------------------------------------------------------

*** Psi4 exiting successfully. Buy a developer a beer!
