                               Psi4 1.9 release

  ==> Input File <==

--------------------------------------------------------------------------
memory 32 GB # how much memory is available ! Depends on the nodes/cores !

molecule dimer {
# monomer A
+1 1    # Charge and multiplicity
C  0.680067 -0.008042  -9.415929
C -0.680504 -0.006014  -9.415545
N -1.085635 -0.005016  -8.097221
C  0.000108 -0.001740  -7.315820
C -2.477365  0.044390  -7.629242
N  1.085222 -0.005016  -8.097221
H  1.385146 -0.015870 -10.233368
H -1.385302 -0.006204 -10.233214
H -0.000009  0.000007  -6.234731
C  2.478117 -0.021908  -7.632123
H  2.490592  0.005437  -6.541870
H  2.967028 -0.935354  -7.979299
H  3.001428  0.853575  -8.023595
H -2.857359  1.066461  -7.709201
H -3.082679 -0.625694  -8.242306
H -2.518128 -0.282594  -6.589294
--
# monomer B
0 1     # Charge and multiplicity
C   1.22531237526482      0.70753866091955      0.00613762728373
C   1.22532433589282     -0.70753852257020     -0.00619318228664
C   -0.00000567409046      1.41496628609039     -0.00672680580738
C   2.45644923379077      1.41832825917820      0.00902448468363
C   0.00001130712078     -1.41497612663474      0.00347275151708
C   -1.22530046906674      0.70754574598412      0.00838914760619
C   2.45643823516184     -1.41832293188077     -0.00843833914343
C   -0.00000085313587      2.83680140328112     -0.00913035594137
C   3.68182717731192      0.70931832800114     -0.00808954934571
C   2.45512052870677      2.83422403348893     -0.00819210630633
C   3.68182158506039     -0.70933346742900      0.00798293467272
C   -1.22531311884624     -0.70752714354401     -0.00512042085974
C   1.22670006104402      3.54346985599427      0.00816696660346
C   0.00000526469929     -2.83678176723568      0.00832091913869
C   -2.45643555300670      1.41831729028492      0.00842454345199
C   2.45512389762097     -2.83422965658853      0.00783102630520
C   -1.22671388474763      3.54346943575023      0.00827029982280
C   4.91451777504333      1.42717324448953     -0.00160886631602
C   3.69315067131765      3.54279566454522     -0.00155906667985
C   -2.45643712022637     -1.41831290883911     -0.00846337726810
C   1.22670532178455     -3.54347386990643     -0.00780316414624
C   -2.45512491866593      2.83421703463423     -0.00818572995999
C   4.91452486062398     -1.42718653794377      0.00136387641845
C   1.22142509354026      4.97013443726031      0.00150231067809
C   4.89300870916237      2.82518837202648     -0.00039219795739
C   -1.22669652864725     -3.54347062507680     -0.00753595973677
C   -3.68181849668397      0.70932533873199     -0.00807686886569
C   3.69314758099218     -3.54280096939050      0.00148176697923
C   -1.22143177215231      4.97012866986289      0.00168580605083
C   6.13477145276790      0.68054831910577     -0.00083909176631
C   3.65678936045204      4.97295361556775     -0.00065042889723
C   -2.45512642789169     -2.83421472106065      0.00758666850712
C   -3.68181869921921     -0.70932533146830      0.00810055625144
C   4.89301309775526     -2.82519973363176      0.00021895393805
C   -0.00000059327114      5.65044773803267      0.00045449734393
C   6.13477559217374     -0.68055448207492      0.00042622874941
C   2.47813196269732      5.65357712333155      0.00063835075260
C   1.22142288457925     -4.97012668293268     -0.00129718634452
C   -3.69316190412301      3.54279732619245     -0.00139355922051
C   -1.22142804110313     -4.97011793159564     -0.00140994817719
C   -4.91452132810043      1.42717581899491     -0.00153192130862
C   3.65678749952045     -4.97295485423912      0.00080007163680
C   -2.47813805026426      5.65357479452875      0.00092287576113
C   -3.69314125872231     -3.54278984697859      0.00136564082345
C   -4.91451200321153     -1.42718062802730      0.00139857359209
C   -0.00000552908399     -5.65043791501335      0.00005899322272
C   -4.89302000425900      2.82518897091939     -0.00040227981744
C   2.47812647313991     -5.65357317188818     -0.00029052915548
C   -3.65679823041642      4.97295655404175     -0.00047374852278
C   -4.89299899901461     -2.82519139505969      0.00006491824035
C   -2.47812801824129     -5.65356579800621     -0.00056571680280
C   -6.13477002348955      0.68054913825639     -0.00086464346868
C   -3.65678835334731     -4.97294365097028      0.00058578382008
C   -6.13476456307132     -0.68055354348201      0.00040575295444
H   5.83528897565761      3.36927626695423      0.00396712770529
H   7.07385965258860      1.22821762089947     -0.00037744837300
H   4.60066374401555      5.51238117445323     -0.00014522814529
H   5.83528386714679     -3.36930568472863     -0.00423551337640
H   -0.00001167146422      6.73853104613662     -0.00389474766392
H   7.07386165167227     -1.22822657074368     -0.00008250934481
H   2.47331421164041      6.74068466339473      0.00017162982210
H   4.60066897122302     -5.51237575717576      0.00039007446835
H   -2.47331820069565      6.74068209160650      0.00047297644710
H   -0.00000978838621     -6.73852780445195      0.00458867820736
H   -5.83530143450167      3.36927132229595      0.00410314985360
H   2.47330840367253     -6.74068500242887      0.00027980126949
H   -4.60067436136587      5.51237839860371      0.00002010017831
H   -5.83527902699321     -3.36928859177951     -0.00451481925734
H   -2.47329986759855     -6.74067870613986     -0.00016951527498
H   -7.07385728692578      1.22822084484047     -0.00046143985387
H   -4.60067330624313     -5.51236229778631      0.00021776644566
H   -7.07385645456741     -1.22822025997701     -0.00017736581114

    units angstrom      # Angstroms are the default
    no_reorient         # Geometry fixed, default
    symmetry c1         # C1 symmetry, default
}

set {
    scf_type DF         # Density fitting, faster than exact integrals
    freeze_core True    # Freeze core electrons
    basis jun-cc-pVDZ   # Jun-cc-pVDZ basis set, recommended for sSAPT0 in https://doi.org/10.1063/1.4867135
}

energy('ssapt0')        # Compute sSAPT0 energy, includes also SAPT0
--------------------------------------------------------------------------

  //              Dimer HF             //
    Molecular point group: c1
  Charge       = 1
  Multiplicity = 1
  Basis Set: JUN-CC-PVDZ
    Blend: JUN-CC-PVDZ
  Basis Set: (JUN-CC-PVDZ AUX)
    Blend: JUN-CC-PVDZ-JKFIT
  @DF-RHF Final Energy: -2359.19658963748725
    Total Energy =                      -2359.1965896374877047
 Dipole X            :         -0.0010868            0.0006313           -0.0004555
 Dipole Y            :         -0.0479249            0.0560211            0.0080961
 Dipole Z            :         28.5175816          -40.8571262          -12.3395447
 Magnitude           :                                                   12.3395473
  //            Monomer A HF           //
    Molecular point group: c1
  Multiplicity = 1
  Basis Set: JUN-CC-PVDZ
    Blend: JUN-CC-PVDZ
  Basis Set: (JUN-CC-PVDZ AUX)
    Blend: JUN-CC-PVDZ-JKFIT
  @DF-RHF Final Energy:  -303.29719190901051
    Total Energy =                       -303.2971919090105075
  //            Monomer B HF           //
    Molecular point group: c1

    Geometry (in Angstrom), charge = 0, multiplicity = 1:

       Center              X                  Y                   Z               Mass
    ------------   -----------------  -----------------  -----------------  -----------------
      Gh(C)           0.680066520158    -0.008042372515    -8.372941583557    12.000000000000
      Gh(C)          -0.680504479842    -0.006014372515    -8.372557583557    12.000000000000
      Gh(N)          -1.085635479842    -0.005016372515    -7.054233583557    14.003074004430
      Gh(C)           0.000107520158    -0.001740372515    -6.272832583557    12.000000000000
      Gh(C)          -2.477365479842     0.044389627485    -6.586254583557    12.000000000000
      Gh(N)           1.085221520158    -0.005016372515    -7.054233583557    14.003074004430
      Gh(H)           1.385145520158    -0.015870372515    -9.190380583557     1.007825032230
      Gh(H)          -1.385302479842    -0.006204372515    -9.190226583557     1.007825032230
      Gh(H)          -0.000009479842     0.000006627485    -5.191743583557     1.007825032230
      Gh(C)           2.478116520158    -0.021908372515    -6.589135583557    12.000000000000
      Gh(H)           2.490591520158     0.005436627485    -5.498882583557     1.007825032230
      Gh(H)           2.967027520158    -0.935354372515    -6.936311583557     1.007825032230
      Gh(H)           3.001427520158     0.853574627485    -6.980607583557     1.007825032230
      Gh(H)          -2.857359479842     1.066460627485    -6.666213583557     1.007825032230
      Gh(H)          -3.082679479842    -0.625694372515    -7.199318583557     1.007825032230
      Gh(H)          -2.518128479842    -0.282594372515    -5.546306583557     1.007825032230
         C            1.225311895423     0.707538288405     1.049125043726    12.000000000000
         C            1.225323856051    -0.707538895085     1.036794234156    12.000000000000
         C           -0.000006153932     1.414965913575     1.036260610635    12.000000000000
         C            2.456448753949     1.418327886663     1.052011901126    12.000000000000
         C            0.000010827279    -1.414976499150     1.046460167960    12.000000000000
         C           -1.225300948908     0.707545373469     1.051376564049    12.000000000000
         C            2.456437755320    -1.418323304396     1.034549077299    12.000000000000
         C           -0.000001332978     2.836801030766     1.033857060501    12.000000000000
         C            3.681826697470     0.709317955486     1.034897867097    12.000000000000
         C            2.455120048865     2.834223660974     1.034795310136    12.000000000000
         C            3.681821105219    -0.709333839944     1.050970351115    12.000000000000
         C           -1.225313598688    -0.707527516059     1.037866995583    12.000000000000
         C            1.226699581202     3.543469483479     1.051154383046    12.000000000000
         C            0.000004784858    -2.836782139751     1.051308335581    12.000000000000
         C           -2.456436032848     1.418316917770     1.051411959895    12.000000000000
         C            2.455123417779    -2.834230029103     1.050818442748    12.000000000000
         C           -1.226714364589     3.543469063235     1.051257716266    12.000000000000
         C            4.914517295202     1.427172871975     1.041378550127    12.000000000000
         C            3.693150191476     3.542795292030     1.041428349763    12.000000000000
         C           -2.456437600068    -1.418313281354     1.034524039175    12.000000000000
         C            1.226704841943    -3.543474242421     1.035184252297    12.000000000000
         C           -2.455125398508     2.834216662119     1.034801686483    12.000000000000
         C            4.914524380782    -1.427186910459     1.044351292861    12.000000000000
         C            1.221424613699     4.970134064745     1.044489727121    12.000000000000
         C            4.893008229321     2.825187999512     1.042595218485    12.000000000000
         C           -1.226697008489    -3.543470997592     1.035451456706    12.000000000000
         C           -3.681818976526     0.709324966217     1.034910547577    12.000000000000
         C            3.693147101150    -3.542801341905     1.044469183422    12.000000000000
         C           -1.221432251994     4.970128297348     1.044673222494    12.000000000000
         C            6.134770972926     0.680547946591     1.042148324676    12.000000000000
         C            3.656788880610     4.972953243053     1.042336987546    12.000000000000
         C           -2.455126907733    -2.834215093576     1.050574084950    12.000000000000
         C           -3.681819179061    -0.709325703983     1.051087972694    12.000000000000
         C            4.893012617914    -2.825200106147     1.043206370381    12.000000000000
         C           -0.000001073113     5.650447365518     1.043441913787    12.000000000000
         C            6.134775112332    -0.680554854590     1.043413645192    12.000000000000
         C            2.478131482856     5.653576750817     1.043625767195    12.000000000000
         C            1.221422404738    -4.970127055448     1.041690230098    12.000000000000
         C           -3.693162383965     3.542796953677     1.041593857222    12.000000000000
         C           -1.221428520945    -4.970118304111     1.041577468266    12.000000000000
         C           -4.914521807942     1.427175446480     1.041455495134    12.000000000000
         C            3.656787019679    -4.972955226754     1.043787488080    12.000000000000
         C           -2.478138530106     5.653574422014     1.043910292204    12.000000000000
         C           -3.693141738564    -3.542790219494     1.044353057266    12.000000000000
         C           -4.914512483053    -1.427181000542     1.044385990035    12.000000000000
         C           -0.000006008926    -5.650438287528     1.043046409665    12.000000000000
         C           -4.893020484101     2.825188598404     1.042585136625    12.000000000000
         C            2.478125993298    -5.653573544403     1.042696887287    12.000000000000
         C           -3.656798710258     4.972956181527     1.042513667920    12.000000000000
         C           -4.892999478856    -2.825191767575     1.043052334683    12.000000000000
         C           -2.478128498083    -5.653566170521     1.042421699640    12.000000000000
         C           -6.134770503331     0.680548765741     1.042122772974    12.000000000000
         C           -3.656788833189    -4.972944023485     1.043573200263    12.000000000000
         C           -6.134765042913    -0.680553915997     1.043393169397    12.000000000000
         H            5.835288495816     3.369275894439     1.046954544148     1.007825032230
         H            7.073859172747     1.228217248385     1.042609968070     1.007825032230
         H            4.600663264174     5.512380801938     1.042842188297     1.007825032230
         H            5.835283387305    -3.369306057244     1.038751903066     1.007825032230
         H           -0.000012151306     6.738530673622     1.039092668779     1.007825032230
         H            7.073861171831    -1.228226943259     1.042904907098     1.007825032230
         H            2.473313731799     6.740684290880     1.043159046265     1.007825032230
         H            4.600668491381    -5.512376129691     1.043377490911     1.007825032230
         H           -2.473318680537     6.740681719092     1.043460392890     1.007825032230
         H           -0.000010268228    -6.738528176967     1.047576094650     1.007825032230
         H           -5.835301914343     3.369270949781     1.047090566296     1.007825032230
         H            2.473307923831    -6.740685374944     1.043267217712     1.007825032230
         H           -4.600674841208     5.512378026089     1.043007516621     1.007825032230
         H           -5.835279506835    -3.369288964294     1.038472597185     1.007825032230
         H           -2.473300347440    -6.740679078655     1.042817901168     1.007825032230
         H           -7.073857766768     1.228220472326     1.042525976589     1.007825032230
         H           -4.600673786085    -5.512362670301     1.043205182888     1.007825032230
         H           -7.073856934409    -1.228220632492     1.042810050632     1.007825032230

  Charge       = 0
  Multiplicity = 1
  Basis Set: JUN-CC-PVDZ
    Blend: JUN-CC-PVDZ
  Basis Set: (JUN-CC-PVDZ AUX)
    Blend: JUN-CC-PVDZ-JKFIT

    Orbital Energies [Eh]
    ---------------------

    Doubly Occupied:

       1A    -11.260666     2A    -11.260223     3A    -11.260221
       4A    -11.259513     5A    -11.259512     6A    -11.259343
       7A    -11.259135     8A    -11.259057     9A    -11.259055
      10A    -11.258732    11A    -11.258728    12A    -11.258660
      13A    -11.258598    14A    -11.258593    15A    -11.258590
      16A    -11.258561    17A    -11.258555    18A    -11.258539
      19A    -11.258526    20A    -11.258520    21A    -11.258514
      22A    -11.258415    23A    -11.258412    24A    -11.258112
      25A    -11.257455    26A    -11.257393    27A    -11.257391
      28A    -11.257257    29A    -11.257257    30A    -11.257172
      31A    -11.256550    32A    -11.256479    33A    -11.256479
      34A    -11.256369    35A    -11.256369    36A    -11.256321
      37A    -11.252397    38A    -11.252397    39A    -11.252395
      40A    -11.252394    41A    -11.252391    42A    -11.252389
      43A    -11.251531    44A    -11.251528    45A    -11.251527
      46A    -11.251521    47A    -11.251520    48A    -11.251516
      49A    -11.250959    50A    -11.250958    51A    -11.250956
      52A    -11.250955    53A    -11.250952    54A    -11.250951
      55A     -1.244289    56A     -1.220010    57A     -1.220009
      58A     -1.189718    59A     -1.189711    60A     -1.181159
      61A     -1.157719    62A     -1.149150    63A     -1.135699
      64A     -1.135691    65A     -1.113352    66A     -1.113348
      67A     -1.082623    68A     -1.082616    69A     -1.078806
      70A     -1.066135    71A     -1.066131    72A     -1.039574
      73A     -1.024483    74A     -1.021986    75A     -1.021942
      76A     -1.017884    77A     -1.012946    78A     -0.987215
      79A     -0.987169    80A     -0.962045    81A     -0.961995
      82A     -0.894464    83A     -0.894437    84A     -0.888158
      85A     -0.886404    86A     -0.886348    87A     -0.881595
      88A     -0.881547    89A     -0.862069    90A     -0.837548
      91A     -0.818386    92A     -0.816825    93A     -0.812333
      94A     -0.812324    95A     -0.794851    96A     -0.794840
      97A     -0.746832    98A     -0.745059    99A     -0.733625
     100A     -0.733618   101A     -0.732349   102A     -0.732325
     103A     -0.716694   104A     -0.699146   105A     -0.699134
     106A     -0.693771   107A     -0.693754   108A     -0.661396
     109A     -0.653326   110A     -0.651372   111A     -0.650413
     112A     -0.650407   113A     -0.639526   114A     -0.639522
     115A     -0.629908   116A     -0.627719   117A     -0.627704
     118A     -0.606458   119A     -0.605932   120A     -0.601860
     121A     -0.599916   122A     -0.599882   123A     -0.593818
     124A     -0.591448   125A     -0.591435   126A     -0.585417
     127A     -0.576420   128A     -0.576412   129A     -0.567475
     130A     -0.567460   131A     -0.566159   132A     -0.566140
     133A     -0.558934   134A     -0.555018   135A     -0.555013
     136A     -0.538756   137A     -0.538754   138A     -0.538286
     139A     -0.538281   140A     -0.529891   141A     -0.528209
     142A     -0.523047   143A     -0.523039   144A     -0.500665
     145A     -0.495717   146A     -0.493403   147A     -0.487945
     148A     -0.485261   149A     -0.481942   150A     -0.481934
     151A     -0.470434   152A     -0.470420   153A     -0.451244
     154A     -0.451167   155A     -0.439186   156A     -0.439177
     157A     -0.404866   158A     -0.404843   159A     -0.403488
     160A     -0.375541   161A     -0.375538   162A     -0.349245
     163A     -0.337711   164A     -0.336678   165A     -0.336622
     166A     -0.311221   167A     -0.298208   168A     -0.284476
     169A     -0.284423   170A     -0.225045   171A     -0.224980

  @DF-RHF Final Energy: -2055.89170368300347

   => Energetics <=

    Nuclear Repulsion Energy =           6452.5568002797781446
    One-Electron Energy =              -15636.4279985631164891
    Two-Electron Energy =                7127.9794946003339646
    Total Energy =                      -2055.8917036830034704
 Dipole X            :          0.0001063           -0.0000085            0.0000978
 Dipole Y            :         -0.0000291            0.0000167           -0.0000125
 Dipole Z            :       -674.0651761          674.0670718            0.0018957
 Magnitude           :                                                    0.0018983

    SAPT Results
  --------------------------------------------------------------------------------------------------------
    Electrostatics                 -6.11055011 [mEh]      -3.83442809 [kcal/mol]     -16.04324711 [kJ/mol]
      Elst10,r                     -6.11055011 [mEh]      -3.83442809 [kcal/mol]     -16.04324711 [kJ/mol]

    Exchange                       -0.00017440 [mEh]      -0.00010944 [kcal/mol]      -0.00045788 [kJ/mol]
      Exch10                       -0.00017440 [mEh]      -0.00010944 [kcal/mol]      -0.00045788 [kJ/mol]
      Exch10(S^2)                  -0.00017440 [mEh]      -0.00010944 [kcal/mol]      -0.00045788 [kJ/mol]

    Induction                      -1.58332097 [mEh]      -0.99354891 [kcal/mol]      -4.15700862 [kJ/mol]
      Ind20,r                      -1.56150622 [mEh]      -0.97985995 [kcal/mol]      -4.09973402 [kJ/mol]
      Exch-Ind20,r                  0.00006635 [mEh]       0.00004164 [kcal/mol]       0.00017421 [kJ/mol]
      delta HF,r (2)               -0.02188109 [mEh]      -0.01373059 [kcal/mol]      -0.05744880 [kJ/mol]

    Dispersion                     -0.68313987 [mEh]      -0.42867674 [kcal/mol]      -1.79358348 [kJ/mol]
      Disp20                       -0.68317300 [mEh]      -0.42869753 [kcal/mol]      -1.79367046 [kJ/mol]
      Exch-Disp20                   0.00003313 [mEh]       0.00002079 [kcal/mol]       0.00008698 [kJ/mol]
      Disp20 (SS)                  -0.34158650 [mEh]      -0.21434876 [kcal/mol]      -0.89683523 [kJ/mol]
      Disp20 (OS)                  -0.34158650 [mEh]      -0.21434876 [kcal/mol]      -0.89683523 [kJ/mol]
      Exch-Disp20 (SS)              0.00002441 [mEh]       0.00001532 [kcal/mol]       0.00006408 [kJ/mol]
      Exch-Disp20 (OS)              0.00000872 [mEh]       0.00000547 [kcal/mol]       0.00002290 [kJ/mol]

  Total HF                         -7.69404547 [mEh]      -4.82808643 [kcal/mol]     -20.20071361 [kJ/mol]
  Total SAPT0                      -8.37718534 [mEh]      -5.25676317 [kcal/mol]     -21.99429709 [kJ/mol]

  Special recipe for scaled SAPT0 (see Manual):
    Electrostatics sSAPT0          -6.11055011 [mEh]      -3.83442809 [kcal/mol]     -16.04324711 [kJ/mol]
    Exchange sSAPT0                -0.00017440 [mEh]      -0.00010944 [kcal/mol]      -0.00045788 [kJ/mol]
    Induction sSAPT0               -1.58332097 [mEh]      -0.99354891 [kcal/mol]      -4.15700862 [kJ/mol]
    Dispersion sSAPT0              -0.68313987 [mEh]      -0.42867674 [kcal/mol]      -1.79358348 [kJ/mol]
  Total sSAPT0                     -8.37718534 [mEh]      -5.25676317 [kcal/mol]     -21.99429709 [kJ/mol]
  --------------------------------------------------------------------------------------------------------

*** Psi4 exiting successfully. Buy a developer a beer!
