                               Psi4 1.9 release

  ==> Input File <==

--------------------------------------------------------------------------
memory 80 GB # how much memory is available ! Depends on the nodes/cores !

molecule dimer {
# monomer A
+1 1    # Charge and multiplicity
C  0.680067 1.417258 -4.815929
C -0.680504 1.419286 -4.815545
N -1.085635 1.420284 -3.497221
C  0.000108 1.423560 -2.715820
C -2.477365 1.469690 -3.029242
N  1.085222 1.420284 -3.497221
H  1.385146 1.409430 -5.633368
H -1.385302 1.419096 -5.633214
H -0.000009 1.425307 -1.634731
C  2.478117 1.403392 -3.032123
H  2.490592 1.430737 -1.941870
H  2.967028 0.489946 -3.379299
H  3.001428 2.278875 -3.423595
H -2.857359 2.491761 -3.109201
H -3.082679 0.799606 -3.642306
H -2.518128 1.142706 -1.989294
--
# monomer B
0 1     # Charge and multiplicity
C   -3.66844126402057      7.80375217008252      0.00190004133558
C   -4.84759871934653      7.13124183134024     -0.00046653359696
C   -4.89495929917518      5.69633040353158     -0.00103944469517
C   -3.65374067877320      4.98073034095895      0.00662099703436
C   -2.40942512149445      7.11398103667468      0.00209438359570
C   -2.42547734410473      5.68112195090346     -0.00491050527438
C   -1.19474401643570      7.78614419430947      0.00356656413763
C   0.03795902893699      7.09942164575698      0.00139585983271
C   0.03033258741920      5.66948955970466     -0.00408752508301
C   -1.20098450790502      4.96927034791531      0.00488220885047
C   1.27795782581485      7.77285944319479      0.00277170839332
C   2.48535808472416      7.08769688523756      0.00049722048857
C   2.48612868491717      5.65477081024076     -0.00644052849921
C   1.25408291964399      4.95607811366431      0.00518741308898
C   3.75171459140595      7.76391215098033      0.00062407186893
C   4.92356605618520      7.07878077698995     -0.00143240883900
C   4.95560727132542      5.64344746336949     -0.00159282164606
C   3.70680153420475      4.94121020833308      0.00349873852374
H   -3.65852113775815      8.89082741913536      0.00358502958574
H   -1.18921332975660      8.87412108735996      0.00753844057883
H   1.28429423888630      8.86083343548850      0.00693053253426
H   3.75354208679975      8.85103527897216      0.00214659618464
H   5.86995870320703      7.61379483465560     -0.00235777588134
H   -5.78823170750226      7.67630221293400     -0.00202638095293
C   -6.09197395869619      4.99326001364347     -0.00291168518608
C   -6.12866148031747      3.58258016879823     -0.00171050815740
C   -3.66457974004527      3.56418217974434     -0.00463560277484
C   -4.89429820469869      2.86108077590057      0.00453338221034
C   -2.43733499489796      2.84761165708481      0.00719617576166
C   -1.20922785759670      3.54788693497833     -0.00648285103018
C   1.24714157216223      3.53468075142962     -0.00729145743546
C   0.01517603956900      2.83311183930540      0.00439272578912
C   2.46764517244071      2.82128997725533      0.00449278391269
C   3.70254947457969      3.52466015442405     -0.00899517692985
C   6.14498038638375      4.92757236613191     -0.00282626685777
C   6.16658835886151      3.51658447594213     -0.00065971342101
C   4.92460995845939      2.80840792535402      0.00587903281610
H   7.08990550964105      5.46688776622306     -0.00658814770723
H   -7.03104175110130      5.54268795285765     -0.00714490013730
C   -7.33969804112295      2.85841153457957     -0.00333767559888
C   -7.36488195805880      1.47032337158330     -0.00157213747140
C   -4.90350460894690      1.44442681216000     -0.00628840166334
C   -6.13225715261081      0.73993935705394      0.00600164231964
C   -3.67687480051673      0.72669714267312      0.00433931473643
C   -2.44565658606518      1.42964113326212     -0.00597039546461
C   -1.22360068130162      0.71532450163492      0.00545886906656
C   0.00763786931376      1.41738314923765      0.00392452278437
C   1.23121980774686      0.70211669058719     -0.01490206287210
C   2.46082110053113      1.40329203612573      0.00460244601878
C   3.68443025419614      0.68719842821222      0.00377365974158
C   4.91870890153864      1.39173456118907     -0.00862816189375
C   7.36980207796101      2.77948220318441     -0.00242013321349
C   7.38016266612146      1.39121750785509     -0.00087345036788
C   6.13979953912259      0.67411862320065      0.00545489144369
H   -8.27919079934664      3.40711804112415     -0.00763522772059
H   8.31511347147953      3.31811809662368     -0.00663070901292
C   -8.59175593758115      0.72483255304480     -0.00123170985383
C   -8.59902460370342     -0.63263980622873      0.00089141472904
C   -6.13981313911873     -0.67413663715361     -0.00609792660607
C   -7.38018411213749     -1.39126618958160      0.00131813493501
C   -4.91868448025621     -1.39175501803000      0.00624257154343
C   -3.68443829568458     -0.68723731573599     -0.00478966852105
C   -2.46081704024768     -1.40334517882457      0.00575341766833
C   -1.23116201232071     -0.70217386488055     -0.00636696112346
C   -0.00756962538737     -1.41741884941102      0.00108956317991
C   1.22364771588843     -0.71527537726392      0.01109518512883
C   2.44567064933149     -1.42964328900682     -0.00065482763106
C   3.67686670284649     -0.72670743155550     -0.00479541202602
C   6.13224884641929     -0.73997883984993     -0.00632338623858
C   4.90351914550401     -1.44445752054090      0.00751768830159
C   8.59901484869081      0.63260386666793     -0.00101133422380
C   8.59174548810050     -0.72485086719319      0.00072504603735
C   7.36486276438985     -1.47033266560598      0.00049486934466
H   -9.52830597181814      1.27684744919284     -0.00270163681798
H   9.54141097460619      1.17457248844457     -0.00206336648518
C   -7.36983790976868     -2.77954514593389      0.00312634335708
C   -4.92459910905015     -2.80843725734101     -0.00460528907921
C   -6.16662249566744     -3.51665219282533      0.00169655107992
C   -3.70251035970491     -3.52468154912026      0.00571878010666
C   -2.46764698511392     -2.82132596280400     -0.00632585824990
C   -0.01513347410770     -2.83314164539971     -0.00604426974092
C   -1.24712184122656     -3.53473217556300      0.00551968366725
C   1.20924506964357     -3.54791467864352      0.00805871345849
C   2.43733602215464     -2.84764173817541     -0.00608104485234
C   4.89430234377080     -2.86112296828604     -0.00526030478103
C   3.66461525504104     -3.56421984553201      0.00761911515957
C   6.12863901474565     -3.58258405771778      0.00096495711699
C   7.33967266469532     -2.85841330737039      0.00248018319869
H   -9.54144911125902     -1.17456346666430      0.00226083090216
H   9.52826186807155     -1.27691907390448      0.00197485379837
H   -8.31516504384864     -3.31814985321231      0.00729857188773
H   8.27915514249207     -3.40714078989363      0.00681973918158
C   -6.14499418870218     -4.92764727278338      0.00302254913999
C   -3.70678334799751     -4.94126171411716     -0.00679841894792
C   -4.95559005800169     -5.64349397349412      0.00116871569699
C   -2.48612132622665     -5.65478557440947      0.00614125209662
C   -1.25405833548005     -4.95612205000132     -0.00503435388927
C   1.20101257386816     -4.96928038819302     -0.00385322963129
C   -0.03033667441341     -5.66952030313900      0.00398997003238
C   3.65375010132847     -4.98074377541453     -0.00309522988330
C   2.42549269587528     -5.68117463552727      0.00628170066869
C   6.09196561781097     -4.99325796338655      0.00325918379042
C   4.89497644461045     -5.69634842095790      0.00202298796027
H   -7.08989238804069     -5.46699984223871      0.00742531082125
H   7.03105520920009     -5.54265853633254      0.00683896355417
C   -4.92354532219813     -7.07882109967734      0.00061394679214
C   -2.48534208823777     -7.08772807792913     -0.00189594564379
C   -3.75168589177895     -7.76394715763627     -0.00170126671874
C   -0.03794895698805     -7.09946487446944     -0.00168022049625
C   -1.27795610040136     -7.77290438466689     -0.00366491325785
C   2.40944432072629     -7.11402201200282     -0.00081701968533
C   1.19474993715296     -7.78618536556242     -0.00296931056689
C   4.84762105249800     -7.13126211057943      0.00168979497423
C   3.66847160587561     -7.80378799294376     -0.00065863938960
H   -5.86994035041618     -7.61383059804164      0.00215798365757
H   5.78824962538815     -7.67633218931421      0.00281691445618
H   -3.75352693944918     -8.85107156923607     -0.00353718114765
H   -1.28430440589466     -8.86087539249706     -0.00809229711623
H   1.18922157469537     -8.87416062058945     -0.00706194725726
H   3.65854661482387     -8.89086063405326     -0.00231318081200

    units angstrom      # Angstroms are the default
    no_reorient         # Geometry fixed, default
    symmetry c1         # C1 symmetry, default
}

set {
    scf_type DF         # Density fitting, faster than exact integrals
    freeze_core True    # Freeze core electrons
    basis jun-cc-pVDZ   # Jun-cc-pVDZ basis set, recommended for sSAPT0 in https://doi.org/10.1063/1.4867135
}

energy('ssapt0')        # Compute sSAPT0 energy, includes also SAPT0
--------------------------------------------------------------------------

  //              Dimer HF             //
    Molecular point group: c1
  Charge       = 1
  Multiplicity = 1
  Basis Set: JUN-CC-PVDZ
    Blend: JUN-CC-PVDZ
  Basis Set: (JUN-CC-PVDZ AUX)
    Blend: JUN-CC-PVDZ-JKFIT
  @DF-RHF Final Energy: -3953.59699036800475
    Total Energy =                      -3953.5969903680052084
 Dipole X            :         -0.0126503            0.0004804           -0.0121699
 Dipole Y            :         -7.4910242            8.7122315            1.2212073
 Dipole Z            :         16.3709723          -19.9773579           -3.6063856
 Magnitude           :                                                    3.8075599
  //            Monomer A HF           //
    Molecular point group: c1
  Multiplicity = 1
  Basis Set: JUN-CC-PVDZ
    Blend: JUN-CC-PVDZ
  Basis Set: (JUN-CC-PVDZ AUX)
    Blend: JUN-CC-PVDZ-JKFIT
  @DF-RHF Final Energy:  -303.29912420238520
    Total Energy =                       -303.2991242023852010
  //            Monomer B HF           //
    Molecular point group: c1

    Geometry (in Angstrom), charge = 0, multiplicity = 1:

       Center              X                  Y                   Z               Mass
    ------------   -----------------  -----------------  -----------------  -----------------
      Gh(C)           0.680062820275     1.308604348936    -4.541462585681    12.000000000000
      Gh(C)          -0.680508179725     1.310632348936    -4.541078585681    12.000000000000
      Gh(N)          -1.085639179725     1.311630348936    -3.222754585681    14.003074004430
      Gh(C)           0.000103820275     1.314906348936    -2.441353585681    12.000000000000
      Gh(C)          -2.477369179725     1.361036348936    -2.754775585681    12.000000000000
      Gh(N)           1.085217820275     1.311630348936    -3.222754585681    14.003074004430
      Gh(H)           1.385141820275     1.300776348936    -5.358901585681     1.007825032230
      Gh(H)          -1.385306179725     1.310442348936    -5.358747585681     1.007825032230
      Gh(H)          -0.000013179725     1.316653348936    -1.360264585681     1.007825032230
      Gh(C)           2.478112820275     1.294738348936    -2.757656585681    12.000000000000
      Gh(H)           2.490587820275     1.322083348936    -1.667403585681     1.007825032230
      Gh(H)           2.967023820275     0.381292348936    -3.104832585681     1.007825032230
      Gh(H)           3.001423820275     2.170221348936    -3.149128585681     1.007825032230
      Gh(H)          -2.857363179725     2.383107348936    -2.834734585681     1.007825032230
      Gh(H)          -3.082683179725     0.690952348936    -3.367839585681     1.007825032230
      Gh(H)          -2.518132179725     1.034052348936    -1.714827585681     1.007825032230
         C           -3.668445443746     7.695098519018     0.276366455654    12.000000000000
         C           -4.847602899072     7.022588180276     0.273999880722    12.000000000000
         C           -4.894963478901     5.587676752467     0.273426969624    12.000000000000
         C           -3.653744858499     4.872076689895     0.281087411353    12.000000000000
         C           -2.409429301220     7.005327385610     0.276560797914    12.000000000000
         C           -2.425481523830     5.572468299839     0.269555909044    12.000000000000
         C           -1.194748196161     7.677490543245     0.278032978456    12.000000000000
         C            0.037954849212     6.990767994693     0.275862274151    12.000000000000
         C            0.030328407694     5.560835908640     0.270378889236    12.000000000000
         C           -1.200988687630     4.860616696851     0.279348623169    12.000000000000
         C            1.277953646089     7.664205792130     0.277238122712    12.000000000000
         C            2.485353904999     6.979043234173     0.274963634807    12.000000000000
         C            2.486124505192     5.546117159176     0.268025885820    12.000000000000
         C            1.254078739919     4.847424462600     0.279653827408    12.000000000000
         C            3.751710411681     7.655258499916     0.275090486188    12.000000000000
         C            4.923561876460     6.970127125926     0.273034005480    12.000000000000
         C            4.955603091600     5.534793812305     0.272873592673    12.000000000000
         C            3.706797354479     4.832556557269     0.277965152843    12.000000000000
         H           -3.658525317484     8.782173768071     0.278051443905     1.007825032230
         H           -1.189217509482     8.765467436296     0.282004854898     1.007825032230
         H            1.284290059161     8.752179784424     0.281396946853     1.007825032230
         H            3.753537907074     8.742381627908     0.276613010503     1.007825032230
         H            5.869954523482     7.505141183591     0.272108638437     1.007825032230
         H           -5.788235887228     7.567648561870     0.272440033366     1.007825032230
         C           -6.091978138422     4.884606362579     0.271554729133    12.000000000000
         C           -6.128665660043     3.473926517734     0.272755906161    12.000000000000
         C           -3.664583919771     3.455528528680     0.269830811544    12.000000000000
         C           -4.894302384424     2.752427124836     0.278999796529    12.000000000000
         C           -2.437339174623     2.738958006020     0.281662590080    12.000000000000
         C           -1.209232037322     3.439233283914     0.267983563289    12.000000000000
         C            1.247137392437     3.426027100365     0.267174956883    12.000000000000
         C            0.015171859844     2.724458188241     0.278859140108    12.000000000000
         C            2.467640992715     2.712636326191     0.278959198231    12.000000000000
         C            3.702545294854     3.416006503360     0.265471237389    12.000000000000
         C            6.144976206658     4.818918715067     0.271640147461    12.000000000000
         C            6.166584179136     3.407930824878     0.273806700898    12.000000000000
         C            4.924605778734     2.699754274290     0.280345447135    12.000000000000
         H            7.089901329916     5.358234115159     0.267878266612     1.007825032230
         H           -7.031045930827     5.434034301793     0.267321514181     1.007825032230
         C           -7.339702220848     2.749757883515     0.271128738720    12.000000000000
         C           -7.364886137784     1.361669720519     0.272894276847    12.000000000000
         C           -4.903508788672     1.335773161096     0.268178012655    12.000000000000
         C           -6.132261332336     0.631285705989     0.280468056638    12.000000000000
         C           -3.676878980242     0.618043491609     0.278805729055    12.000000000000
         C           -2.445660765791     1.320987482198     0.268496018854    12.000000000000
         C           -1.223604861027     0.606670850570     0.279925283385    12.000000000000
         C            0.007633689588     1.308729498173     0.278390937103    12.000000000000
         C            1.231215628021     0.593463039523     0.259564351447    12.000000000000
         C            2.460816920806     1.294638385061     0.279068860338    12.000000000000
         C            3.684426074471     0.578544777148     0.278240074060    12.000000000000
         C            4.918704721813     1.283080910125     0.265838252425    12.000000000000
         C            7.369797898236     2.670828552120     0.272046281105    12.000000000000
         C            7.380158486396     1.282563856791     0.273592963951    12.000000000000
         C            6.139795359397     0.565464972136     0.279921305762    12.000000000000
         H           -8.279194979072     3.298464390060     0.266831186598     1.007825032230
         H            8.315109291754     3.209464445559     0.267835705306     1.007825032230
         C           -8.591760117307     0.616178901980     0.273234704465    12.000000000000
         C           -8.599028783429    -0.741293457293     0.275357829048    12.000000000000
         C           -6.139817318844    -0.782790288218     0.268368487713    12.000000000000
         C           -7.380188291863    -1.499919840646     0.275784549254    12.000000000000
         C           -4.918688659982    -1.500408669094     0.280708985862    12.000000000000
         C           -3.684442475410    -0.795890966800     0.269676745798    12.000000000000
         C           -2.460821219973    -1.511998829889     0.280219831987    12.000000000000
         C           -1.231166192046    -0.810827515945     0.268099453195    12.000000000000
         C           -0.007573805113    -1.526072500475     0.275555977499    12.000000000000
         C            1.223643536163    -0.823929028328     0.285561599448    12.000000000000
         C            2.445666469606    -1.538296940071     0.273811586688    12.000000000000
         C            3.676862523121    -0.835361082620     0.269671002293    12.000000000000
         C            6.132244666694    -0.848632490914     0.268143028080    12.000000000000
         C            4.903514965779    -1.553111171605     0.281984102620    12.000000000000
         C            8.599010668965     0.523950215603     0.273455080095    12.000000000000
         C            8.591741308375    -0.833504518258     0.275191460356    12.000000000000
         C            7.364858584664    -1.578986316670     0.274961283663    12.000000000000
         H           -9.528310151544     1.168193798128     0.271764777501     1.007825032230
         H            9.541406794881     1.065918837380     0.272403047834     1.007825032230
         C           -7.369842089494    -2.888198796998     0.277592757676    12.000000000000
         C           -4.924603288776    -2.917090908405     0.269861125240    12.000000000000
         C           -6.166626675393    -3.625305843890     0.276162965399    12.000000000000
         C           -3.702514539430    -3.633335200185     0.280185194425    12.000000000000
         C           -2.467651164839    -2.929979613868     0.268140556069    12.000000000000
         C           -0.015137653833    -2.941795296464     0.268422144578    12.000000000000
         C           -1.247126020952    -3.643385826627     0.279986097986    12.000000000000
         C            1.209240889918    -3.656568329708     0.282525127777    12.000000000000
         C            2.437331842429    -2.956295389240     0.268385369466    12.000000000000
         C            4.894298164045    -2.969776619350     0.269206109538    12.000000000000
         C            3.664611075316    -3.672873496596     0.282085529478    12.000000000000
         C            6.128634835020    -3.691237708782     0.275431371436    12.000000000000
         C            7.339668484970    -2.967066958435     0.276946597517    12.000000000000
         H           -9.541453290984    -1.283217117729     0.276727245221     1.007825032230
         H            9.528257688346    -1.385572724969     0.276441268117     1.007825032230
         H           -8.315169223574    -3.426803504277     0.281764986207     1.007825032230
         H            8.279150962767    -3.515794440958     0.281286153500     1.007825032230
         C           -6.144998368428    -5.036300923848     0.277488963459    12.000000000000
         C           -3.706787527723    -5.049915365182     0.267667995371    12.000000000000
         C           -4.955594237727    -5.752147624559     0.275635130016    12.000000000000
         C           -2.486125505952    -5.763439225474     0.280607666415    12.000000000000
         C           -1.254062515205    -5.064775701066     0.269432060430    12.000000000000
         C            1.201008394143    -5.077934039257     0.270613184687    12.000000000000
         C           -0.030340854139    -5.778173954203     0.278456384351    12.000000000000
         C            3.653745921603    -5.089397426479     0.271371184435    12.000000000000
         C            2.425488516150    -5.789828286592     0.280748114987    12.000000000000
         C            6.091961438086    -5.101911614451     0.277725598109    12.000000000000
         C            4.894972264885    -5.805002072022     0.276489402279    12.000000000000
         H           -7.089896567766    -5.575653493303     0.281891725140     1.007825032230
         H            7.031051029475    -5.651312187397     0.281305377873     1.007825032230
         C           -4.923549501924    -7.187474750742     0.275080361111    12.000000000000
         C           -2.485346267963    -7.196381728994     0.272570468675    12.000000000000
         C           -3.751690071504    -7.872600808701     0.272765147600    12.000000000000
         C           -0.037953136713    -7.208118525534     0.272786193823    12.000000000000
         C           -1.277960280127    -7.881558035731     0.270801501061    12.000000000000
         C            2.409440141001    -7.222675663067     0.273649394633    12.000000000000
         C            1.194745757428    -7.894839016627     0.271497103752    12.000000000000
         C            4.847616872773    -7.239915761644     0.276156209293    12.000000000000
         C            3.668467426150    -7.912441644008     0.273807774929    12.000000000000
         H           -5.869944530142    -7.722484249106     0.276624397976     1.007825032230
         H            5.788245445663    -7.784985840379     0.277283328775     1.007825032230
         H           -3.753531119175    -8.959725220301     0.270929233171     1.007825032230
         H           -1.284308585620    -8.969529043562     0.266374117203     1.007825032230
         H            1.189217394970    -8.982814271654     0.267404467062     1.007825032230
         H            3.658542435098    -8.999514285118     0.272153233507     1.007825032230

  Charge       = 0
  Multiplicity = 1
  Basis Set: JUN-CC-PVDZ
    Blend: JUN-CC-PVDZ
  Basis Set: (JUN-CC-PVDZ AUX)
    Blend: JUN-CC-PVDZ-JKFIT

    Orbital Energies [Eh]
    ---------------------

    Doubly Occupied:

       1A    -11.264054     2A    -11.263709     3A    -11.263615
       4A    -11.263391     5A    -11.263282     6A    -11.263207
       7A    -11.263071     8A    -11.263063     9A    -11.263026
      10A    -11.262864    11A    -11.262735    12A    -11.262694
      13A    -11.262252    14A    -11.262229    15A    -11.262168
      16A    -11.262150    17A    -11.262077    18A    -11.262068
      19A    -11.262014    20A    -11.261991    21A    -11.261947
      22A    -11.261849    23A    -11.261823    24A    -11.261689
      25A    -11.261678    26A    -11.261658    27A    -11.261649
      28A    -11.261603    29A    -11.261590    30A    -11.261518
      31A    -11.261505    32A    -11.261484    33A    -11.261466
      34A    -11.261453    35A    -11.261444    36A    -11.261428
      37A    -11.261272    38A    -11.261265    39A    -11.261246
      40A    -11.261242    41A    -11.261217    42A    -11.261212
      43A    -11.261203    44A    -11.261199    45A    -11.261191
      46A    -11.261182    47A    -11.261157    48A    -11.261143
      49A    -11.261007    50A    -11.260988    51A    -11.260978
      52A    -11.260911    53A    -11.260905    54A    -11.260818
      55A    -11.259853    56A    -11.259829    57A    -11.259810
      58A    -11.259797    59A    -11.259768    60A    -11.259735
      61A    -11.259224    62A    -11.259198    63A    -11.259187
      64A    -11.259141    65A    -11.259129    66A    -11.259089
      67A    -11.258852    68A    -11.258829    69A    -11.258808
      70A    -11.258797    71A    -11.258769    72A    -11.258736
      73A    -11.254481    74A    -11.254476    75A    -11.254444
      76A    -11.254443    77A    -11.254433    78A    -11.254432
      79A    -11.253607    80A    -11.253580    81A    -11.253580
      82A    -11.253549    83A    -11.253545    84A    -11.253524
      85A    -11.253522    86A    -11.253492    87A    -11.253492
      88A    -11.253463    89A    -11.253460    90A    -11.253439
      91A    -11.253009    92A    -11.253004    93A    -11.252971
      94A    -11.252971    95A    -11.252960    96A    -11.252960
      97A     -1.253778    98A     -1.238856    99A     -1.238836
     100A     -1.220330   101A     -1.220324   102A     -1.215287
     103A     -1.200921   104A     -1.195477   105A     -1.187999
     106A     -1.187982   107A     -1.173648   108A     -1.173645
     109A     -1.155482   110A     -1.155475   111A     -1.152564
     112A     -1.144611   113A     -1.144606   114A     -1.128427
     115A     -1.114568   116A     -1.113050   117A     -1.112340
     118A     -1.112314   119A     -1.111511   120A     -1.088293
     121A     -1.088276   122A     -1.076853   123A     -1.076851
     124A     -1.067475   125A     -1.067437   126A     -1.064821
     127A     -1.046670   128A     -1.046662   129A     -1.040344
     130A     -1.038628   131A     -1.038623   132A     -1.025089
     133A     -1.021220   134A     -1.021162   135A     -1.007054
     136A     -1.006665   137A     -1.003669   138A     -1.000346
     139A     -1.000291   140A     -0.990973   141A     -0.970849
     142A     -0.970797   143A     -0.955767   144A     -0.955709
     145A     -0.905449   146A     -0.905422   147A     -0.905397
     148A     -0.905385   149A     -0.904158   150A     -0.892197
     151A     -0.892137   152A     -0.890201   153A     -0.890154
     154A     -0.889298   155A     -0.872104   156A     -0.868964
     157A     -0.851413   158A     -0.847708   159A     -0.847692
     160A     -0.845439   161A     -0.842865   162A     -0.834423
     163A     -0.834411   164A     -0.828011   165A     -0.828004
     166A     -0.784423   167A     -0.784414   168A     -0.783513
     169A     -0.783505   170A     -0.782151   171A     -0.782124
     172A     -0.781871   173A     -0.766848   174A     -0.760629
     175A     -0.750421   176A     -0.733371   177A     -0.726939
     178A     -0.726907   179A     -0.724934   180A     -0.724406
     181A     -0.724374   182A     -0.718331   183A     -0.713615
     184A     -0.713612   185A     -0.699448   186A     -0.699427
     187A     -0.685965   188A     -0.685831   189A     -0.685822
     190A     -0.682036   191A     -0.682030   192A     -0.678641
     193A     -0.653498   194A     -0.650738   195A     -0.650705
     196A     -0.649650   197A     -0.649648   198A     -0.649441
     199A     -0.640779   200A     -0.640735   201A     -0.639953
     202A     -0.639038   203A     -0.635878   204A     -0.635843
     205A     -0.628997   206A     -0.617719   207A     -0.615184
     208A     -0.615159   209A     -0.608666   210A     -0.608659
     211A     -0.599144   212A     -0.599065   213A     -0.598602
     214A     -0.598442   215A     -0.598427   216A     -0.597879
     217A     -0.594941   218A     -0.594927   219A     -0.594585
     220A     -0.594053   221A     -0.591810   222A     -0.591807
     223A     -0.587223   224A     -0.577693   225A     -0.577676
     226A     -0.575661   227A     -0.575642   228A     -0.573244
     229A     -0.569533   230A     -0.567989   231A     -0.567962
     232A     -0.566609   233A     -0.566602   234A     -0.560807
     235A     -0.558574   236A     -0.558536   237A     -0.558317
     238A     -0.554225   239A     -0.550518   240A     -0.547370
     241A     -0.544217   242A     -0.534961   243A     -0.534945
     244A     -0.533404   245A     -0.533389   246A     -0.527952
     247A     -0.527933   248A     -0.527625   249A     -0.517018
     250A     -0.516990   251A     -0.515292   252A     -0.515279
     253A     -0.509513   254A     -0.509501   255A     -0.497883
     256A     -0.496314   257A     -0.496274   258A     -0.493723
     259A     -0.493709   260A     -0.489361   261A     -0.481322
     262A     -0.477338   263A     -0.477337   264A     -0.473858
     265A     -0.469276   266A     -0.466369   267A     -0.466368
     268A     -0.458726   269A     -0.446502   270A     -0.446449
     271A     -0.440945   272A     -0.440692   273A     -0.440661
     274A     -0.434605   275A     -0.433820   276A     -0.407313
     277A     -0.407258   278A     -0.386308   279A     -0.386267
     280A     -0.385644   281A     -0.385643   282A     -0.383661
     283A     -0.354226   284A     -0.354214   285A     -0.350563
     286A     -0.337977   287A     -0.335467   288A     -0.335414
     289A     -0.332623   290A     -0.332619   291A     -0.306963
     292A     -0.301831   293A     -0.301767   294A     -0.300749
     295A     -0.286058   296A     -0.256396   297A     -0.253367
     298A     -0.253326   299A     -0.204147   300A     -0.204066

  @DF-RHF Final Energy: -3650.34257151554129

   => Energetics <=

    Nuclear Repulsion Energy =          15611.4211649754306563
    One-Electron Energy =              -36072.2162451050680829
    Two-Electron Energy =               16810.4525086140965868
    Total Energy =                      -3650.3425715155426587
 Dipole X            :          0.0002333            0.0002112            0.0004445
 Dipole Y            :        123.2193022         -123.2131634            0.0061388
 Dipole Z            :       -311.2016025          311.2032041            0.0016017
 Magnitude           :                                                    0.0063599

    SAPT Results
  --------------------------------------------------------------------------------------------------------
    Electrostatics                -50.58443563 [mEh]     -31.74221259 [kcal/mol]    -132.80941746 [kJ/mol]
      Elst10,r                    -50.58443563 [mEh]     -31.74221259 [kcal/mol]    -132.80941746 [kJ/mol]

    Exchange                      147.42364073 [mEh]      92.50973122 [kcal/mol]     387.06071541 [kJ/mol]
      Exch10                      147.42364073 [mEh]      92.50973122 [kcal/mol]     387.06071541 [kJ/mol]
      Exch10(S^2)                 142.10397852 [mEh]      89.17159278 [kcal/mol]     373.09394420 [kJ/mol]

    Induction                     -52.13385517 [mEh]     -32.71448802 [kcal/mol]    -136.87741790 [kJ/mol]
      Ind20,r                     -80.39241120 [mEh]     -50.44699965 [kcal/mol]    -211.07024654 [kJ/mol]
      Exch-Ind20,r                 46.13259356 [mEh]      28.94863951 [kcal/mol]     121.12110771 [kJ/mol]
      delta HF,r (2)              -17.87403753 [mEh]     -11.21612788 [kcal/mol]     -46.92827907 [kJ/mol]

    Dispersion                    -58.50917116 [mEh]     -36.71505920 [kcal/mol]    -153.61580771 [kJ/mol]
      Disp20                      -66.49739161 [mEh]     -41.72774322 [kcal/mol]    -174.58887762 [kJ/mol]
      Exch-Disp20                   7.98822045 [mEh]       5.01268401 [kcal/mol]      20.97306991 [kJ/mol]
      Disp20 (SS)                 -33.24869581 [mEh]     -20.86387161 [kcal/mol]     -87.29443881 [kJ/mol]
      Disp20 (OS)                 -33.24869581 [mEh]     -20.86387161 [kcal/mol]     -87.29443881 [kJ/mol]
      Exch-Disp20 (SS)              4.97399069 [mEh]       3.12122628 [kcal/mol]      13.05921075 [kJ/mol]
      Exch-Disp20 (OS)              3.01422977 [mEh]       1.89145774 [kcal/mol]       7.91385916 [kJ/mol]

  Total HF                         44.70534992 [mEh]      28.05303060 [kcal/mol]     117.37388005 [kJ/mol]
  Total SAPT0                     -13.80382124 [mEh]      -8.66202860 [kcal/mol]     -36.24192766 [kJ/mol]

  Special recipe for scaled SAPT0 (see Manual):
    Electrostatics sSAPT0         -50.58443563 [mEh]     -31.74221259 [kcal/mol]    -132.80941746 [kJ/mol]
    Exchange sSAPT0               147.42364073 [mEh]      92.50973122 [kcal/mol]     387.06071541 [kJ/mol]
    Induction sSAPT0              -46.75656657 [mEh]     -29.34018848 [kcal/mol]    -122.75934862 [kJ/mol]
    Dispersion sSAPT0             -57.57805146 [mEh]     -36.13077277 [kcal/mol]    -151.17115327 [kJ/mol]
  Total sSAPT0                     -7.49541293 [mEh]      -4.70344262 [kcal/mol]     -19.67920394 [kJ/mol]
  --------------------------------------------------------------------------------------------------------

*** Psi4 exiting successfully. Buy a developer a beer!
