                               Psi4 1.9 release

  ==> Input File <==

--------------------------------------------------------------------------
memory 32 GB # how much memory is available ! Depends on the nodes/cores !

molecule dimer {
# monomer A
+1 1    # Charge and multiplicity
C  0.680067 -0.008042 -7.415929
C -0.680504 -0.006014 -7.415545
N -1.085635 -0.005016 -6.097221
C  0.000108 -0.001740 -5.315820
C -2.477365  0.044390 -5.629242
N  1.085222 -0.005016 -6.097221
H  1.385146 -0.015870 -8.233368
H -1.385302 -0.006204 -8.233214
H -0.000009  0.000007 -4.234731
C  2.478117 -0.021908 -5.632123
H  2.490592  0.005437 -4.541870
H  2.967028 -0.935354 -5.979299
H  3.001428  0.853575 -6.023595
H -2.857359  1.066461 -5.709201
H -3.082679 -0.625694 -6.242306
H -2.518128 -0.282594 -4.589294
--
# monomer B
0 1     # Charge and multiplicity
C   1.22531237526482      0.70753866091955      0.00613762728373
C   1.22532433589282     -0.70753852257020     -0.00619318228664
C   -0.00000567409046      1.41496628609039     -0.00672680580738
C   2.45644923379077      1.41832825917820      0.00902448468363
C   0.00001130712078     -1.41497612663474      0.00347275151708
C   -1.22530046906674      0.70754574598412      0.00838914760619
C   2.45643823516184     -1.41832293188077     -0.00843833914343
C   -0.00000085313587      2.83680140328112     -0.00913035594137
C   3.68182717731192      0.70931832800114     -0.00808954934571
C   2.45512052870677      2.83422403348893     -0.00819210630633
C   3.68182158506039     -0.70933346742900      0.00798293467272
C   -1.22531311884624     -0.70752714354401     -0.00512042085974
C   1.22670006104402      3.54346985599427      0.00816696660346
C   0.00000526469929     -2.83678176723568      0.00832091913869
C   -2.45643555300670      1.41831729028492      0.00842454345199
C   2.45512389762097     -2.83422965658853      0.00783102630520
C   -1.22671388474763      3.54346943575023      0.00827029982280
C   4.91451777504333      1.42717324448953     -0.00160886631602
C   3.69315067131765      3.54279566454522     -0.00155906667985
C   -2.45643712022637     -1.41831290883911     -0.00846337726810
C   1.22670532178455     -3.54347386990643     -0.00780316414624
C   -2.45512491866593      2.83421703463423     -0.00818572995999
C   4.91452486062398     -1.42718653794377      0.00136387641845
C   1.22142509354026      4.97013443726031      0.00150231067809
C   4.89300870916237      2.82518837202648     -0.00039219795739
C   -1.22669652864725     -3.54347062507680     -0.00753595973677
C   -3.68181849668397      0.70932533873199     -0.00807686886569
C   3.69314758099218     -3.54280096939050      0.00148176697923
C   -1.22143177215231      4.97012866986289      0.00168580605083
C   6.13477145276790      0.68054831910577     -0.00083909176631
C   3.65678936045204      4.97295361556775     -0.00065042889723
C   -2.45512642789169     -2.83421472106065      0.00758666850712
C   -3.68181869921921     -0.70932533146830      0.00810055625144
C   4.89301309775526     -2.82519973363176      0.00021895393805
C   -0.00000059327114      5.65044773803267      0.00045449734393
C   6.13477559217374     -0.68055448207492      0.00042622874941
C   2.47813196269732      5.65357712333155      0.00063835075260
C   1.22142288457925     -4.97012668293268     -0.00129718634452
C   -3.69316190412301      3.54279732619245     -0.00139355922051
C   -1.22142804110313     -4.97011793159564     -0.00140994817719
C   -4.91452132810043      1.42717581899491     -0.00153192130862
C   3.65678749952045     -4.97295485423912      0.00080007163680
C   -2.47813805026426      5.65357479452875      0.00092287576113
C   -3.69314125872231     -3.54278984697859      0.00136564082345
C   -4.91451200321153     -1.42718062802730      0.00139857359209
C   -0.00000552908399     -5.65043791501335      0.00005899322272
C   -4.89302000425900      2.82518897091939     -0.00040227981744
C   2.47812647313991     -5.65357317188818     -0.00029052915548
C   -3.65679823041642      4.97295655404175     -0.00047374852278
C   -4.89299899901461     -2.82519139505969      0.00006491824035
C   -2.47812801824129     -5.65356579800621     -0.00056571680280
C   -6.13477002348955      0.68054913825639     -0.00086464346868
C   -3.65678835334731     -4.97294365097028      0.00058578382008
C   -6.13476456307132     -0.68055354348201      0.00040575295444
H   5.83528897565761      3.36927626695423      0.00396712770529
H   7.07385965258860      1.22821762089947     -0.00037744837300
H   4.60066374401555      5.51238117445323     -0.00014522814529
H   5.83528386714679     -3.36930568472863     -0.00423551337640
H   -0.00001167146422      6.73853104613662     -0.00389474766392
H   7.07386165167227     -1.22822657074368     -0.00008250934481
H   2.47331421164041      6.74068466339473      0.00017162982210
H   4.60066897122302     -5.51237575717576      0.00039007446835
H   -2.47331820069565      6.74068209160650      0.00047297644710
H   -0.00000978838621     -6.73852780445195      0.00458867820736
H   -5.83530143450167      3.36927132229595      0.00410314985360
H   2.47330840367253     -6.74068500242887      0.00027980126949
H   -4.60067436136587      5.51237839860371      0.00002010017831
H   -5.83527902699321     -3.36928859177951     -0.00451481925734
H   -2.47329986759855     -6.74067870613986     -0.00016951527498
H   -7.07385728692578      1.22822084484047     -0.00046143985387
H   -4.60067330624313     -5.51236229778631      0.00021776644566
H   -7.07385645456741     -1.22822025997701     -0.00017736581114

    units angstrom      # Angstroms are the default
    no_reorient         # Geometry fixed, default
    symmetry c1         # C1 symmetry, default
}

set {
    scf_type DF         # Density fitting, faster than exact integrals
    freeze_core True    # Freeze core electrons
    basis jun-cc-pVDZ   # Jun-cc-pVDZ basis set, recommended for sSAPT0 in https://doi.org/10.1063/1.4867135
}

energy('ssapt0')        # Compute sSAPT0 energy, includes also SAPT0
--------------------------------------------------------------------------

  //              Dimer HF             //
    Molecular point group: c1
  Charge       = 1
  Multiplicity = 1
  Basis Set: JUN-CC-PVDZ
    Blend: JUN-CC-PVDZ
  Basis Set: (JUN-CC-PVDZ AUX)
    Blend: JUN-CC-PVDZ-JKFIT
  @DF-RHF Final Energy: -2359.20345675384851
    Total Energy =                      -2359.2034567538485135
 Dipole X            :         -0.0014249            0.0006313           -0.0007936
 Dipole Y            :         -0.0485697            0.0560211            0.0074514
 Dipole Z            :         21.7283167          -30.4317957           -8.7034789
 Magnitude           :                                                    8.7034821
  //            Monomer A HF           //
    Molecular point group: c1
  Multiplicity = 1
  Basis Set: JUN-CC-PVDZ
    Blend: JUN-CC-PVDZ
  Basis Set: (JUN-CC-PVDZ AUX)
    Blend: JUN-CC-PVDZ-JKFIT
  @DF-RHF Final Energy:  -303.29738720413837
    Total Energy =                       -303.2973872041383743
  //            Monomer B HF           //
    Molecular point group: c1

    Geometry (in Angstrom), charge = 0, multiplicity = 1:

       Center              X                  Y                   Z               Mass
    ------------   -----------------  -----------------  -----------------  -----------------
      Gh(C)           0.680066520158    -0.008042372515    -6.627329311776    12.000000000000
      Gh(C)          -0.680504479842    -0.006014372515    -6.626945311776    12.000000000000
      Gh(N)          -1.085635479842    -0.005016372515    -5.308621311776    14.003074004430
      Gh(C)           0.000107520158    -0.001740372515    -4.527220311776    12.000000000000
      Gh(C)          -2.477365479842     0.044389627485    -4.840642311776    12.000000000000
      Gh(N)           1.085221520158    -0.005016372515    -5.308621311776    14.003074004430
      Gh(H)           1.385145520158    -0.015870372515    -7.444768311776     1.007825032230
      Gh(H)          -1.385302479842    -0.006204372515    -7.444614311776     1.007825032230
      Gh(H)          -0.000009479842     0.000006627485    -3.446131311776     1.007825032230
      Gh(C)           2.478116520158    -0.021908372515    -4.843523311776    12.000000000000
      Gh(H)           2.490591520158     0.005436627485    -3.753270311776     1.007825032230
      Gh(H)           2.967027520158    -0.935354372515    -5.190699311776     1.007825032230
      Gh(H)           3.001427520158     0.853574627485    -5.234995311776     1.007825032230
      Gh(H)          -2.857359479842     1.066460627485    -4.920601311776     1.007825032230
      Gh(H)          -3.082679479842    -0.625694372515    -5.453706311776     1.007825032230
      Gh(H)          -2.518128479842    -0.282594372515    -3.800694311776     1.007825032230
         C            1.225311895423     0.707538288405     0.794737315507    12.000000000000
         C            1.225323856051    -0.707538895085     0.782406505937    12.000000000000
         C           -0.000006153932     1.414965913575     0.781872882416    12.000000000000
         C            2.456448753949     1.418327886663     0.797624172907    12.000000000000
         C            0.000010827279    -1.414976499150     0.792072439741    12.000000000000
         C           -1.225300948908     0.707545373469     0.796988835830    12.000000000000
         C            2.456437755320    -1.418323304396     0.780161349080    12.000000000000
         C           -0.000001332978     2.836801030766     0.779469332282    12.000000000000
         C            3.681826697470     0.709317955486     0.780510138878    12.000000000000
         C            2.455120048865     2.834223660974     0.780407581917    12.000000000000
         C            3.681821105219    -0.709333839944     0.796582622896    12.000000000000
         C           -1.225313598688    -0.707527516059     0.783479267364    12.000000000000
         C            1.226699581202     3.543469483479     0.796766654827    12.000000000000
         C            0.000004784858    -2.836782139751     0.796920607362    12.000000000000
         C           -2.456436032848     1.418316917770     0.797024231676    12.000000000000
         C            2.455123417779    -2.834230029103     0.796430714529    12.000000000000
         C           -1.226714364589     3.543469063235     0.796869988046    12.000000000000
         C            4.914517295202     1.427172871975     0.786990821908    12.000000000000
         C            3.693150191476     3.542795292030     0.787040621544    12.000000000000
         C           -2.456437600068    -1.418313281354     0.780136310956    12.000000000000
         C            1.226704841943    -3.543474242421     0.780796524077    12.000000000000
         C           -2.455125398508     2.834216662119     0.780413958264    12.000000000000
         C            4.914524380782    -1.427186910459     0.789963564642    12.000000000000
         C            1.221424613699     4.970134064745     0.790101998902    12.000000000000
         C            4.893008229321     2.825187999512     0.788207490266    12.000000000000
         C           -1.226697008489    -3.543470997592     0.781063728487    12.000000000000
         C           -3.681818976526     0.709324966217     0.780522819358    12.000000000000
         C            3.693147101150    -3.542801341905     0.790081455203    12.000000000000
         C           -1.221432251994     4.970128297348     0.790285494274    12.000000000000
         C            6.134770972926     0.680547946591     0.787760596457    12.000000000000
         C            3.656788880610     4.972953243053     0.787949259326    12.000000000000
         C           -2.455126907733    -2.834215093576     0.796186356731    12.000000000000
         C           -3.681819179061    -0.709325703983     0.796700244475    12.000000000000
         C            4.893012617914    -2.825200106147     0.788818642162    12.000000000000
         C           -0.000001073113     5.650447365518     0.789054185568    12.000000000000
         C            6.134775112332    -0.680554854590     0.789025916973    12.000000000000
         C            2.478131482856     5.653576750817     0.789238038976    12.000000000000
         C            1.221422404738    -4.970127055448     0.787302501879    12.000000000000
         C           -3.693162383965     3.542796953677     0.787206129003    12.000000000000
         C           -1.221428520945    -4.970118304111     0.787189740046    12.000000000000
         C           -4.914521807942     1.427175446480     0.787067766915    12.000000000000
         C            3.656787019679    -4.972955226754     0.789399759860    12.000000000000
         C           -2.478138530106     5.653574422014     0.789522563985    12.000000000000
         C           -3.693141738564    -3.542790219494     0.789965329047    12.000000000000
         C           -4.914512483053    -1.427181000542     0.789998261816    12.000000000000
         C           -0.000006008926    -5.650438287528     0.788658681446    12.000000000000
         C           -4.893020484101     2.825188598404     0.788197408406    12.000000000000
         C            2.478125993298    -5.653573544403     0.788309159068    12.000000000000
         C           -3.656798710258     4.972956181527     0.788125939701    12.000000000000
         C           -4.892999478856    -2.825191767575     0.788664606464    12.000000000000
         C           -2.478128498083    -5.653566170521     0.788033971421    12.000000000000
         C           -6.134770503331     0.680548765741     0.787735044755    12.000000000000
         C           -3.656788833189    -4.972944023485     0.789185472044    12.000000000000
         C           -6.134765042913    -0.680553915997     0.789005441178    12.000000000000
         H            5.835288495816     3.369275894439     0.792566815929     1.007825032230
         H            7.073859172747     1.228217248385     0.788222239851     1.007825032230
         H            4.600663264174     5.512380801938     0.788454460078     1.007825032230
         H            5.835283387305    -3.369306057244     0.784364174847     1.007825032230
         H           -0.000012151306     6.738530673622     0.784704940560     1.007825032230
         H            7.073861171831    -1.228226943259     0.788517178879     1.007825032230
         H            2.473313731799     6.740684290880     0.788771318046     1.007825032230
         H            4.600668491381    -5.512376129691     0.788989762692     1.007825032230
         H           -2.473318680537     6.740681719092     0.789072664671     1.007825032230
         H           -0.000010268228    -6.738528176967     0.793188366431     1.007825032230
         H           -5.835301914343     3.369270949781     0.792702838077     1.007825032230
         H            2.473307923831    -6.740685374944     0.788879489493     1.007825032230
         H           -4.600674841208     5.512378026089     0.788619788402     1.007825032230
         H           -5.835279506835    -3.369288964294     0.784084868966     1.007825032230
         H           -2.473300347440    -6.740679078655     0.788430172949     1.007825032230
         H           -7.073857766768     1.228220472326     0.788138248370     1.007825032230
         H           -4.600673786085    -5.512362670301     0.788817454669     1.007825032230
         H           -7.073856934409    -1.228220632492     0.788422322412     1.007825032230

  Charge       = 0
  Multiplicity = 1
  Basis Set: JUN-CC-PVDZ
    Blend: JUN-CC-PVDZ
  Basis Set: (JUN-CC-PVDZ AUX)
    Blend: JUN-CC-PVDZ-JKFIT

    Orbital Energies [Eh]
    ---------------------

    Doubly Occupied:

       1A    -11.260608     2A    -11.260166     3A    -11.260160
       4A    -11.259448     5A    -11.259444     6A    -11.259273
       7A    -11.259061     8A    -11.258984     9A    -11.258982
      10A    -11.258661    11A    -11.258656    12A    -11.258584
      13A    -11.258523    14A    -11.258517    15A    -11.258515
      16A    -11.258486    17A    -11.258478    18A    -11.258462
      19A    -11.258451    20A    -11.258445    21A    -11.258439
      22A    -11.258347    23A    -11.258341    24A    -11.258050
      25A    -11.257377    26A    -11.257315    27A    -11.257313
      28A    -11.257180    29A    -11.257178    30A    -11.257094
      31A    -11.256471    32A    -11.256402    33A    -11.256398
      34A    -11.256292    35A    -11.256289    36A    -11.256243
      37A    -11.252333    38A    -11.252333    39A    -11.252330
      40A    -11.252330    41A    -11.252321    42A    -11.252319
      43A    -11.251453    44A    -11.251451    45A    -11.251448
      46A    -11.251444    47A    -11.251441    48A    -11.251438
      49A    -11.250895    50A    -11.250894    51A    -11.250892
      52A    -11.250891    53A    -11.250882    54A    -11.250881
      55A     -1.244155    56A     -1.219899    57A     -1.219888
      58A     -1.189616    59A     -1.189604    60A     -1.181036
      61A     -1.157626    62A     -1.149048    63A     -1.135581
      64A     -1.135567    65A     -1.113256    66A     -1.113253
      67A     -1.082508    68A     -1.082501    69A     -1.078687
      70A     -1.066044    71A     -1.066038    72A     -1.039467
      73A     -1.024357    74A     -1.021860    75A     -1.021808
      76A     -1.017789    77A     -1.012857    78A     -0.987100
      79A     -0.987049    80A     -0.961947    81A     -0.961895
      82A     -0.894359    83A     -0.894334    84A     -0.888023
      85A     -0.886270    86A     -0.886218    87A     -0.881473
      88A     -0.881427    89A     -0.861966    90A     -0.837466
      91A     -0.818277    92A     -0.816697    93A     -0.812211
      94A     -0.812207    95A     -0.794754    96A     -0.794742
      97A     -0.746706    98A     -0.744937    99A     -0.733495
     100A     -0.733495   101A     -0.732248   102A     -0.732224
     103A     -0.716576   104A     -0.699045   105A     -0.699025
     106A     -0.693663   107A     -0.693636   108A     -0.661297
     109A     -0.653198   110A     -0.651241   111A     -0.650318
     112A     -0.650311   113A     -0.639428   114A     -0.639415
     115A     -0.629790   116A     -0.627599   117A     -0.627585
     118A     -0.606497   119A     -0.605859   120A     -0.601736
     121A     -0.599813   122A     -0.599766   123A     -0.593704
     124A     -0.591312   125A     -0.591292   126A     -0.585334
     127A     -0.576441   128A     -0.576371   129A     -0.567385
     130A     -0.567367   131A     -0.566036   132A     -0.566020
     133A     -0.558807   134A     -0.554913   135A     -0.554912
     136A     -0.538657   137A     -0.538655   138A     -0.538243
     139A     -0.538228   140A     -0.529784   141A     -0.528210
     142A     -0.522945   143A     -0.522926   144A     -0.500567
     145A     -0.495663   146A     -0.493300   147A     -0.487881
     148A     -0.485142   149A     -0.481826   150A     -0.481822
     151A     -0.470374   152A     -0.470368   153A     -0.451104
     154A     -0.451031   155A     -0.439120   156A     -0.439112
     157A     -0.404803   158A     -0.404769   159A     -0.403441
     160A     -0.375475   161A     -0.375470   162A     -0.349179
     163A     -0.337630   164A     -0.336599   165A     -0.336559
     166A     -0.311148   167A     -0.298149   168A     -0.284393
     169A     -0.284347   170A     -0.224970   171A     -0.224908

  @DF-RHF Final Energy: -2055.89269830568674

   => Energetics <=

    Nuclear Repulsion Energy =           6452.5568002797781446
    One-Electron Energy =              -15636.4608142793622392
    Two-Electron Energy =                7128.0113156938978136
    Total Energy =                      -2055.8926983056871904
 Dipole X            :          0.0001147           -0.0000085            0.0001062
 Dipole Y            :         -0.0000659            0.0000167           -0.0000492
 Dipole Z            :       -509.6512599          509.6597592            0.0084993
 Magnitude           :                                                    0.0085001

    SAPT Results
  --------------------------------------------------------------------------------------------------------
    Electrostatics                 -9.25738663 [mEh]      -5.80909781 [kcal/mol]     -24.30526524 [kJ/mol]
      Elst10,r                     -9.25738663 [mEh]      -5.80909781 [kcal/mol]     -24.30526524 [kJ/mol]

    Exchange                        0.01707172 [mEh]       0.01071267 [kcal/mol]       0.04482179 [kJ/mol]
      Exch10                        0.01707172 [mEh]       0.01071267 [kcal/mol]       0.04482179 [kJ/mol]
      Exch10(S^2)                   0.01707155 [mEh]       0.01071256 [kcal/mol]       0.04482134 [kJ/mol]

    Induction                      -4.13092912 [mEh]      -2.59219716 [kcal/mol]     -10.84575290 [kJ/mol]
      Ind20,r                      -3.99261079 [mEh]      -2.50540110 [kcal/mol]     -10.48259819 [kJ/mol]
      Exch-Ind20,r                  0.00464938 [mEh]       0.00291753 [kcal/mol]       0.01220694 [kJ/mol]
      delta HF,r (2)               -0.14296770 [mEh]      -0.08971359 [kcal/mol]      -0.37536165 [kJ/mol]

    Dispersion                     -2.95495637 [mEh]      -1.85426312 [kcal/mol]      -7.75823688 [kJ/mol]
      Disp20                       -2.95820564 [mEh]      -1.85630207 [kcal/mol]      -7.76676784 [kJ/mol]
      Exch-Disp20                   0.00324927 [mEh]       0.00203895 [kcal/mol]       0.00853096 [kJ/mol]
      Disp20 (SS)                  -1.47910282 [mEh]      -0.92815103 [kcal/mol]      -3.88338392 [kJ/mol]
      Disp20 (OS)                  -1.47910282 [mEh]      -0.92815103 [kcal/mol]      -3.88338392 [kJ/mol]
      Exch-Disp20 (SS)              0.00226891 [mEh]       0.00142376 [kcal/mol]       0.00595702 [kJ/mol]
      Exch-Disp20 (OS)              0.00098036 [mEh]       0.00061519 [kcal/mol]       0.00257395 [kJ/mol]

  Total HF                        -13.37124402 [mEh]      -8.39058230 [kcal/mol]     -35.10619635 [kJ/mol]
  Total SAPT0                     -16.32620039 [mEh]     -10.24484542 [kcal/mol]     -42.86443322 [kJ/mol]

  Special recipe for scaled SAPT0 (see Manual):
    Electrostatics sSAPT0          -9.25738663 [mEh]      -5.80909781 [kcal/mol]     -24.30526524 [kJ/mol]
    Exchange sSAPT0                 0.01707172 [mEh]       0.01071267 [kcal/mol]       0.04482179 [kJ/mol]
    Induction sSAPT0               -4.13092898 [mEh]      -2.59219707 [kcal/mol]     -10.84575253 [kJ/mol]
    Dispersion sSAPT0              -2.95495627 [mEh]      -1.85426306 [kcal/mol]      -7.75823662 [kJ/mol]
  Total sSAPT0                    -16.32620016 [mEh]     -10.24484527 [kcal/mol]     -42.86443260 [kJ/mol]
  --------------------------------------------------------------------------------------------------------

*** Psi4 exiting successfully. Buy a developer a beer!
