                               Psi4 1.9 release

  ==> Input File <==

--------------------------------------------------------------------------
memory 32 GB # how much memory is available ! Depends on the nodes/cores !

molecule dimer {
# monomer A
+1 1    # Charge and multiplicity
C  0.680067 1.417258 -8.815929
C -0.680504 1.419286 -8.815545
N -1.085635 1.420284 -7.497221
C  0.000108 1.423560 -6.715820
C -2.477365 1.469690 -7.029242
N  1.085222 1.420284 -7.497221
H  1.385146 1.409430 -9.633368
H -1.385302 1.419096 -9.633214
H -0.000009 1.425307 -5.634731
C  2.478117 1.403392 -7.032123
H  2.490592 1.430737 -5.941870
H  2.967028 0.489946 -7.379299
H  3.001428 2.278875 -7.423595
H -2.857359 2.491761 -7.109201
H -3.082679 0.799606 -7.642306
H -2.518128 1.142706 -5.989294
--
# monomer B
0 1     # Charge and multiplicity
C   1.22531237526482      0.70753866091955      0.00613762728373
C   1.22532433589282     -0.70753852257020     -0.00619318228664
C   -0.00000567409046      1.41496628609039     -0.00672680580738
C   2.45644923379077      1.41832825917820      0.00902448468363
C   0.00001130712078     -1.41497612663474      0.00347275151708
C   -1.22530046906674      0.70754574598412      0.00838914760619
C   2.45643823516184     -1.41832293188077     -0.00843833914343
C   -0.00000085313587      2.83680140328112     -0.00913035594137
C   3.68182717731192      0.70931832800114     -0.00808954934571
C   2.45512052870677      2.83422403348893     -0.00819210630633
C   3.68182158506039     -0.70933346742900      0.00798293467272
C   -1.22531311884624     -0.70752714354401     -0.00512042085974
C   1.22670006104402      3.54346985599427      0.00816696660346
C   0.00000526469929     -2.83678176723568      0.00832091913869
C   -2.45643555300670      1.41831729028492      0.00842454345199
C   2.45512389762097     -2.83422965658853      0.00783102630520
C   -1.22671388474763      3.54346943575023      0.00827029982280
C   4.91451777504333      1.42717324448953     -0.00160886631602
C   3.69315067131765      3.54279566454522     -0.00155906667985
C   -2.45643712022637     -1.41831290883911     -0.00846337726810
C   1.22670532178455     -3.54347386990643     -0.00780316414624
C   -2.45512491866593      2.83421703463423     -0.00818572995999
C   4.91452486062398     -1.42718653794377      0.00136387641845
C   1.22142509354026      4.97013443726031      0.00150231067809
C   4.89300870916237      2.82518837202648     -0.00039219795739
C   -1.22669652864725     -3.54347062507680     -0.00753595973677
C   -3.68181849668397      0.70932533873199     -0.00807686886569
C   3.69314758099218     -3.54280096939050      0.00148176697923
C   -1.22143177215231      4.97012866986289      0.00168580605083
C   6.13477145276790      0.68054831910577     -0.00083909176631
C   3.65678936045204      4.97295361556775     -0.00065042889723
C   -2.45512642789169     -2.83421472106065      0.00758666850712
C   -3.68181869921921     -0.70932533146830      0.00810055625144
C   4.89301309775526     -2.82519973363176      0.00021895393805
C   -0.00000059327114      5.65044773803267      0.00045449734393
C   6.13477559217374     -0.68055448207492      0.00042622874941
C   2.47813196269732      5.65357712333155      0.00063835075260
C   1.22142288457925     -4.97012668293268     -0.00129718634452
C   -3.69316190412301      3.54279732619245     -0.00139355922051
C   -1.22142804110313     -4.97011793159564     -0.00140994817719
C   -4.91452132810043      1.42717581899491     -0.00153192130862
C   3.65678749952045     -4.97295485423912      0.00080007163680
C   -2.47813805026426      5.65357479452875      0.00092287576113
C   -3.69314125872231     -3.54278984697859      0.00136564082345
C   -4.91451200321153     -1.42718062802730      0.00139857359209
C   -0.00000552908399     -5.65043791501335      0.00005899322272
C   -4.89302000425900      2.82518897091939     -0.00040227981744
C   2.47812647313991     -5.65357317188818     -0.00029052915548
C   -3.65679823041642      4.97295655404175     -0.00047374852278
C   -4.89299899901461     -2.82519139505969      0.00006491824035
C   -2.47812801824129     -5.65356579800621     -0.00056571680280
C   -6.13477002348955      0.68054913825639     -0.00086464346868
C   -3.65678835334731     -4.97294365097028      0.00058578382008
C   -6.13476456307132     -0.68055354348201      0.00040575295444
H   5.83528897565761      3.36927626695423      0.00396712770529
H   7.07385965258860      1.22821762089947     -0.00037744837300
H   4.60066374401555      5.51238117445323     -0.00014522814529
H   5.83528386714679     -3.36930568472863     -0.00423551337640
H   -0.00001167146422      6.73853104613662     -0.00389474766392
H   7.07386165167227     -1.22822657074368     -0.00008250934481
H   2.47331421164041      6.74068466339473      0.00017162982210
H   4.60066897122302     -5.51237575717576      0.00039007446835
H   -2.47331820069565      6.74068209160650      0.00047297644710
H   -0.00000978838621     -6.73852780445195      0.00458867820736
H   -5.83530143450167      3.36927132229595      0.00410314985360
H   2.47330840367253     -6.74068500242887      0.00027980126949
H   -4.60067436136587      5.51237839860371      0.00002010017831
H   -5.83527902699321     -3.36928859177951     -0.00451481925734
H   -2.47329986759855     -6.74067870613986     -0.00016951527498
H   -7.07385728692578      1.22822084484047     -0.00046143985387
H   -4.60067330624313     -5.51236229778631      0.00021776644566
H   -7.07385645456741     -1.22822025997701     -0.00017736581114

    units angstrom      # Angstroms are the default
    no_reorient         # Geometry fixed, default
    symmetry c1         # C1 symmetry, default
}

set {
    scf_type DF         # Density fitting, faster than exact integrals
    freeze_core True    # Freeze core electrons
    basis jun-cc-pVDZ   # Jun-cc-pVDZ basis set, recommended for sSAPT0 in https://doi.org/10.1063/1.4867135
}

energy('ssapt0')        # Compute sSAPT0 energy, includes also SAPT0
--------------------------------------------------------------------------

  //              Dimer HF             //
    Molecular point group: c1
  Charge       = 1
  Multiplicity = 1
  Basis Set: JUN-CC-PVDZ
    Blend: JUN-CC-PVDZ
  Basis Set: (JUN-CC-PVDZ AUX)
    Blend: JUN-CC-PVDZ-JKFIT
  @DF-RHF Final Energy: -2359.19793447154689
    Total Energy =                      -2359.1979344715473417
 Dipole X            :         -0.0014493            0.0006313           -0.0008180
 Dipole Y            :         -5.5550650            7.4856329            1.9305679
 Dipole Z            :         26.4511087          -37.7295271          -11.2784183
 Magnitude           :                                                   11.4424566
  //            Monomer A HF           //
    Molecular point group: c1
  Multiplicity = 1
  Basis Set: JUN-CC-PVDZ
    Blend: JUN-CC-PVDZ
  Basis Set: (JUN-CC-PVDZ AUX)
    Blend: JUN-CC-PVDZ-JKFIT
  @DF-RHF Final Energy:  -303.29721846122322
    Total Energy =                       -303.2972184612232240
  //            Monomer B HF           //
    Molecular point group: c1

    Geometry (in Angstrom), charge = 0, multiplicity = 1:

       Center              X                  Y                   Z               Mass
    ------------   -----------------  -----------------  -----------------  -----------------
      Gh(C)           0.680066520158     1.235968212970    -7.849257902023    12.000000000000
      Gh(C)          -0.680504479842     1.237996212970    -7.848873902023    12.000000000000
      Gh(N)          -1.085635479842     1.238994212970    -6.530549902023    14.003074004430
      Gh(C)           0.000107520158     1.242270212970    -5.749148902023    12.000000000000
      Gh(C)          -2.477365479842     1.288400212970    -6.062570902023    12.000000000000
      Gh(N)           1.085221520158     1.238994212970    -6.530549902023    14.003074004430
      Gh(H)           1.385145520158     1.228140212970    -8.666696902023     1.007825032230
      Gh(H)          -1.385302479842     1.237806212970    -8.666542902023     1.007825032230
      Gh(H)          -0.000009479842     1.244017212970    -4.668059902023     1.007825032230
      Gh(C)           2.478116520158     1.222102212970    -6.065451902023    12.000000000000
      Gh(H)           2.490591520158     1.249447212970    -4.975198902023     1.007825032230
      Gh(H)           2.967027520158     0.308656212970    -6.412627902023     1.007825032230
      Gh(H)           3.001427520158     2.097585212970    -6.456923902023     1.007825032230
      Gh(H)          -2.857359479842     2.310471212970    -6.142529902023     1.007825032230
      Gh(H)          -3.082679479842     0.618316212970    -6.675634902023     1.007825032230
      Gh(H)          -2.518128479842     0.961416212970    -5.022622902023     1.007825032230
         C            1.225311895423     0.526248873889     0.972808725261    12.000000000000
         C            1.225323856051    -0.888828309601     0.960477915690    12.000000000000
         C           -0.000006153932     1.233676499060     0.959944292170    12.000000000000
         C            2.456448753949     1.237038472148     0.975695582661    12.000000000000
         C            0.000010827279    -1.596265913665     0.970143849494    12.000000000000
         C           -1.225300948908     0.526255958954     0.975060245583    12.000000000000
         C            2.456437755320    -1.599612718911     0.958232758834    12.000000000000
         C           -0.000001332978     2.655511616251     0.957540742036    12.000000000000
         C            3.681826697470     0.528028540971     0.958581548631    12.000000000000
         C            2.455120048865     2.652934246459     0.958478991671    12.000000000000
         C            3.681821105219    -0.890623254459     0.974654032650    12.000000000000
         C           -1.225313598688    -0.888816930574     0.961550677117    12.000000000000
         C            1.226699581202     3.362180068964     0.974838064580    12.000000000000
         C            0.000004784858    -3.018071554266     0.974992017116    12.000000000000
         C           -2.456436032848     1.237027503255     0.975095641429    12.000000000000
         C            2.455123417779    -3.015519443619     0.974502124282    12.000000000000
         C           -1.226714364589     3.362179648720     0.974941397800    12.000000000000
         C            4.914517295202     1.245883457459     0.965062231661    12.000000000000
         C            3.693150191476     3.361505877515     0.965112031297    12.000000000000
         C           -2.456437600068    -1.599602695869     0.958207720709    12.000000000000
         C            1.226704841943    -3.724763656937     0.958867933831    12.000000000000
         C           -2.455125398508     2.652927247604     0.958485368017    12.000000000000
         C            4.914524380782    -1.608476324974     0.968034974395    12.000000000000
         C            1.221424613699     4.788844650230     0.968173408655    12.000000000000
         C            4.893008229321     2.643898584996     0.966278900020    12.000000000000
         C           -1.226697008489    -3.724760412107     0.959135138240    12.000000000000
         C           -3.681818976526     0.528035551702     0.958594229111    12.000000000000
         C            3.693147101150    -3.724090756421     0.968152864956    12.000000000000
         C           -1.221432251994     4.788838882833     0.968356904028    12.000000000000
         C            6.134770972926     0.499258532075     0.965832006211    12.000000000000
         C            3.656788880610     4.791663828537     0.966020669080    12.000000000000
         C           -2.455126907733    -3.015504508091     0.974257766484    12.000000000000
         C           -3.681819179061    -0.890615118499     0.974771654228    12.000000000000
         C            4.893012617914    -3.006489520662     0.966890051915    12.000000000000
         C           -0.000001073113     5.469157951002     0.967125595321    12.000000000000
         C            6.134775112332    -0.861844269105     0.967097326726    12.000000000000
         C            2.478131482856     5.472287336301     0.967309448730    12.000000000000
         C            1.221422404738    -5.151416469963     0.965373911633    12.000000000000
         C           -3.693162383965     3.361507539162     0.965277538757    12.000000000000
         C           -1.221428520945    -5.151407718626     0.965261149800    12.000000000000
         C           -4.914521807942     1.245886031965     0.965139176668    12.000000000000
         C            3.656787019679    -5.154244641269     0.967471169614    12.000000000000
         C           -2.478138530106     5.472285007498     0.967593973738    12.000000000000
         C           -3.693141738564    -3.724079634009     0.968036738800    12.000000000000
         C           -4.914512483053    -1.608470415058     0.968069671569    12.000000000000
         C           -0.000006008926    -5.831727702044     0.966730091200    12.000000000000
         C           -4.893020484101     2.643899183889     0.966268818160    12.000000000000
         C            2.478125993298    -5.834862958919     0.966380568822    12.000000000000
         C           -3.656798710258     4.791666767011     0.966197349454    12.000000000000
         C           -4.892999478856    -3.006481182090     0.966736016217    12.000000000000
         C           -2.478128498083    -5.834855585037     0.966105381174    12.000000000000
         C           -6.134770503331     0.499259351226     0.965806454508    12.000000000000
         C           -3.656788833189    -5.154233438001     0.967256881797    12.000000000000
         C           -6.134765042913    -0.861843330512     0.967076850931    12.000000000000
         H            5.835288495816     3.187986479924     0.970638225682     1.007825032230
         H            7.073859172747     1.046927833869     0.966293649604     1.007825032230
         H            4.600663264174     5.331091387423     0.966525869832     1.007825032230
         H            5.835283387305    -3.550595471759     0.962435584601     1.007825032230
         H           -0.000012151306     6.557241259106     0.962776350313     1.007825032230
         H            7.073861171831    -1.409516357774     0.966588588632     1.007825032230
         H            2.473313731799     6.559394876364     0.966842727799     1.007825032230
         H            4.600668491381    -5.693665544206     0.967061172445     1.007825032230
         H           -2.473318680537     6.559392304576     0.967144074424     1.007825032230
         H           -0.000010268228    -6.919817591482     0.971259776184     1.007825032230
         H           -5.835301914343     3.187981535266     0.970774247831     1.007825032230
         H            2.473307923831    -6.921974789459     0.966950899247     1.007825032230
         H           -4.600674841208     5.331088611573     0.966691198155     1.007825032230
         H           -5.835279506835    -3.550578378810     0.962156278720     1.007825032230
         H           -2.473300347440    -6.921968493170     0.966501582702     1.007825032230
         H           -7.073857766768     1.046931057810     0.966209658123     1.007825032230
         H           -4.600673786085    -5.693652084817     0.966888864423     1.007825032230
         H           -7.073856934409    -1.409510047007     0.966493732166     1.007825032230

  Charge       = 0
  Multiplicity = 1
  Basis Set: JUN-CC-PVDZ
    Blend: JUN-CC-PVDZ
  Basis Set: (JUN-CC-PVDZ AUX)
    Blend: JUN-CC-PVDZ-JKFIT

    Orbital Energies [Eh]
    ---------------------

    Doubly Occupied:

       1A    -11.260654     2A    -11.260211     3A    -11.260210
       4A    -11.259501     5A    -11.259500     6A    -11.259331
       7A    -11.259122     8A    -11.259045     9A    -11.259043
      10A    -11.258719    11A    -11.258716    12A    -11.258648
      13A    -11.258585    14A    -11.258581    15A    -11.258577
      16A    -11.258548    17A    -11.258543    18A    -11.258526
      19A    -11.258513    20A    -11.258508    21A    -11.258503
      22A    -11.258403    23A    -11.258400    24A    -11.258100
      25A    -11.257442    26A    -11.257380    27A    -11.257379
      28A    -11.257244    29A    -11.257244    30A    -11.257159
      31A    -11.256537    32A    -11.256466    33A    -11.256466
      34A    -11.256356    35A    -11.256355    36A    -11.256308
      37A    -11.252389    38A    -11.252386    39A    -11.252384
      40A    -11.252382    41A    -11.252380    42A    -11.252378
      43A    -11.251521    44A    -11.251516    45A    -11.251513
      46A    -11.251509    47A    -11.251507    48A    -11.251502
      49A    -11.250951    50A    -11.250947    51A    -11.250945
      52A    -11.250943    53A    -11.250941    54A    -11.250940
      55A     -1.244268    56A     -1.219992    57A     -1.219991
      58A     -1.189702    59A     -1.189694    60A     -1.181140
      61A     -1.157704    62A     -1.149134    63A     -1.135681
      64A     -1.135673    65A     -1.113337    66A     -1.113332
      67A     -1.082605    68A     -1.082597    69A     -1.078786
      70A     -1.066120    71A     -1.066116    72A     -1.039557
      73A     -1.024463    74A     -1.021966    75A     -1.021922
      76A     -1.017868    77A     -1.012931    78A     -0.987196
      79A     -0.987150    80A     -0.962029    81A     -0.961978
      82A     -0.894447    83A     -0.894420    84A     -0.888137
      85A     -0.886384    86A     -0.886327    87A     -0.881575
      88A     -0.881527    89A     -0.862052    90A     -0.837534
      91A     -0.818368    92A     -0.816805    93A     -0.812314
      94A     -0.812305    95A     -0.794834    96A     -0.794824
      97A     -0.746811    98A     -0.745040    99A     -0.733606
     100A     -0.733598   101A     -0.732332   102A     -0.732309
     103A     -0.716675   104A     -0.699129   105A     -0.699117
     106A     -0.693753   107A     -0.693736   108A     -0.661379
     109A     -0.653307   110A     -0.651352   111A     -0.650397
     112A     -0.650392   113A     -0.639508   114A     -0.639505
     115A     -0.629889   116A     -0.627700   117A     -0.627684
     118A     -0.606463   119A     -0.605920   120A     -0.601840
     121A     -0.599897   122A     -0.599865   123A     -0.593799
     124A     -0.591425   125A     -0.591413   126A     -0.585402
     127A     -0.576424   128A     -0.576414   129A     -0.567460
     130A     -0.567445   131A     -0.566139   132A     -0.566121
     133A     -0.558914   134A     -0.555002   135A     -0.554996
     136A     -0.538740   137A     -0.538737   138A     -0.538280
     139A     -0.538273   140A     -0.529873   141A     -0.528202
     142A     -0.523029   143A     -0.523021   144A     -0.500648
     145A     -0.495707   146A     -0.493386   147A     -0.487935
     148A     -0.485242   149A     -0.481923   150A     -0.481916
     151A     -0.470424   152A     -0.470411   153A     -0.451222
     154A     -0.451145   155A     -0.439176   156A     -0.439166
     157A     -0.404855   158A     -0.404832   159A     -0.403477
     160A     -0.375530   161A     -0.375527   162A     -0.349233
     163A     -0.337698   164A     -0.336664   165A     -0.336609
     166A     -0.311209   167A     -0.298198   168A     -0.284463
     169A     -0.284411   170A     -0.225033   171A     -0.224967

  @DF-RHF Final Energy: -2055.89186136545504

   => Energetics <=

    Nuclear Repulsion Energy =           6452.5568002797781446
    One-Electron Energy =              -15636.4333596615451825
    Two-Electron Energy =                7127.9846980163110857
    Total Energy =                      -2055.8918613654550427
 Dipole X            :          0.0001155           -0.0000085            0.0001070
 Dipole Y            :        117.1656324         -117.1648546            0.0007779
 Dipole Z            :       -624.7412514          624.7448780            0.0036266
 Magnitude           :                                                    0.0037106

    SAPT Results
  --------------------------------------------------------------------------------------------------------
    Electrostatics                 -6.77183075 [mEh]      -4.24938795 [kcal/mol]     -17.77943918 [kJ/mol]
      Elst10,r                     -6.77183075 [mEh]      -4.24938795 [kcal/mol]     -17.77943918 [kJ/mol]

    Exchange                       -0.00023057 [mEh]      -0.00014469 [kcal/mol]      -0.00060537 [kJ/mol]
      Exch10                       -0.00023057 [mEh]      -0.00014469 [kcal/mol]      -0.00060537 [kJ/mol]
      Exch10(S^2)                  -0.00023057 [mEh]      -0.00014469 [kcal/mol]      -0.00060537 [kJ/mol]

    Induction                      -2.08258355 [mEh]      -1.30684090 [kcal/mol]      -5.46782234 [kJ/mol]
      Ind20,r                      -2.04610192 [mEh]      -1.28394834 [kcal/mol]      -5.37203984 [kJ/mol]
      Exch-Ind20,r                  0.00023662 [mEh]       0.00014848 [kcal/mol]       0.00062124 [kJ/mol]
      delta HF,r (2)               -0.03671825 [mEh]      -0.02304105 [kcal/mol]      -0.09640374 [kJ/mol]

    Dispersion                     -0.99551329 [mEh]      -0.62469402 [kcal/mol]      -2.61371978 [kJ/mol]
      Disp20                       -0.99560887 [mEh]      -0.62475400 [kcal/mol]      -2.61397074 [kJ/mol]
      Exch-Disp20                   0.00009558 [mEh]       0.00005998 [kcal/mol]       0.00025096 [kJ/mol]
      Disp20 (SS)                  -0.49780444 [mEh]      -0.31237700 [kcal/mol]      -1.30698537 [kJ/mol]
      Disp20 (OS)                  -0.49780444 [mEh]      -0.31237700 [kcal/mol]      -1.30698537 [kJ/mol]
      Exch-Disp20 (SS)              0.00007224 [mEh]       0.00004533 [kcal/mol]       0.00018967 [kJ/mol]
      Exch-Disp20 (OS)              0.00002334 [mEh]       0.00001465 [kcal/mol]       0.00006129 [kJ/mol]

  Total HF                         -8.85464487 [mEh]      -5.55637354 [kcal/mol]     -23.24786690 [kJ/mol]
  Total SAPT0                      -9.85015816 [mEh]      -6.18106756 [kcal/mol]     -25.86158668 [kJ/mol]

  Special recipe for scaled SAPT0 (see Manual):
    Electrostatics sSAPT0          -6.77183075 [mEh]      -4.24938795 [kcal/mol]     -17.77943918 [kJ/mol]
    Exchange sSAPT0                -0.00023057 [mEh]      -0.00014469 [kcal/mol]      -0.00060537 [kJ/mol]
    Induction sSAPT0               -2.08258355 [mEh]      -1.30684090 [kcal/mol]      -5.46782234 [kJ/mol]
    Dispersion sSAPT0              -0.99551329 [mEh]      -0.62469402 [kcal/mol]      -2.61371978 [kJ/mol]
  Total sSAPT0                     -9.85015816 [mEh]      -6.18106756 [kcal/mol]     -25.86158668 [kJ/mol]
  --------------------------------------------------------------------------------------------------------

*** Psi4 exiting successfully. Buy a developer a beer!
