                               Psi4 1.9 release

  ==> Input File <==

--------------------------------------------------------------------------
memory 64 GB # how much memory is available ! Depends on the nodes/cores !

molecule dimer {
# monomer A
-1 1    # Charge and multiplicity
B -1.977592e-04  2.742729e-04 -4.199966
F  1.123153e-16  1.430594e-17 -2.787181
F  1.147860e+00  6.757812e-01 -4.671107
F  1.191806e-02 -1.332011e+00 -4.670905
F -1.159666e+00  6.560735e-01 -4.670826
--
# monomer B
0 1     # Charge and multiplicity
C   -3.66844126402057      7.80375217008252      0.00190004133558
C   -4.84759871934653      7.13124183134024     -0.00046653359696
C   -4.89495929917518      5.69633040353158     -0.00103944469517
C   -3.65374067877320      4.98073034095895      0.00662099703436
C   -2.40942512149445      7.11398103667468      0.00209438359570
C   -2.42547734410473      5.68112195090346     -0.00491050527438
C   -1.19474401643570      7.78614419430947      0.00356656413763
C   0.03795902893699      7.09942164575698      0.00139585983271
C   0.03033258741920      5.66948955970466     -0.00408752508301
C   -1.20098450790502      4.96927034791531      0.00488220885047
C   1.27795782581485      7.77285944319479      0.00277170839332
C   2.48535808472416      7.08769688523756      0.00049722048857
C   2.48612868491717      5.65477081024076     -0.00644052849921
C   1.25408291964399      4.95607811366431      0.00518741308898
C   3.75171459140595      7.76391215098033      0.00062407186893
C   4.92356605618520      7.07878077698995     -0.00143240883900
C   4.95560727132542      5.64344746336949     -0.00159282164606
C   3.70680153420475      4.94121020833308      0.00349873852374
H   -3.65852113775815      8.89082741913536      0.00358502958574
H   -1.18921332975660      8.87412108735996      0.00753844057883
H   1.28429423888630      8.86083343548850      0.00693053253426
H   3.75354208679975      8.85103527897216      0.00214659618464
H   5.86995870320703      7.61379483465560     -0.00235777588134
H   -5.78823170750226      7.67630221293400     -0.00202638095293
C   -6.09197395869619      4.99326001364347     -0.00291168518608
C   -6.12866148031747      3.58258016879823     -0.00171050815740
C   -3.66457974004527      3.56418217974434     -0.00463560277484
C   -4.89429820469869      2.86108077590057      0.00453338221034
C   -2.43733499489796      2.84761165708481      0.00719617576166
C   -1.20922785759670      3.54788693497833     -0.00648285103018
C   1.24714157216223      3.53468075142962     -0.00729145743546
C   0.01517603956900      2.83311183930540      0.00439272578912
C   2.46764517244071      2.82128997725533      0.00449278391269
C   3.70254947457969      3.52466015442405     -0.00899517692985
C   6.14498038638375      4.92757236613191     -0.00282626685777
C   6.16658835886151      3.51658447594213     -0.00065971342101
C   4.92460995845939      2.80840792535402      0.00587903281610
H   7.08990550964105      5.46688776622306     -0.00658814770723
H   -7.03104175110130      5.54268795285765     -0.00714490013730
C   -7.33969804112295      2.85841153457957     -0.00333767559888
C   -7.36488195805880      1.47032337158330     -0.00157213747140
C   -4.90350460894690      1.44442681216000     -0.00628840166334
C   -6.13225715261081      0.73993935705394      0.00600164231964
C   -3.67687480051673      0.72669714267312      0.00433931473643
C   -2.44565658606518      1.42964113326212     -0.00597039546461
C   -1.22360068130162      0.71532450163492      0.00545886906656
C   0.00763786931376      1.41738314923765      0.00392452278437
C   1.23121980774686      0.70211669058719     -0.01490206287210
C   2.46082110053113      1.40329203612573      0.00460244601878
C   3.68443025419614      0.68719842821222      0.00377365974158
C   4.91870890153864      1.39173456118907     -0.00862816189375
C   7.36980207796101      2.77948220318441     -0.00242013321349
C   7.38016266612146      1.39121750785509     -0.00087345036788
C   6.13979953912259      0.67411862320065      0.00545489144369
H   -8.27919079934664      3.40711804112415     -0.00763522772059
H   8.31511347147953      3.31811809662368     -0.00663070901292
C   -8.59175593758115      0.72483255304480     -0.00123170985383
C   -8.59902460370342     -0.63263980622873      0.00089141472904
C   -6.13981313911873     -0.67413663715361     -0.00609792660607
C   -7.38018411213749     -1.39126618958160      0.00131813493501
C   -4.91868448025621     -1.39175501803000      0.00624257154343
C   -3.68443829568458     -0.68723731573599     -0.00478966852105
C   -2.46081704024768     -1.40334517882457      0.00575341766833
C   -1.23116201232071     -0.70217386488055     -0.00636696112346
C   -0.00756962538737     -1.41741884941102      0.00108956317991
C   1.22364771588843     -0.71527537726392      0.01109518512883
C   2.44567064933149     -1.42964328900682     -0.00065482763106
C   3.67686670284649     -0.72670743155550     -0.00479541202602
C   6.13224884641929     -0.73997883984993     -0.00632338623858
C   4.90351914550401     -1.44445752054090      0.00751768830159
C   8.59901484869081      0.63260386666793     -0.00101133422380
C   8.59174548810050     -0.72485086719319      0.00072504603735
C   7.36486276438985     -1.47033266560598      0.00049486934466
H   -9.52830597181814      1.27684744919284     -0.00270163681798
H   9.54141097460619      1.17457248844457     -0.00206336648518
C   -7.36983790976868     -2.77954514593389      0.00312634335708
C   -4.92459910905015     -2.80843725734101     -0.00460528907921
C   -6.16662249566744     -3.51665219282533      0.00169655107992
C   -3.70251035970491     -3.52468154912026      0.00571878010666
C   -2.46764698511392     -2.82132596280400     -0.00632585824990
C   -0.01513347410770     -2.83314164539971     -0.00604426974092
C   -1.24712184122656     -3.53473217556300      0.00551968366725
C   1.20924506964357     -3.54791467864352      0.00805871345849
C   2.43733602215464     -2.84764173817541     -0.00608104485234
C   4.89430234377080     -2.86112296828604     -0.00526030478103
C   3.66461525504104     -3.56421984553201      0.00761911515957
C   6.12863901474565     -3.58258405771778      0.00096495711699
C   7.33967266469532     -2.85841330737039      0.00248018319869
H   -9.54144911125902     -1.17456346666430      0.00226083090216
H   9.52826186807155     -1.27691907390448      0.00197485379837
H   -8.31516504384864     -3.31814985321231      0.00729857188773
H   8.27915514249207     -3.40714078989363      0.00681973918158
C   -6.14499418870218     -4.92764727278338      0.00302254913999
C   -3.70678334799751     -4.94126171411716     -0.00679841894792
C   -4.95559005800169     -5.64349397349412      0.00116871569699
C   -2.48612132622665     -5.65478557440947      0.00614125209662
C   -1.25405833548005     -4.95612205000132     -0.00503435388927
C   1.20101257386816     -4.96928038819302     -0.00385322963129
C   -0.03033667441341     -5.66952030313900      0.00398997003238
C   3.65375010132847     -4.98074377541453     -0.00309522988330
C   2.42549269587528     -5.68117463552727      0.00628170066869
C   6.09196561781097     -4.99325796338655      0.00325918379042
C   4.89497644461045     -5.69634842095790      0.00202298796027
H   -7.08989238804069     -5.46699984223871      0.00742531082125
H   7.03105520920009     -5.54265853633254      0.00683896355417
C   -4.92354532219813     -7.07882109967734      0.00061394679214
C   -2.48534208823777     -7.08772807792913     -0.00189594564379
C   -3.75168589177895     -7.76394715763627     -0.00170126671874
C   -0.03794895698805     -7.09946487446944     -0.00168022049625
C   -1.27795610040136     -7.77290438466689     -0.00366491325785
C   2.40944432072629     -7.11402201200282     -0.00081701968533
C   1.19474993715296     -7.78618536556242     -0.00296931056689
C   4.84762105249800     -7.13126211057943      0.00168979497423
C   3.66847160587561     -7.80378799294376     -0.00065863938960
H   -5.86994035041618     -7.61383059804164      0.00215798365757
H   5.78824962538815     -7.67633218931421      0.00281691445618
H   -3.75352693944918     -8.85107156923607     -0.00353718114765
H   -1.28430440589466     -8.86087539249706     -0.00809229711623
H   1.18922157469537     -8.87416062058945     -0.00706194725726
H   3.65854661482387     -8.89086063405326     -0.00231318081200

    units angstrom      # Angstroms are the default
    no_reorient         # Geometry fixed, default
    symmetry c1         # C1 symmetry, default
}

set {
    scf_type DF         # Density fitting, faster than exact integrals
    freeze_core True    # Freeze core electrons
    basis jun-cc-pVDZ   # Jun-cc-pVDZ basis set, recommended for sSAPT0 in https://doi.org/10.1063/1.4867135
}

energy('ssapt0')        # Compute sSAPT0 energy, includes also SAPT0
--------------------------------------------------------------------------

  //              Dimer HF             //
    Molecular point group: c1
  Charge       = -1
  Multiplicity = 1
  Basis Set: JUN-CC-PVDZ
    Blend: JUN-CC-PVDZ
  Basis Set: (JUN-CC-PVDZ AUX)
    Blend: JUN-CC-PVDZ-JKFIT
  @DF-RHF Final Energy: -4073.11058740094268
    Total Energy =                      -4073.1105874009444960
 Dipole X            :          0.0003999           -0.0000548            0.0003452
 Dipole Y            :          0.0008975           -0.0002464            0.0006512
 Dipole Z            :        -19.0430140           24.9943880            5.9513740
 Magnitude           :                                                    5.9513741
  //            Monomer A HF           //
    Molecular point group: c1
  Multiplicity = 1
  Basis Set: JUN-CC-PVDZ
    Blend: JUN-CC-PVDZ
  Basis Set: (JUN-CC-PVDZ AUX)
    Blend: JUN-CC-PVDZ-JKFIT
  @DF-RHF Final Energy:  -422.77270238983704
    Total Energy =                       -422.7727023898370362
  //            Monomer B HF           //
    Molecular point group: c1

    Geometry (in Angstrom), charge = 0, multiplicity = 1:

       Center              X                  Y                   Z               Mass
    ------------   -----------------  -----------------  -----------------  -----------------
      Gh(B)          -0.000201921932     0.000288800891    -3.910691949097    11.009305360000
      Gh(F)          -0.000004162732     0.000014527991    -2.497906949097    18.998403162730
      Gh(F)           1.147855837268     0.675795727991    -4.381832949097    18.998403162730
      Gh(F)           0.011913897268    -1.331996472009    -4.381630949097    18.998403162730
      Gh(F)          -1.159670162732     0.656088027991    -4.381551949097    18.998403162730
         C           -3.668445426752     7.803766698073     0.291174092238    12.000000000000
         C           -4.847602882078     7.131256359331     0.288807517306    12.000000000000
         C           -4.894963461907     5.696344931522     0.288234606207    12.000000000000
         C           -3.653744841505     4.980744868950     0.295895047937    12.000000000000
         C           -2.409429284226     7.113995564665     0.291368434498    12.000000000000
         C           -2.425481506836     5.681136478894     0.284363545628    12.000000000000
         C           -1.194748179167     7.786158722300     0.292840615040    12.000000000000
         C            0.037954866205     7.099436173748     0.290669910735    12.000000000000
         C            0.030328424687     5.669504087695     0.285186525820    12.000000000000
         C           -1.200988670637     4.969284875906     0.294156259753    12.000000000000
         C            1.277953663083     7.772873971185     0.292045759296    12.000000000000
         C            2.485353921992     7.087711413228     0.289771271391    12.000000000000
         C            2.486124522185     5.654785338231     0.282833522403    12.000000000000
         C            1.254078756912     4.956092641655     0.294461463991    12.000000000000
         C            3.751710428674     7.763926678971     0.289898122771    12.000000000000
         C            4.923561893453     7.078795304981     0.287841642064    12.000000000000
         C            4.955603108594     5.643461991360     0.287681229256    12.000000000000
         C            3.706797371473     4.941224736324     0.292772789426    12.000000000000
         H           -3.658525300490     8.890841947126     0.292859080488     1.007825032230
         H           -1.189217492488     8.874135615351     0.296812491481     1.007825032230
         H            1.284290076155     8.860847963479     0.296204583437     1.007825032230
         H            3.753537924068     8.851049806963     0.291420647087     1.007825032230
         H            5.869954540475     7.613809362646     0.286916275021     1.007825032230
         H           -5.788235870234     7.676316740925     0.287247669950     1.007825032230
         C           -6.091978121428     4.993274541634     0.286362365716    12.000000000000
         C           -6.128665643049     3.582594696789     0.287563542745    12.000000000000
         C           -3.664583902777     3.564196707735     0.284638448128    12.000000000000
         C           -4.894302367430     2.861095303891     0.293807433113    12.000000000000
         C           -2.437339157630     2.847626185075     0.296470226664    12.000000000000
         C           -1.209232020328     3.547901462969     0.282791199872    12.000000000000
         C            1.247137409430     3.534695279420     0.281982593467    12.000000000000
         C            0.015171876837     2.833126367296     0.293666776692    12.000000000000
         C            2.467641009709     2.821304505246     0.293766834815    12.000000000000
         C            3.702545311848     3.524674682415     0.280278873973    12.000000000000
         C            6.144976223652     4.927586894122     0.286447784045    12.000000000000
         C            6.166584196130     3.516599003933     0.288614337482    12.000000000000
         C            4.924605795728     2.808422453345     0.295153083719    12.000000000000
         H            7.089901346909     5.466902294214     0.282685903195     1.007825032230
         H           -7.031045913833     5.542702480848     0.282129150765     1.007825032230
         C           -7.339702203855     2.858426062570     0.285936375304    12.000000000000
         C           -7.364886120791     1.470337899574     0.287701913431    12.000000000000
         C           -4.903508771679     1.444441340151     0.282985649239    12.000000000000
         C           -6.132261315343     0.739953885044     0.295275693222    12.000000000000
         C           -3.676878963248     0.726711670664     0.293613365639    12.000000000000
         C           -2.445660748797     1.429655661253     0.283303655438    12.000000000000
         C           -1.223604844033     0.715339029625     0.294732919969    12.000000000000
         C            0.007633706582     1.417397677228     0.293198573687    12.000000000000
         C            1.231215645015     0.702131218578     0.274371988030    12.000000000000
         C            2.460816937799     1.403306564116     0.293876496921    12.000000000000
         C            3.684426091464     0.687212956203     0.293047710644    12.000000000000
         C            4.918704738807     1.391749089180     0.280645889009    12.000000000000
         C            7.369797915229     2.779496731175     0.286853917689    12.000000000000
         C            7.380158503390     1.391232035846     0.288400600535    12.000000000000
         C            6.139795376391     0.674133151191     0.294728942346    12.000000000000
         H           -8.279194962078     3.407132569115     0.281638823182     1.007825032230
         H            8.315109308748     3.318132624614     0.282643341890     1.007825032230
         C           -8.591760100313     0.724847081035     0.288042341049    12.000000000000
         C           -8.599028766435    -0.632625278238     0.290165465632    12.000000000000
         C           -6.139817301850    -0.674122109163     0.283176124296    12.000000000000
         C           -7.380188274869    -1.391251661591     0.290592185838    12.000000000000
         C           -4.918688642988    -1.391740490039     0.295516622446    12.000000000000
         C           -3.684442458416    -0.687222787745     0.284484382381    12.000000000000
         C           -2.460821202979    -1.403330650834     0.295027468571    12.000000000000
         C           -1.231166175052    -0.702159336890     0.282907089779    12.000000000000
         C           -0.007573788119    -1.417404321420     0.290363614082    12.000000000000
         C            1.223643553157    -0.715260849273     0.300369236031    12.000000000000
         C            2.445666486600    -1.429628761016     0.288619223271    12.000000000000
         C            3.676862540115    -0.726692903565     0.284478638876    12.000000000000
         C            6.132244683688    -0.739964311859     0.282950664664    12.000000000000
         C            4.903514982772    -1.444442992550     0.296791739204    12.000000000000
         C            8.599010685959     0.632618394658     0.288262716679    12.000000000000
         C            8.591741325369    -0.724836339203     0.289999096940    12.000000000000
         C            7.364858601658    -1.470318137615     0.289768920247    12.000000000000
         H           -9.528310134550     1.276861977183     0.286572414085     1.007825032230
         H            9.541406811874     1.174587016435     0.287210684417     1.007825032230
         C           -7.369842072500    -2.779530617943     0.292400394260    12.000000000000
         C           -4.924603271782    -2.808422729350     0.284668761823    12.000000000000
         C           -6.166626658399    -3.516637664835     0.290970601982    12.000000000000
         C           -3.702514522437    -3.524667021130     0.294992831009    12.000000000000
         C           -2.467651147846    -2.821311434813     0.282948192653    12.000000000000
         C           -0.015137636839    -2.833127117409     0.283229781162    12.000000000000
         C           -1.247126003958    -3.534717647572     0.294793734570    12.000000000000
         C            1.209240906912    -3.547900150653     0.297332764361    12.000000000000
         C            2.437331859423    -2.847627210185     0.283193006050    12.000000000000
         C            4.894298181039    -2.861108440295     0.284013746121    12.000000000000
         C            3.664611092309    -3.564205317541     0.296893166062    12.000000000000
         C            6.128634852014    -3.582569529727     0.290239008020    12.000000000000
         C            7.339668501964    -2.858398779380     0.291754234101    12.000000000000
         H           -9.541453273991    -1.174548938674     0.291534881805     1.007825032230
         H            9.528257705340    -1.276904545914     0.291248904701     1.007825032230
         H           -8.315169206580    -3.318135325222     0.296572622790     1.007825032230
         H            8.279150979760    -3.407126261903     0.296093790084     1.007825032230
         C           -6.144998351434    -4.927632744793     0.292296600043    12.000000000000
         C           -3.706787510729    -4.941247186127     0.282475631955    12.000000000000
         C           -4.955594220733    -5.643479445504     0.290442766600    12.000000000000
         C           -2.486125488958    -5.654771046419     0.295415302999    12.000000000000
         C           -1.254062498212    -4.956107522011     0.284239697013    12.000000000000
         C            1.201008411136    -4.969265860202     0.285420821271    12.000000000000
         C           -0.030340837145    -5.669505775148     0.293264020935    12.000000000000
         C            3.653745938597    -4.980729247424     0.286178821019    12.000000000000
         C            2.425488533144    -5.681160107537     0.295555751571    12.000000000000
         C            6.091961455079    -4.993243435396     0.292533234693    12.000000000000
         C            4.894972281879    -5.696333892967     0.291297038863    12.000000000000
         H           -7.089896550772    -5.466985314248     0.296699361724     1.007825032230
         H            7.031051046468    -5.542644008342     0.296113014457     1.007825032230
         C           -4.923549484930    -7.078806571687     0.289887997695    12.000000000000
         C           -2.485346250970    -7.087713549939     0.287378105259    12.000000000000
         C           -3.751690054511    -7.763932629646     0.287572784184    12.000000000000
         C           -0.037953119720    -7.099450346479     0.287593830406    12.000000000000
         C           -1.277960263133    -7.772889856676     0.285609137645    12.000000000000
         C            2.409440157995    -7.114007484012     0.288457031217    12.000000000000
         C            1.194745774421    -7.786170837572     0.286304740336    12.000000000000
         C            4.847616889766    -7.131247582589     0.290963845877    12.000000000000
         C            3.668467443144    -7.803773464953     0.288615411513    12.000000000000
         H           -5.869944513148    -7.613816070051     0.291432034560     1.007825032230
         H            5.788245462656    -7.676317661324     0.292090965359     1.007825032230
         H           -3.753531102181    -8.851057041246     0.285736869755     1.007825032230
         H           -1.284308568626    -8.860860864507     0.281181753786     1.007825032230
         H            1.189217411964    -8.874146092599     0.282212103645     1.007825032230
         H            3.658542452092    -8.890846106063     0.286960870091     1.007825032230

  Charge       = 0
  Multiplicity = 1
  Basis Set: JUN-CC-PVDZ
    Blend: JUN-CC-PVDZ
  Basis Set: (JUN-CC-PVDZ AUX)
    Blend: JUN-CC-PVDZ-JKFIT

    Orbital Energies [Eh]
    ---------------------

    Doubly Occupied:

       1A    -11.264110     2A    -11.263749     3A    -11.263747
       4A    -11.263331     5A    -11.263328     6A    -11.263297
       7A    -11.263149     8A    -11.263146     9A    -11.263138
      10A    -11.262918    11A    -11.262790    12A    -11.262785
      13A    -11.262295    14A    -11.262292    15A    -11.262268
      16A    -11.262268    17A    -11.262160    18A    -11.262154
      19A    -11.262101    20A    -11.262064    21A    -11.262062
      22A    -11.261951    23A    -11.261948    24A    -11.261790
      25A    -11.261787    26A    -11.261764    27A    -11.261757
      28A    -11.261721    29A    -11.261713    30A    -11.261622
      31A    -11.261601    32A    -11.261597    33A    -11.261586
      34A    -11.261566    35A    -11.261565    36A    -11.261543
      37A    -11.261370    38A    -11.261361    39A    -11.261355
      40A    -11.261349    41A    -11.261344    42A    -11.261339
      43A    -11.261325    44A    -11.261309    45A    -11.261305
      46A    -11.261283    47A    -11.261279    48A    -11.261274
      49A    -11.261097    50A    -11.261063    51A    -11.261060
      52A    -11.260980    53A    -11.260979    54A    -11.260919
      55A    -11.259961    56A    -11.259948    57A    -11.259945
      58A    -11.259916    59A    -11.259914    60A    -11.259898
      61A    -11.259334    62A    -11.259308    63A    -11.259306
      64A    -11.259253    65A    -11.259251    66A    -11.259222
      67A    -11.258964    68A    -11.258947    69A    -11.258944
      70A    -11.258917    71A    -11.258914    72A    -11.258903
      73A    -11.254558    74A    -11.254557    75A    -11.254553
      76A    -11.254552    77A    -11.254550    78A    -11.254548
      79A    -11.253693    80A    -11.253691    81A    -11.253689
      82A    -11.253687    83A    -11.253686    84A    -11.253682
      85A    -11.253608    86A    -11.253607    87A    -11.253605
      88A    -11.253603    89A    -11.253602    90A    -11.253597
      91A    -11.253085    92A    -11.253085    93A    -11.253081
      94A    -11.253079    95A    -11.253078    96A    -11.253076
      97A     -1.253999    98A     -1.239051    99A     -1.239051
     100A     -1.220515   101A     -1.220510   102A     -1.215487
     103A     -1.201089   104A     -1.195653   105A     -1.188190
     106A     -1.188188   107A     -1.173810   108A     -1.173807
     109A     -1.155680   110A     -1.155677   111A     -1.152766
     112A     -1.144766   113A     -1.144763   114A     -1.128621
     115A     -1.114766   116A     -1.113206   117A     -1.112529
     118A     -1.112514   119A     -1.111661   120A     -1.088478
     121A     -1.088463   122A     -1.077004   123A     -1.077002
     124A     -1.067663   125A     -1.067634   126A     -1.065022
     127A     -1.046849   128A     -1.046841   129A     -1.040532
     130A     -1.038777   131A     -1.038776   132A     -1.025289
     133A     -1.021438   134A     -1.021387   135A     -1.007225
     136A     -1.006863   137A     -1.003840   138A     -1.000538
     139A     -1.000490   140A     -0.991115   141A     -0.971037
     142A     -0.970988   143A     -0.955926   144A     -0.955871
     145A     -0.905644   146A     -0.905601   147A     -0.905590
     148A     -0.905550   149A     -0.904390   150A     -0.892425
     151A     -0.892366   152A     -0.890412   153A     -0.890355
     154A     -0.889507   155A     -0.872260   156A     -0.869092
     157A     -0.851583   158A     -0.847919   159A     -0.847897
     160A     -0.845646   161A     -0.843070   162A     -0.834612
     163A     -0.834599   164A     -0.828156   165A     -0.828152
     166A     -0.784594   167A     -0.784583   168A     -0.783705
     169A     -0.783678   170A     -0.782337   171A     -0.782317
     172A     -0.782086   173A     -0.767039   174A     -0.760848
     175A     -0.750617   176A     -0.733526   177A     -0.727118
     178A     -0.727105   179A     -0.725133   180A     -0.724589
     181A     -0.724570   182A     -0.718536   183A     -0.713821
     184A     -0.713815   185A     -0.699620   186A     -0.699608
     187A     -0.686173   188A     -0.686001   189A     -0.685998
     190A     -0.682219   191A     -0.682209   192A     -0.678810
     193A     -0.653664   194A     -0.650915   195A     -0.650886
     196A     -0.649859   197A     -0.649843   198A     -0.649608
     199A     -0.640976   200A     -0.640949   201A     -0.640131
     202A     -0.639203   203A     -0.636064   204A     -0.636038
     205A     -0.629190   206A     -0.617745   207A     -0.615344
     208A     -0.615324   209A     -0.608845   210A     -0.608838
     211A     -0.599138   212A     -0.599102   213A     -0.598787
     214A     -0.598658   215A     -0.598633   216A     -0.598075
     217A     -0.595109   218A     -0.595096   219A     -0.594765
     220A     -0.594281   221A     -0.592000   222A     -0.591997
     223A     -0.587439   224A     -0.577830   225A     -0.577820
     226A     -0.575681   227A     -0.575677   228A     -0.573424
     229A     -0.569613   230A     -0.568184   231A     -0.568161
     232A     -0.566797   233A     -0.566786   234A     -0.560948
     235A     -0.558762   236A     -0.558743   237A     -0.558462
     238A     -0.554412   239A     -0.550578   240A     -0.547509
     241A     -0.544289   242A     -0.535026   243A     -0.534988
     244A     -0.533573   245A     -0.533551   246A     -0.528116
     247A     -0.528101   248A     -0.527840   249A     -0.517203
     250A     -0.517168   251A     -0.515377   252A     -0.515372
     253A     -0.509681   254A     -0.509665   255A     -0.498069
     256A     -0.496490   257A     -0.496464   258A     -0.493783
     259A     -0.493772   260A     -0.489465   261A     -0.481490
     262A     -0.477441   263A     -0.477438   264A     -0.474035
     265A     -0.469487   266A     -0.466569   267A     -0.466564
     268A     -0.458814   269A     -0.446733   270A     -0.446673
     271A     -0.441050   272A     -0.440795   273A     -0.440771
     274A     -0.434711   275A     -0.433929   276A     -0.407393
     277A     -0.407369   278A     -0.386412   279A     -0.386364
     280A     -0.385755   281A     -0.385754   282A     -0.383766
     283A     -0.354345   284A     -0.354329   285A     -0.350674
     286A     -0.338087   287A     -0.335624   288A     -0.335553
     289A     -0.332735   290A     -0.332729   291A     -0.307083
     292A     -0.301944   293A     -0.301881   294A     -0.300872
     295A     -0.286189   296A     -0.256491   297A     -0.253515
     298A     -0.253461   299A     -0.204281   300A     -0.204192

  @DF-RHF Final Energy: -3650.33919766630152

   => Energetics <=

    Nuclear Repulsion Energy =          15611.4211649754324753
    One-Electron Energy =              -36072.1224030121084070
    Two-Electron Energy =               16810.3620403703753254
    Total Energy =                      -3650.3391976663006062
 Dipole X            :         -0.0003336            0.0002304           -0.0001032
 Dipole Y            :          0.0012365           -0.0013052           -0.0000687
 Dipole Z            :       -327.9901732          327.9926308            0.0024576
 Magnitude           :                                                    0.0024607

    SAPT Results
  --------------------------------------------------------------------------------------------------------
    Electrostatics                  9.10445692 [mEh]       5.71313297 [kcal/mol]      23.90374835 [kJ/mol]
      Elst10,r                      9.10445692 [mEh]       5.71313297 [kcal/mol]      23.90374835 [kJ/mol]

    Exchange                        6.86581786 [mEh]       4.30836575 [kcal/mol]      18.02620231 [kJ/mol]
      Exch10                        6.86581786 [mEh]       4.30836575 [kcal/mol]      18.02620231 [kJ/mol]
      Exch10(S^2)                   6.86290033 [mEh]       4.30653497 [kcal/mol]      18.01854233 [kJ/mol]

    Induction                     -14.65761958 [mEh]      -9.19779515 [kcal/mol]     -38.48357491 [kJ/mol]
      Ind20,r                     -15.91129268 [mEh]      -9.98448689 [kcal/mol]     -41.77509317 [kJ/mol]
      Exch-Ind20,r                  1.71549755 [mEh]       1.07649097 [kcal/mol]       4.50403820 [kJ/mol]
      delta HF,r (2)               -0.46182446 [mEh]      -0.28979922 [kcal/mol]      -1.21251995 [kJ/mol]

    Dispersion                     -7.09597383 [mEh]      -4.45279080 [kcal/mol]     -18.63047672 [kJ/mol]
      Disp20                       -7.99432543 [mEh]      -5.01651494 [kcal/mol]     -20.98909851 [kJ/mol]
      Exch-Disp20                   0.89835160 [mEh]       0.56372414 [kcal/mol]       2.35862180 [kJ/mol]
      Disp20 (SS)                  -3.99716271 [mEh]      -2.50825747 [kcal/mol]     -10.49454926 [kJ/mol]
      Disp20 (OS)                  -3.99716271 [mEh]      -2.50825747 [kcal/mol]     -10.49454926 [kJ/mol]
      Exch-Disp20 (SS)              0.52111699 [mEh]       0.32700585 [kcal/mol]       1.36819246 [kJ/mol]
      Exch-Disp20 (OS)              0.37723461 [mEh]       0.23671829 [kcal/mol]       0.99042933 [kJ/mol]

  Total HF                          1.31265520 [mEh]       0.82370357 [kcal/mol]       3.44637574 [kJ/mol]
  Total SAPT0                      -5.78331863 [mEh]      -3.62908723 [kcal/mol]     -15.18410098 [kJ/mol]

  Special recipe for scaled SAPT0 (see Manual):
    Electrostatics sSAPT0           9.10445692 [mEh]       5.71313297 [kcal/mol]      23.90374835 [kJ/mol]
    Exchange sSAPT0                 6.86581786 [mEh]       4.30836575 [kcal/mol]      18.02620231 [kJ/mol]
    Induction sSAPT0              -14.65543079 [mEh]      -9.19642167 [kcal/mol]     -38.47782825 [kJ/mol]
    Dispersion sSAPT0              -7.09482763 [mEh]      -4.45207155 [kcal/mol]     -18.62746737 [kJ/mol]
  Total sSAPT0                     -5.77998365 [mEh]      -3.62699450 [kcal/mol]     -15.17534497 [kJ/mol]
  --------------------------------------------------------------------------------------------------------

*** Psi4 exiting successfully. Buy a developer a beer!
