                               Psi4 1.9 release

  ==> Input File <==

--------------------------------------------------------------------------
memory 32 GB # how much memory is available ! Depends on the nodes/cores !

molecule dimer {
# monomer A
-1 1    # Charge and multiplicity
B -0.000046  0.000337 2.799994
F -1.153597  0.000048 3.615641
F  1.153661 -0.000581 3.615641
F -0.000019 -1.153637 1.984360
F -0.000019  1.153978 1.984360
--
# monomer B
0 1     # Charge and multiplicity
C   1.22531237526482      0.70753866091955      0.00613762728373
C   1.22532433589282     -0.70753852257020     -0.00619318228664
C   -0.00000567409046      1.41496628609039     -0.00672680580738
C   2.45644923379077      1.41832825917820      0.00902448468363
C   0.00001130712078     -1.41497612663474      0.00347275151708
C   -1.22530046906674      0.70754574598412      0.00838914760619
C   2.45643823516184     -1.41832293188077     -0.00843833914343
C   -0.00000085313587      2.83680140328112     -0.00913035594137
C   3.68182717731192      0.70931832800114     -0.00808954934571
C   2.45512052870677      2.83422403348893     -0.00819210630633
C   3.68182158506039     -0.70933346742900      0.00798293467272
C   -1.22531311884624     -0.70752714354401     -0.00512042085974
C   1.22670006104402      3.54346985599427      0.00816696660346
C   0.00000526469929     -2.83678176723568      0.00832091913869
C   -2.45643555300670      1.41831729028492      0.00842454345199
C   2.45512389762097     -2.83422965658853      0.00783102630520
C   -1.22671388474763      3.54346943575023      0.00827029982280
C   4.91451777504333      1.42717324448953     -0.00160886631602
C   3.69315067131765      3.54279566454522     -0.00155906667985
C   -2.45643712022637     -1.41831290883911     -0.00846337726810
C   1.22670532178455     -3.54347386990643     -0.00780316414624
C   -2.45512491866593      2.83421703463423     -0.00818572995999
C   4.91452486062398     -1.42718653794377      0.00136387641845
C   1.22142509354026      4.97013443726031      0.00150231067809
C   4.89300870916237      2.82518837202648     -0.00039219795739
C   -1.22669652864725     -3.54347062507680     -0.00753595973677
C   -3.68181849668397      0.70932533873199     -0.00807686886569
C   3.69314758099218     -3.54280096939050      0.00148176697923
C   -1.22143177215231      4.97012866986289      0.00168580605083
C   6.13477145276790      0.68054831910577     -0.00083909176631
C   3.65678936045204      4.97295361556775     -0.00065042889723
C   -2.45512642789169     -2.83421472106065      0.00758666850712
C   -3.68181869921921     -0.70932533146830      0.00810055625144
C   4.89301309775526     -2.82519973363176      0.00021895393805
C   -0.00000059327114      5.65044773803267      0.00045449734393
C   6.13477559217374     -0.68055448207492      0.00042622874941
C   2.47813196269732      5.65357712333155      0.00063835075260
C   1.22142288457925     -4.97012668293268     -0.00129718634452
C   -3.69316190412301      3.54279732619245     -0.00139355922051
C   -1.22142804110313     -4.97011793159564     -0.00140994817719
C   -4.91452132810043      1.42717581899491     -0.00153192130862
C   3.65678749952045     -4.97295485423912      0.00080007163680
C   -2.47813805026426      5.65357479452875      0.00092287576113
C   -3.69314125872231     -3.54278984697859      0.00136564082345
C   -4.91451200321153     -1.42718062802730      0.00139857359209
C   -0.00000552908399     -5.65043791501335      0.00005899322272
C   -4.89302000425900      2.82518897091939     -0.00040227981744
C   2.47812647313991     -5.65357317188818     -0.00029052915548
C   -3.65679823041642      4.97295655404175     -0.00047374852278
C   -4.89299899901461     -2.82519139505969      0.00006491824035
C   -2.47812801824129     -5.65356579800621     -0.00056571680280
C   -6.13477002348955      0.68054913825639     -0.00086464346868
C   -3.65678835334731     -4.97294365097028      0.00058578382008
C   -6.13476456307132     -0.68055354348201      0.00040575295444
H   5.83528897565761      3.36927626695423      0.00396712770529
H   7.07385965258860      1.22821762089947     -0.00037744837300
H   4.60066374401555      5.51238117445323     -0.00014522814529
H   5.83528386714679     -3.36930568472863     -0.00423551337640
H   -0.00001167146422      6.73853104613662     -0.00389474766392
H   7.07386165167227     -1.22822657074368     -0.00008250934481
H   2.47331421164041      6.74068466339473      0.00017162982210
H   4.60066897122302     -5.51237575717576      0.00039007446835
H   -2.47331820069565      6.74068209160650      0.00047297644710
H   -0.00000978838621     -6.73852780445195      0.00458867820736
H   -5.83530143450167      3.36927132229595      0.00410314985360
H   2.47330840367253     -6.74068500242887      0.00027980126949
H   -4.60067436136587      5.51237839860371      0.00002010017831
H   -5.83527902699321     -3.36928859177951     -0.00451481925734
H   -2.47329986759855     -6.74067870613986     -0.00016951527498
H   -7.07385728692578      1.22822084484047     -0.00046143985387
H   -4.60067330624313     -5.51236229778631      0.00021776644566
H   -7.07385645456741     -1.22822025997701     -0.00017736581114

    units angstrom      # Angstroms are the default
    no_reorient         # Geometry fixed, default
    symmetry c1         # C1 symmetry, default
}

set {
    scf_type DF         # Density fitting, faster than exact integrals
    freeze_core True    # Freeze core electrons
    basis jun-cc-pVDZ   # Jun-cc-pVDZ basis set, recommended for sSAPT0 in https://doi.org/10.1063/1.4867135
}

energy('ssapt0')        # Compute sSAPT0 energy, includes also SAPT0
--------------------------------------------------------------------------

  //              Dimer HF             //
    Molecular point group: c1
  Charge       = -1
  Multiplicity = 1
  Basis Set: JUN-CC-PVDZ
    Blend: JUN-CC-PVDZ
  Basis Set: (JUN-CC-PVDZ AUX)
    Blend: JUN-CC-PVDZ-JKFIT
  @DF-RHF Final Energy: -2478.56003296183599
    Total Energy =                      -2478.5600329618355318
 Dipole X            :         -0.0002176           -0.0000160           -0.0002336
 Dipole Y            :         -0.0032737           -0.0001716           -0.0034453
 Dipole Z            :         14.3299906          -17.1647593           -2.8347687
 Magnitude           :                                                    2.8347708
  //            Monomer A HF           //
    Molecular point group: c1
  Multiplicity = 1
  Basis Set: JUN-CC-PVDZ
    Blend: JUN-CC-PVDZ
  Basis Set: (JUN-CC-PVDZ AUX)
    Blend: JUN-CC-PVDZ-JKFIT
  @DF-RHF Final Energy:  -422.77587555401925
    Total Energy =                       -422.7758755540192510
  //            Monomer B HF           //
    Molecular point group: c1

    Geometry (in Angstrom), charge = 0, multiplicity = 1:

       Center              X                  Y                   Z               Mass
    ------------   -----------------  -----------------  -----------------  -----------------
      Gh(B)          -0.000046449334     0.000336519434     2.476541196119    11.009305360000
      Gh(F)          -1.153597449334     0.000047519434     3.292188196119    18.998403162730
      Gh(F)           1.153660550666    -0.000581480566     3.292188196119    18.998403162730
      Gh(F)          -0.000019449334    -1.153637480566     1.660907196119    18.998403162730
      Gh(F)          -0.000019449334     1.153977519434     1.660907196119    18.998403162730
         C            1.225311925931     0.707538180353    -0.317315176597    12.000000000000
         C            1.225323886559    -0.707539003137    -0.329645986168    12.000000000000
         C           -0.000006123424     1.414965805524    -0.330179609688    12.000000000000
         C            2.456448784457     1.418327778612    -0.314428319197    12.000000000000
         C            0.000010857787    -1.414976607201    -0.319980052364    12.000000000000
         C           -1.225300918401     0.707545265418    -0.315063656275    12.000000000000
         C            2.456437785828    -1.418323412447    -0.331891143024    12.000000000000
         C           -0.000001302470     2.836800922715    -0.332583159822    12.000000000000
         C            3.681826727978     0.709317847435    -0.331542353227    12.000000000000
         C            2.455120079373     2.834223552923    -0.331644910187    12.000000000000
         C            3.681821135726    -0.709333947995    -0.315469869208    12.000000000000
         C           -1.225313568180    -0.707527624110    -0.328573224741    12.000000000000
         C            1.226699611710     3.543469375428    -0.315285837278    12.000000000000
         C            0.000004815365    -2.836782247802    -0.315131884742    12.000000000000
         C           -2.456436002341     1.418316809719    -0.315028260429    12.000000000000
         C            2.455123448287    -2.834230137155    -0.315621777576    12.000000000000
         C           -1.226714334082     3.543468955184    -0.315182504058    12.000000000000
         C            4.914517325709     1.427172763923    -0.325061670197    12.000000000000
         C            3.693150221984     3.542795183979    -0.325011870561    12.000000000000
         C           -2.456437569560    -1.418313389406    -0.331916181149    12.000000000000
         C            1.226704872451    -3.543474350473    -0.331255968027    12.000000000000
         C           -2.455125368000     2.834216554068    -0.331638533841    12.000000000000
         C            4.914524411290    -1.427187018510    -0.322088927463    12.000000000000
         C            1.221424644206     4.970133956694    -0.321950493203    12.000000000000
         C            4.893008259828     2.825187891460    -0.323845001838    12.000000000000
         C           -1.226696977981    -3.543471105643    -0.330988763618    12.000000000000
         C           -3.681818946018     0.709324858166    -0.331529672747    12.000000000000
         C            3.693147131658    -3.542801449957    -0.321971036902    12.000000000000
         C           -1.221432221486     4.970128189296    -0.321766997830    12.000000000000
         C            6.134771003434     0.680547838539    -0.324291895647    12.000000000000
         C            3.656788911118     4.972953135001    -0.324103232778    12.000000000000
         C           -2.455126877226    -2.834215201627    -0.315866135374    12.000000000000
         C           -3.681819148553    -0.709325812035    -0.315352247630    12.000000000000
         C            4.893012648421    -2.825200214198    -0.323233849943    12.000000000000
         C           -0.000001042605     5.650447257466    -0.322998306537    12.000000000000
         C            6.134775142840    -0.680554962641    -0.323026575132    12.000000000000
         C            2.478131513363     5.653576642765    -0.322814453128    12.000000000000
         C            1.221422435245    -4.970127163499    -0.324749990226    12.000000000000
         C           -3.693162353457     3.542796845626    -0.324846363102    12.000000000000
         C           -1.221428490437    -4.970118412162    -0.324862752058    12.000000000000
         C           -4.914521777434     1.427175338429    -0.324984725190    12.000000000000
         C            3.656787050187    -4.972955334806    -0.322652732244    12.000000000000
         C           -2.478138499598     5.653574313962    -0.322529928120    12.000000000000
         C           -3.693141708056    -3.542790327545    -0.322087163058    12.000000000000
         C           -4.914512452545    -1.427181108594    -0.322054230289    12.000000000000
         C           -0.000005978418    -5.650438395580    -0.323393810658    12.000000000000
         C           -4.893020453593     2.825188490353    -0.323855083698    12.000000000000
         C            2.478126023806    -5.653573652455    -0.323743333037    12.000000000000
         C           -3.656798679750     4.972956073475    -0.323926552404    12.000000000000
         C           -4.892999448349    -2.825191875626    -0.323387885641    12.000000000000
         C           -2.478128467575    -5.653566278573    -0.324018520684    12.000000000000
         C           -6.134770472823     0.680548657690    -0.324317447350    12.000000000000
         C           -3.656788802681    -4.972944131537    -0.322867020061    12.000000000000
         C           -6.134765012405    -0.680554024048    -0.323047050927    12.000000000000
         H            5.835288526324     3.369275786388    -0.319485676176     1.007825032230
         H            7.073859203255     1.228217140333    -0.323830252254     1.007825032230
         H            4.600663294682     5.512380693887    -0.323598032026     1.007825032230
         H            5.835283417813    -3.369306165295    -0.327688317257     1.007825032230
         H           -0.000012120798     6.738530565570    -0.327347551545     1.007825032230
         H            7.073861202338    -1.228227051310    -0.323535313226     1.007825032230
         H            2.473313762307     6.740684182828    -0.323281174059     1.007825032230
         H            4.600668521889    -5.512376237742    -0.323062729413     1.007825032230
         H           -2.473318650030     6.740681611040    -0.322979827434     1.007825032230
         H           -0.000010237720    -6.738528285018    -0.318864125674     1.007825032230
         H           -5.835301883836     3.369270841730    -0.319349654027     1.007825032230
         H            2.473307954339    -6.740685482995    -0.323173002612     1.007825032230
         H           -4.600674810700     5.512377918037    -0.323432703703     1.007825032230
         H           -5.835279476327    -3.369289072346    -0.327967623138     1.007825032230
         H           -2.473300316932    -6.740679186706    -0.323622319156     1.007825032230
         H           -7.073857736260     1.228220364274    -0.323914243735     1.007825032230
         H           -4.600673755577    -5.512362778353    -0.323235037435     1.007825032230
         H           -7.073856903901    -1.228220740543    -0.323630169692     1.007825032230

  Charge       = 0
  Multiplicity = 1
  Basis Set: JUN-CC-PVDZ
    Blend: JUN-CC-PVDZ
  Basis Set: (JUN-CC-PVDZ AUX)
    Blend: JUN-CC-PVDZ-JKFIT

    Orbital Energies [Eh]
    ---------------------

    Doubly Occupied:

       1A    -11.260743     2A    -11.260378     3A    -11.260176
       4A    -11.259536     5A    -11.259408     6A    -11.259257
       7A    -11.259007     8A    -11.258965     9A    -11.258904
      10A    -11.258667    11A    -11.258598    12A    -11.258492
      13A    -11.258449    14A    -11.258447    15A    -11.258433
      16A    -11.258406    17A    -11.258388    18A    -11.258375
      19A    -11.258374    20A    -11.258370    21A    -11.258363
      22A    -11.258331    23A    -11.258290    24A    -11.258107
      25A    -11.257266    26A    -11.257216    27A    -11.257195
      28A    -11.257074    29A    -11.257072    30A    -11.256991
      31A    -11.256355    32A    -11.256294    33A    -11.256278
      34A    -11.256184    35A    -11.256173    36A    -11.256132
      37A    -11.252274    38A    -11.252273    39A    -11.252264
      40A    -11.252263    41A    -11.252262    42A    -11.252259
      43A    -11.251362    44A    -11.251361    45A    -11.251355
      46A    -11.251353    47A    -11.251324    48A    -11.251324
      49A    -11.250836    50A    -11.250835    51A    -11.250826
      52A    -11.250824    53A    -11.250822    54A    -11.250820
      55A     -1.243952    56A     -1.219751    57A     -1.219721
      58A     -1.189490    59A     -1.189474    60A     -1.180854
      61A     -1.157525    62A     -1.148926    63A     -1.135405
      64A     -1.135389    65A     -1.113158    66A     -1.113147
      67A     -1.082349    68A     -1.082349    69A     -1.078521
      70A     -1.065950    71A     -1.065945    72A     -1.039346
      73A     -1.024174    74A     -1.021663    75A     -1.021632
      76A     -1.017699    77A     -1.012766    78A     -0.986947
      79A     -0.986897    80A     -0.961834    81A     -0.961790
      82A     -0.894247    83A     -0.894223    84A     -0.887841
      85A     -0.886087    86A     -0.886024    87A     -0.881324
      88A     -0.881279    89A     -0.861850    90A     -0.837395
      91A     -0.818156    92A     -0.816517    93A     -0.812068
      94A     -0.812053    95A     -0.794647    96A     -0.794640
      97A     -0.746546    98A     -0.744778    99A     -0.733326
     100A     -0.733316   101A     -0.732141   102A     -0.732115
     103A     -0.716428   104A     -0.698924   105A     -0.698921
     106A     -0.693518   107A     -0.693512   108A     -0.661183
     109A     -0.653004   110A     -0.651056   111A     -0.650218
     112A     -0.650213   113A     -0.639322   114A     -0.639317
     115A     -0.629646   116A     -0.627455   117A     -0.627428
     118A     -0.606477   119A     -0.605800   120A     -0.601587
     121A     -0.599677   122A     -0.599657   123A     -0.593580
     124A     -0.591110   125A     -0.591103   126A     -0.585258
     127A     -0.576385   128A     -0.576360   129A     -0.567295
     130A     -0.567281   131A     -0.565877   132A     -0.565849
     133A     -0.558633   134A     -0.554795   135A     -0.554792
     136A     -0.538555   137A     -0.538552   138A     -0.538160
     139A     -0.538143   140A     -0.529668   141A     -0.528193
     142A     -0.522817   143A     -0.522816   144A     -0.500463
     145A     -0.495570   146A     -0.493191   147A     -0.487809
     148A     -0.485010   149A     -0.481694   150A     -0.481687
     151A     -0.470376   152A     -0.470314   153A     -0.450926
     154A     -0.450842   155A     -0.439048   156A     -0.439043
     157A     -0.404705   158A     -0.404662   159A     -0.403331
     160A     -0.375411   161A     -0.375403   162A     -0.349101
     163A     -0.337514   164A     -0.336519   165A     -0.336458
     166A     -0.311038   167A     -0.298100   168A     -0.284263
     169A     -0.284214   170A     -0.224862   171A     -0.224802

  @DF-RHF Final Energy: -2055.89449015725813

   => Energetics <=

    Nuclear Repulsion Energy =           6452.5568002797781446
    One-Electron Energy =              -15636.4995702642445394
    Two-Electron Energy =                7128.0482798272096261
    Total Energy =                      -2055.8944901572576782
 Dipole X            :          0.0000471            0.0000112            0.0000583
 Dipole Y            :          0.0001606           -0.0000531            0.0001074
 Dipole Z            :        209.0474056         -209.0445701            0.0028355
 Magnitude           :                                                    0.0028381

    SAPT Results
  --------------------------------------------------------------------------------------------------------
    Electrostatics                -96.07715322 [mEh]     -60.28932386 [kcal/mol]    -252.25053103 [kJ/mol]
      Elst10,r                    -96.07715322 [mEh]     -60.28932386 [kcal/mol]    -252.25053103 [kJ/mol]

    Exchange                      251.03302353 [mEh]     157.52560050 [kcal/mol]     659.08711247 [kJ/mol]
      Exch10                      251.03302353 [mEh]     157.52560050 [kcal/mol]     659.08711247 [kJ/mol]
      Exch10(S^2)                 241.87654938 [mEh]     151.77982622 [kcal/mol]     635.04679290 [kJ/mol]

    Induction                     -44.62312087 [mEh]     -28.00143109 [kcal/mol]    -117.15798769 [kJ/mol]
      Ind20,r                    -160.32518948 [mEh]    -100.60557528 [kcal/mol]    -420.93372699 [kJ/mol]
      Exch-Ind20,r                124.28036972 [mEh]      77.98710940 [kcal/mol]     326.29806574 [kJ/mol]
      delta HF,r (2)               -8.57830110 [mEh]      -5.38296521 [kcal/mol]     -22.52232644 [kJ/mol]

    Dispersion                    -39.23857426 [mEh]     -24.62257708 [kcal/mol]    -103.02086252 [kJ/mol]
      Disp20                      -57.69505858 [mEh]     -36.20419585 [kcal/mol]    -151.47835544 [kJ/mol]
      Exch-Disp20                  18.45648433 [mEh]      11.58161877 [kcal/mol]      48.45749292 [kJ/mol]
      Disp20 (SS)                 -28.84752929 [mEh]     -18.10209793 [kcal/mol]     -75.73917772 [kJ/mol]
      Disp20 (OS)                 -28.84752929 [mEh]     -18.10209793 [kcal/mol]     -75.73917772 [kJ/mol]
      Exch-Disp20 (SS)              9.44732406 [mEh]       5.92828535 [kcal/mol]      24.80394590 [kJ/mol]
      Exch-Disp20 (OS)              9.00916027 [mEh]       5.65333342 [kcal/mol]      23.65354702 [kJ/mol]

  Total HF                        110.33274944 [mEh]      69.23484554 [kcal/mol]     289.67859375 [kJ/mol]
  Total SAPT0                      71.09417518 [mEh]      44.61226846 [kcal/mol]     186.65773123 [kJ/mol]

  Special recipe for scaled SAPT0 (see Manual):
    Electrostatics sSAPT0         -96.07715322 [mEh]     -60.28932386 [kcal/mol]    -252.25053103 [kJ/mol]
    Exchange sSAPT0               251.03302353 [mEh]     157.52560050 [kcal/mol]     659.08711247 [kJ/mol]
    Induction sSAPT0              -29.96780311 [mEh]     -18.80508036 [kcal/mol]     -78.68045623 [kJ/mol]
    Dispersion sSAPT0             -37.06215941 [mEh]     -23.25685615 [kcal/mol]     -97.30668612 [kJ/mol]
  Total sSAPT0                     87.92590779 [mEh]      55.17434013 [kcal/mol]     230.84943910 [kJ/mol]
  --------------------------------------------------------------------------------------------------------

*** Psi4 exiting successfully. Buy a developer a beer!
