                               Psi4 1.9 release

  ==> Input File <==

--------------------------------------------------------------------------
memory 64 GB # how much memory is available ! Depends on the nodes/cores !

molecule dimer {
# monomer A
+1 1    # Charge and multiplicity
C  0.680067 -1.215929 2.008042
C -0.680504 -1.215545 2.006014
N -1.085635  0.102779 2.005016
C  0.000108  0.884180 2.001740
C -2.477365  0.570758 1.955610
N  1.085222  0.102779 2.005016
H  1.385146 -2.033368 2.015870
H -1.385302 -2.033214 2.006204
H -0.000009  1.965269 1.999993
C  2.478117  0.567877 2.021908
H  2.490592  1.658130 1.994563
H  2.967028  0.220701 2.935354
H  3.001428  0.176405 1.146425
H -2.857359  0.490799 0.933539
H -3.082679 -0.042306 2.625694
H -2.518128  1.610706 2.282594
--
# monomer B
0 1     # Charge and multiplicity
C   -3.66844126402057      7.80375217008252      0.00190004133558
C   -4.84759871934653      7.13124183134024     -0.00046653359696
C   -4.89495929917518      5.69633040353158     -0.00103944469517
C   -3.65374067877320      4.98073034095895      0.00662099703436
C   -2.40942512149445      7.11398103667468      0.00209438359570
C   -2.42547734410473      5.68112195090346     -0.00491050527438
C   -1.19474401643570      7.78614419430947      0.00356656413763
C   0.03795902893699      7.09942164575698      0.00139585983271
C   0.03033258741920      5.66948955970466     -0.00408752508301
C   -1.20098450790502      4.96927034791531      0.00488220885047
C   1.27795782581485      7.77285944319479      0.00277170839332
C   2.48535808472416      7.08769688523756      0.00049722048857
C   2.48612868491717      5.65477081024076     -0.00644052849921
C   1.25408291964399      4.95607811366431      0.00518741308898
C   3.75171459140595      7.76391215098033      0.00062407186893
C   4.92356605618520      7.07878077698995     -0.00143240883900
C   4.95560727132542      5.64344746336949     -0.00159282164606
C   3.70680153420475      4.94121020833308      0.00349873852374
H   -3.65852113775815      8.89082741913536      0.00358502958574
H   -1.18921332975660      8.87412108735996      0.00753844057883
H   1.28429423888630      8.86083343548850      0.00693053253426
H   3.75354208679975      8.85103527897216      0.00214659618464
H   5.86995870320703      7.61379483465560     -0.00235777588134
H   -5.78823170750226      7.67630221293400     -0.00202638095293
C   -6.09197395869619      4.99326001364347     -0.00291168518608
C   -6.12866148031747      3.58258016879823     -0.00171050815740
C   -3.66457974004527      3.56418217974434     -0.00463560277484
C   -4.89429820469869      2.86108077590057      0.00453338221034
C   -2.43733499489796      2.84761165708481      0.00719617576166
C   -1.20922785759670      3.54788693497833     -0.00648285103018
C   1.24714157216223      3.53468075142962     -0.00729145743546
C   0.01517603956900      2.83311183930540      0.00439272578912
C   2.46764517244071      2.82128997725533      0.00449278391269
C   3.70254947457969      3.52466015442405     -0.00899517692985
C   6.14498038638375      4.92757236613191     -0.00282626685777
C   6.16658835886151      3.51658447594213     -0.00065971342101
C   4.92460995845939      2.80840792535402      0.00587903281610
H   7.08990550964105      5.46688776622306     -0.00658814770723
H   -7.03104175110130      5.54268795285765     -0.00714490013730
C   -7.33969804112295      2.85841153457957     -0.00333767559888
C   -7.36488195805880      1.47032337158330     -0.00157213747140
C   -4.90350460894690      1.44442681216000     -0.00628840166334
C   -6.13225715261081      0.73993935705394      0.00600164231964
C   -3.67687480051673      0.72669714267312      0.00433931473643
C   -2.44565658606518      1.42964113326212     -0.00597039546461
C   -1.22360068130162      0.71532450163492      0.00545886906656
C   0.00763786931376      1.41738314923765      0.00392452278437
C   1.23121980774686      0.70211669058719     -0.01490206287210
C   2.46082110053113      1.40329203612573      0.00460244601878
C   3.68443025419614      0.68719842821222      0.00377365974158
C   4.91870890153864      1.39173456118907     -0.00862816189375
C   7.36980207796101      2.77948220318441     -0.00242013321349
C   7.38016266612146      1.39121750785509     -0.00087345036788
C   6.13979953912259      0.67411862320065      0.00545489144369
H   -8.27919079934664      3.40711804112415     -0.00763522772059
H   8.31511347147953      3.31811809662368     -0.00663070901292
C   -8.59175593758115      0.72483255304480     -0.00123170985383
C   -8.59902460370342     -0.63263980622873      0.00089141472904
C   -6.13981313911873     -0.67413663715361     -0.00609792660607
C   -7.38018411213749     -1.39126618958160      0.00131813493501
C   -4.91868448025621     -1.39175501803000      0.00624257154343
C   -3.68443829568458     -0.68723731573599     -0.00478966852105
C   -2.46081704024768     -1.40334517882457      0.00575341766833
C   -1.23116201232071     -0.70217386488055     -0.00636696112346
C   -0.00756962538737     -1.41741884941102      0.00108956317991
C   1.22364771588843     -0.71527537726392      0.01109518512883
C   2.44567064933149     -1.42964328900682     -0.00065482763106
C   3.67686670284649     -0.72670743155550     -0.00479541202602
C   6.13224884641929     -0.73997883984993     -0.00632338623858
C   4.90351914550401     -1.44445752054090      0.00751768830159
C   8.59901484869081      0.63260386666793     -0.00101133422380
C   8.59174548810050     -0.72485086719319      0.00072504603735
C   7.36486276438985     -1.47033266560598      0.00049486934466
H   -9.52830597181814      1.27684744919284     -0.00270163681798
H   9.54141097460619      1.17457248844457     -0.00206336648518
C   -7.36983790976868     -2.77954514593389      0.00312634335708
C   -4.92459910905015     -2.80843725734101     -0.00460528907921
C   -6.16662249566744     -3.51665219282533      0.00169655107992
C   -3.70251035970491     -3.52468154912026      0.00571878010666
C   -2.46764698511392     -2.82132596280400     -0.00632585824990
C   -0.01513347410770     -2.83314164539971     -0.00604426974092
C   -1.24712184122656     -3.53473217556300      0.00551968366725
C   1.20924506964357     -3.54791467864352      0.00805871345849
C   2.43733602215464     -2.84764173817541     -0.00608104485234
C   4.89430234377080     -2.86112296828604     -0.00526030478103
C   3.66461525504104     -3.56421984553201      0.00761911515957
C   6.12863901474565     -3.58258405771778      0.00096495711699
C   7.33967266469532     -2.85841330737039      0.00248018319869
H   -9.54144911125902     -1.17456346666430      0.00226083090216
H   9.52826186807155     -1.27691907390448      0.00197485379837
H   -8.31516504384864     -3.31814985321231      0.00729857188773
H   8.27915514249207     -3.40714078989363      0.00681973918158
C   -6.14499418870218     -4.92764727278338      0.00302254913999
C   -3.70678334799751     -4.94126171411716     -0.00679841894792
C   -4.95559005800169     -5.64349397349412      0.00116871569699
C   -2.48612132622665     -5.65478557440947      0.00614125209662
C   -1.25405833548005     -4.95612205000132     -0.00503435388927
C   1.20101257386816     -4.96928038819302     -0.00385322963129
C   -0.03033667441341     -5.66952030313900      0.00398997003238
C   3.65375010132847     -4.98074377541453     -0.00309522988330
C   2.42549269587528     -5.68117463552727      0.00628170066869
C   6.09196561781097     -4.99325796338655      0.00325918379042
C   4.89497644461045     -5.69634842095790      0.00202298796027
H   -7.08989238804069     -5.46699984223871      0.00742531082125
H   7.03105520920009     -5.54265853633254      0.00683896355417
C   -4.92354532219813     -7.07882109967734      0.00061394679214
C   -2.48534208823777     -7.08772807792913     -0.00189594564379
C   -3.75168589177895     -7.76394715763627     -0.00170126671874
C   -0.03794895698805     -7.09946487446944     -0.00168022049625
C   -1.27795610040136     -7.77290438466689     -0.00366491325785
C   2.40944432072629     -7.11402201200282     -0.00081701968533
C   1.19474993715296     -7.78618536556242     -0.00296931056689
C   4.84762105249800     -7.13126211057943      0.00168979497423
C   3.66847160587561     -7.80378799294376     -0.00065863938960
H   -5.86994035041618     -7.61383059804164      0.00215798365757
H   5.78824962538815     -7.67633218931421      0.00281691445618
H   -3.75352693944918     -8.85107156923607     -0.00353718114765
H   -1.28430440589466     -8.86087539249706     -0.00809229711623
H   1.18922157469537     -8.87416062058945     -0.00706194725726
H   3.65854661482387     -8.89086063405326     -0.00231318081200

    units angstrom      # Angstroms are the default
    no_reorient         # Geometry fixed, default
    symmetry c1         # C1 symmetry, default
}

set {
    scf_type DF         # Density fitting, faster than exact integrals
    freeze_core True    # Freeze core electrons
    basis jun-cc-pVDZ   # Jun-cc-pVDZ basis set, recommended for sSAPT0 in https://doi.org/10.1063/1.4867135
}

energy('ssapt0')        # Compute sSAPT0 energy, includes also SAPT0
--------------------------------------------------------------------------

  //              Dimer HF             //
    Molecular point group: c1
  Charge       = 1
  Multiplicity = 1
  Basis Set: JUN-CC-PVDZ
    Blend: JUN-CC-PVDZ
  Basis Set: (JUN-CC-PVDZ AUX)
    Blend: JUN-CC-PVDZ-JKFIT
  @DF-RHF Final Energy: -3952.85080810944919
    Total Energy =                      -3952.8508081094478257
 Dipole X            :         -0.0769319            0.0004804           -0.0764515
 Dipole Y            :         -1.6011737            1.8866171            0.2854434
 Dipole Z            :        -10.4555583           12.0898923            1.6343340
 Magnitude           :                                                    1.6608343
  //            Monomer A HF           //
    Molecular point group: c1
  Multiplicity = 1
  Basis Set: JUN-CC-PVDZ
    Blend: JUN-CC-PVDZ
  Basis Set: (JUN-CC-PVDZ AUX)
    Blend: JUN-CC-PVDZ-JKFIT
  @DF-RHF Final Energy:  -303.30272616725978
    Total Energy =                       -303.3027261672597774
  //            Monomer B HF           //
    Molecular point group: c1

    Geometry (in Angstrom), charge = 0, multiplicity = 1:

       Center              X                  Y                   Z               Mass
    ------------   -----------------  -----------------  -----------------  -----------------
      Gh(C)           0.680062820275    -1.215917226251     1.855554337776    12.000000000000
      Gh(C)          -0.680508179725    -1.215533226251     1.853526337776    12.000000000000
      Gh(N)          -1.085639179725     0.102790773749     1.852528337776    14.003074004430
      Gh(C)           0.000103820275     0.884191773749     1.849252337776    12.000000000000
      Gh(C)          -2.477369179725     0.570769773749     1.803122337776    12.000000000000
      Gh(N)           1.085217820275     0.102790773749     1.852528337776    14.003074004430
      Gh(H)           1.385141820275    -2.033356226251     1.863382337776     1.007825032230
      Gh(H)          -1.385306179725    -2.033202226251     1.853716337776     1.007825032230
      Gh(H)          -0.000013179725     1.965280773749     1.847505337776     1.007825032230
      Gh(C)           2.478112820275     0.567888773749     1.869420337776    12.000000000000
      Gh(H)           2.490587820275     1.658141773750     1.842075337776     1.007825032230
      Gh(H)           2.967023820275     0.220712773749     2.782866337776     1.007825032230
      Gh(H)           3.001423820275     0.176416773749     0.993937337776     1.007825032230
      Gh(H)          -2.857363179725     0.490810773749     0.781051337776     1.007825032230
      Gh(H)          -3.082683179725    -0.042294226251     2.473206337776     1.007825032230
      Gh(H)          -2.518132179725     1.610717773749     2.130106337776     1.007825032230
         C           -3.668445443746     7.803763943832    -0.150587620888    12.000000000000
         C           -4.847602899072     7.131253605090    -0.152954195821    12.000000000000
         C           -4.894963478901     5.696342177281    -0.153527106919    12.000000000000
         C           -3.653744858499     4.980742114708    -0.145866665189    12.000000000000
         C           -2.409429301220     7.113992810424    -0.150393278628    12.000000000000
         C           -2.425481523830     5.681133724653    -0.157398167498    12.000000000000
         C           -1.194748196161     7.786155968059    -0.148921098086    12.000000000000
         C            0.037954849212     7.099433419506    -0.151091802391    12.000000000000
         C            0.030328407694     5.669501333454    -0.156575187307    12.000000000000
         C           -1.200988687630     4.969282121665    -0.147605453373    12.000000000000
         C            1.277953646089     7.772871216944    -0.149715953830    12.000000000000
         C            2.485353904999     7.087708658987    -0.151990441735    12.000000000000
         C            2.486124505192     5.654782583990    -0.158928190723    12.000000000000
         C            1.254078739919     4.956089887414    -0.147300249135    12.000000000000
         C            3.751710411681     7.763923924730    -0.151863590355    12.000000000000
         C            4.923561876460     7.078792550739    -0.153920071063    12.000000000000
         C            4.955603091600     5.643459237119    -0.154080483870    12.000000000000
         C            3.706797354479     4.941221982083    -0.148988923700    12.000000000000
         H           -3.658525317484     8.890839192885    -0.148902632638     1.007825032230
         H           -1.189217509482     8.874132861109    -0.144949221645     1.007825032230
         H            1.284290059161     8.860845209238    -0.145557129689     1.007825032230
         H            3.753537907074     8.851047052722    -0.150341066039     1.007825032230
         H            5.869954523482     7.613806608405    -0.154845438105     1.007825032230
         H           -5.788235887228     7.676313986684    -0.154514043177     1.007825032230
         C           -6.091978138422     4.993271787393    -0.155399347410    12.000000000000
         C           -6.128665660043     3.582591942548    -0.154198170381    12.000000000000
         C           -3.664583919771     3.564193953494    -0.157123264998    12.000000000000
         C           -4.894302384424     2.861092549650    -0.147954280013    12.000000000000
         C           -2.437339174623     2.847623430834    -0.145291486462    12.000000000000
         C           -1.209232037322     3.547898708728    -0.158970513254    12.000000000000
         C            1.247137392437     3.534692525179    -0.159779119659    12.000000000000
         C            0.015171859844     2.833123613055    -0.148094936435    12.000000000000
         C            2.467640992715     2.821301751005    -0.147994878311    12.000000000000
         C            3.702545294854     3.524671928174    -0.161482839153    12.000000000000
         C            6.144976206658     4.927584139881    -0.155313929081    12.000000000000
         C            6.166584179136     3.516596249692    -0.153147375645    12.000000000000
         C            4.924605778734     2.808419699104    -0.146608629408    12.000000000000
         H            7.089901329916     5.466899539973    -0.159075809931     1.007825032230
         H           -7.031045930827     5.542699726607    -0.159632562361     1.007825032230
         C           -7.339702220848     2.858423308329    -0.155825337823    12.000000000000
         C           -7.364886137784     1.470335145333    -0.154059799695    12.000000000000
         C           -4.903508788672     1.444438585909    -0.158776063887    12.000000000000
         C           -6.132261332336     0.739951130803    -0.146486019904    12.000000000000
         C           -3.676878980242     0.726708916423    -0.148148347487    12.000000000000
         C           -2.445660765791     1.429652907012    -0.158458057688    12.000000000000
         C           -1.223604861027     0.715336275384    -0.147028793157    12.000000000000
         C            0.007633689588     1.417394922987    -0.148563139439    12.000000000000
         C            1.231215628021     0.702128464337    -0.167389725096    12.000000000000
         C            2.460816920806     1.403303809875    -0.147885216205    12.000000000000
         C            3.684426074471     0.687210201962    -0.148714002482    12.000000000000
         C            4.918704721813     1.391746334939    -0.161115824117    12.000000000000
         C            7.369797898236     2.779493976934    -0.154907795437    12.000000000000
         C            7.380158486396     1.391229281605    -0.153361112592    12.000000000000
         C            6.139795359397     0.674130396950    -0.147032770780    12.000000000000
         H           -8.279194979072     3.407129814874    -0.160122889944     1.007825032230
         H            8.315109291754     3.318129870373    -0.159118371237     1.007825032230
         C           -8.591760117307     0.724844326794    -0.153719372077    12.000000000000
         C           -8.599028783429    -0.632628032479    -0.151596247495    12.000000000000
         C           -6.139817318844    -0.674124863404    -0.158585588830    12.000000000000
         C           -7.380188291863    -1.391254415832    -0.151169527289    12.000000000000
         C           -4.918688659982    -1.391743244281    -0.146245090680    12.000000000000
         C           -3.684442475410    -0.687225541986    -0.157277330745    12.000000000000
         C           -2.460821219973    -1.403333405075    -0.146734244555    12.000000000000
         C           -1.231166192046    -0.702162091131    -0.158854623347    12.000000000000
         C           -0.007573805113    -1.417407075662    -0.151398099044    12.000000000000
         C            1.223643536163    -0.715263603514    -0.141392477095    12.000000000000
         C            2.445666469606    -1.429631515257    -0.153142489855    12.000000000000
         C            3.676862523121    -0.726695657806    -0.157283074250    12.000000000000
         C            6.132244666694    -0.739967066100    -0.158811048462    12.000000000000
         C            4.903514965779    -1.444445746791    -0.144969973922    12.000000000000
         C            8.599010668965     0.632615640417    -0.153498996447    12.000000000000
         C            8.591741308375    -0.724839093444    -0.151762616186    12.000000000000
         C            7.364858584664    -1.470320891856    -0.151992792879    12.000000000000
         H           -9.528310151544     1.276859222942    -0.155189299042     1.007825032230
         H            9.541406794881     1.174584262194    -0.154551028709     1.007825032230
         C           -7.369842089494    -2.779533372184    -0.149361318867    12.000000000000
         C           -4.924603288776    -2.808425483592    -0.157092951303    12.000000000000
         C           -6.166626675393    -3.516640419076    -0.150791111144    12.000000000000
         C           -3.702514539430    -3.524669775371    -0.146768882117    12.000000000000
         C           -2.467651164839    -2.821314189055    -0.158813520474    12.000000000000
         C           -0.015137653833    -2.833129871650    -0.158531931965    12.000000000000
         C           -1.247126020952    -3.534720401814    -0.146967978556    12.000000000000
         C            1.209240889918    -3.547902904894    -0.144428948765    12.000000000000
         C            2.437331842429    -2.847629964426    -0.158568707076    12.000000000000
         C            4.894298164045    -2.861111194537    -0.157747967005    12.000000000000
         C            3.664611075316    -3.564208071783    -0.144868547064    12.000000000000
         C            6.128634835020    -3.582572283968    -0.151522705107    12.000000000000
         C            7.339668484970    -2.858401533621    -0.150007479025    12.000000000000
         H           -9.541453290984    -1.174551692915    -0.150226831321     1.007825032230
         H            9.528257688346    -1.276907300155    -0.150512808425     1.007825032230
         H           -8.315169223574    -3.318138079463    -0.145189090336     1.007825032230
         H            8.279150962767    -3.407129016144    -0.145667923042     1.007825032230
         C           -6.144998368428    -4.927635499034    -0.149465113084    12.000000000000
         C           -3.706787527723    -4.941249940368    -0.159286081172    12.000000000000
         C           -4.955594237727    -5.643482199745    -0.151318946527    12.000000000000
         C           -2.486125505952    -5.654773800660    -0.146346410127    12.000000000000
         C           -1.254062515205    -4.956110276252    -0.157522016113    12.000000000000
         C            1.201008394143    -4.969268614444    -0.156340891855    12.000000000000
         C           -0.030340854139    -5.669508529390    -0.148497692191    12.000000000000
         C            3.653745921603    -4.980732001665    -0.155582892107    12.000000000000
         C            2.425488516150    -5.681162861778    -0.146205961555    12.000000000000
         C            6.091961438086    -4.993246189637    -0.149228478433    12.000000000000
         C            4.894972264885    -5.696336647208    -0.150464674263    12.000000000000
         H           -7.089896567766    -5.466988068489    -0.145062351402     1.007825032230
         H            7.031051029475    -5.542646762583    -0.145648698669     1.007825032230
         C           -4.923549501924    -7.078809325928    -0.151873715431    12.000000000000
         C           -2.485346267963    -7.087716304180    -0.154383607867    12.000000000000
         C           -3.751690071504    -7.763935383887    -0.154188928942    12.000000000000
         C           -0.037953136713    -7.099453100720    -0.154167882720    12.000000000000
         C           -1.277960280127    -7.772892610917    -0.156152575481    12.000000000000
         C            2.409440141001    -7.114010238253    -0.153304681909    12.000000000000
         C            1.194745757428    -7.786173591813    -0.155456972791    12.000000000000
         C            4.847616872773    -7.131250336830    -0.150797867249    12.000000000000
         C            3.668467426150    -7.803776219194    -0.153146301613    12.000000000000
         H           -5.869944530142    -7.613818824292    -0.150329678566     1.007825032230
         H            5.788245445663    -7.676320415565    -0.149670747767     1.007825032230
         H           -3.753531119175    -8.851059795487    -0.156024843371     1.007825032230
         H           -1.284308585620    -8.860863618748    -0.160579959340     1.007825032230
         H            1.189217394970    -8.874148846840    -0.159549609481     1.007825032230
         H            3.658542435098    -8.890848860304    -0.154800843036     1.007825032230

  Charge       = 0
  Multiplicity = 1
  Basis Set: JUN-CC-PVDZ
    Blend: JUN-CC-PVDZ
  Basis Set: (JUN-CC-PVDZ AUX)
    Blend: JUN-CC-PVDZ-JKFIT

    Orbital Energies [Eh]
    ---------------------

    Doubly Occupied:

       1A    -11.263899     2A    -11.263538     3A    -11.263536
       4A    -11.263146     5A    -11.263137     6A    -11.263108
       7A    -11.262958     8A    -11.262946     9A    -11.262916
      10A    -11.262728    11A    -11.262599    12A    -11.262570
      13A    -11.262110    14A    -11.262104    15A    -11.262064
      16A    -11.262037    17A    -11.261957    18A    -11.261945
      19A    -11.261901    20A    -11.261864    21A    -11.261857
      22A    -11.261755    23A    -11.261738    24A    -11.261621
      25A    -11.261602    26A    -11.261576    27A    -11.261572
      28A    -11.261535    29A    -11.261519    30A    -11.261439
      31A    -11.261413    32A    -11.261404    33A    -11.261385
      34A    -11.261371    35A    -11.261355    36A    -11.261341
      37A    -11.261214    38A    -11.261209    39A    -11.261187
      40A    -11.261180    41A    -11.261170    42A    -11.261164
      43A    -11.261152    44A    -11.261134    45A    -11.261122
      46A    -11.261111    47A    -11.261089    48A    -11.261076
      49A    -11.260912    50A    -11.260875    51A    -11.260847
      52A    -11.260785    53A    -11.260781    54A    -11.260705
      55A    -11.259773    56A    -11.259746    57A    -11.259731
      58A    -11.259714    59A    -11.259700    60A    -11.259678
      61A    -11.259136    62A    -11.259103    63A    -11.259093
      64A    -11.259049    65A    -11.259040    66A    -11.259010
      67A    -11.258770    68A    -11.258744    69A    -11.258726
      70A    -11.258711    71A    -11.258697    72A    -11.258678
      73A    -11.254445    74A    -11.254439    75A    -11.254415
      76A    -11.254413    77A    -11.254412    78A    -11.254407
      79A    -11.253553    80A    -11.253515    81A    -11.253515
      82A    -11.253509    83A    -11.253498    84A    -11.253495
      85A    -11.253468    86A    -11.253428    87A    -11.253428
      88A    -11.253424    89A    -11.253414    90A    -11.253411
      91A    -11.252973    92A    -11.252966    93A    -11.252942
      94A    -11.252941    95A    -11.252940    96A    -11.252935
      97A     -1.253614    98A     -1.238754    99A     -1.238706
     100A     -1.220243   101A     -1.220232   102A     -1.215152
     103A     -1.200850   104A     -1.195401   105A     -1.187881
     106A     -1.187836   107A     -1.173582   108A     -1.173580
     109A     -1.155366   110A     -1.155353   111A     -1.152434
     112A     -1.144552   113A     -1.144547   114A     -1.128324
     115A     -1.114454   116A     -1.112989   117A     -1.112225
     118A     -1.112180   119A     -1.111458   120A     -1.088191
     121A     -1.088177   122A     -1.076796   123A     -1.076793
     124A     -1.067367   125A     -1.067332   126A     -1.064698
     127A     -1.046586   128A     -1.046575   129A     -1.040245
     130A     -1.038573   131A     -1.038565   132A     -1.024963
     133A     -1.021078   134A     -1.020999   135A     -1.006979
     136A     -1.006570   137A     -1.003588   138A     -1.000225
     139A     -1.000175   140A     -0.990921   141A     -0.970749
     142A     -0.970694   143A     -0.955695   144A     -0.955636
     145A     -0.905398   146A     -0.905353   147A     -0.905289
     148A     -0.905254   149A     -0.904012   150A     -0.892057
     151A     -0.892005   152A     -0.890082   153A     -0.890033
     154A     -0.889199   155A     -0.872041   156A     -0.868926
     157A     -0.851340   158A     -0.847587   159A     -0.847586
     160A     -0.845319   161A     -0.842759   162A     -0.834339
     163A     -0.834330   164A     -0.827955   165A     -0.827943
     166A     -0.784344   167A     -0.784333   168A     -0.783410
     169A     -0.783400   170A     -0.782044   171A     -0.782023
     172A     -0.781761   173A     -0.766772   174A     -0.760508
     175A     -0.750311   176A     -0.733308   177A     -0.726859
     178A     -0.726816   179A     -0.724835   180A     -0.724326
     181A     -0.724290   182A     -0.718202   183A     -0.713504
     184A     -0.713496   185A     -0.699368   186A     -0.699337
     187A     -0.685843   188A     -0.685764   189A     -0.685754
     190A     -0.681960   191A     -0.681957   192A     -0.678545
     193A     -0.653416   194A     -0.650650   195A     -0.650614
     196A     -0.649533   197A     -0.649528   198A     -0.649378
     199A     -0.640662   200A     -0.640609   201A     -0.639884
     202A     -0.638979   203A     -0.635773   204A     -0.635742
     205A     -0.628906   206A     -0.617709   207A     -0.615123
     208A     -0.615096   209A     -0.608590   210A     -0.608583
     211A     -0.599080   212A     -0.599031   213A     -0.598513
     214A     -0.598342   215A     -0.598315   216A     -0.597762
     217A     -0.594875   218A     -0.594861   219A     -0.594498
     220A     -0.593918   221A     -0.591712   222A     -0.591707
     223A     -0.587092   224A     -0.577650   225A     -0.577630
     226A     -0.575612   227A     -0.575606   228A     -0.573168
     229A     -0.569524   230A     -0.567879   231A     -0.567852
     232A     -0.566520   233A     -0.566509   234A     -0.560760
     235A     -0.558475   236A     -0.558429   237A     -0.558268
     238A     -0.554136   239A     -0.550467   240A     -0.547323
     241A     -0.544159   242A     -0.534923   243A     -0.534904
     244A     -0.533327   245A     -0.533316   246A     -0.527885
     247A     -0.527868   248A     -0.527499   249A     -0.516912
     250A     -0.516887   251A     -0.515237   252A     -0.515233
     253A     -0.509445   254A     -0.509436   255A     -0.497806
     256A     -0.496236   257A     -0.496190   258A     -0.493694
     259A     -0.493658   260A     -0.489344   261A     -0.481254
     262A     -0.477295   263A     -0.477291   264A     -0.473783
     265A     -0.469179   266A     -0.466278   267A     -0.466277
     268A     -0.458683   269A     -0.446372   270A     -0.446326
     271A     -0.440897   272A     -0.440647   273A     -0.440614
     274A     -0.434561   275A     -0.433780   276A     -0.407250
     277A     -0.407211   278A     -0.386239   279A     -0.386174
     280A     -0.385610   281A     -0.385607   282A     -0.383585
     283A     -0.354173   284A     -0.354161   285A     -0.350498
     286A     -0.337872   287A     -0.335362   288A     -0.335312
     289A     -0.332583   290A     -0.332570   291A     -0.306858
     292A     -0.301736   293A     -0.301688   294A     -0.300692
     295A     -0.285988   296A     -0.256371   297A     -0.253276
     298A     -0.253214   299A     -0.204072   300A     -0.203988

  @DF-RHF Final Energy: -3650.34529952231060

   => Energetics <=

    Nuclear Repulsion Energy =          15611.4211649754324753
    One-Electron Energy =              -36072.2715642512193881
    Two-Electron Energy =               16810.5050997534781345
    Total Energy =                      -3650.3452995223087783
 Dipole X            :         -0.0003108            0.0002112           -0.0000996
 Dipole Y            :          0.0005761           -0.0044281           -0.0038520
 Dipole Z            :        172.8942159         -172.8925596            0.0016564
 Magnitude           :                                                    0.0041942

    SAPT Results
  --------------------------------------------------------------------------------------------------------
    Electrostatics               -567.80601414 [mEh]    -356.30365314 [kcal/mol]   -1490.77448473 [kJ/mol]
      Elst10,r                   -567.80601414 [mEh]    -356.30365314 [kcal/mol]   -1490.77448473 [kJ/mol]

    Exchange                     1524.94088730 [mEh]     956.91485373 [kcal/mol]    4003.73174801 [kJ/mol]
      Exch10                     1524.94088730 [mEh]     956.91485373 [kcal/mol]    4003.73174801 [kJ/mol]
      Exch10(S^2)                1342.81215808 [mEh]     842.62735070 [kcal/mol]    3525.55283533 [kJ/mol]

    Induction                    -159.91729304 [mEh]    -100.34961641 [kcal/mol]    -419.86279504 [kJ/mol]
      Ind20,r                    -934.89345265 [mEh]    -586.65449851 [kcal/mol]   -2454.56242176 [kJ/mol]
      Exch-Ind20,r                634.15607239 [mEh]     397.93894328 [kcal/mol]    1664.97653868 [kJ/mol]
      delta HF,r (2)              140.82008721 [mEh]      88.36593882 [kcal/mol]     369.72308803 [kJ/mol]

    Dispersion                   -282.81459720 [mEh]    -177.46883906 [kcal/mol]    -742.52962264 [kJ/mol]
      Disp20                     -361.44329988 [mEh]    -226.80909491 [kcal/mol]    -948.96925311 [kJ/mol]
      Exch-Disp20                  78.62870269 [mEh]      49.34025585 [kcal/mol]     206.43963047 [kJ/mol]
      Disp20 (SS)                -180.72164994 [mEh]    -113.40454746 [kcal/mol]    -474.48462655 [kJ/mol]
      Disp20 (OS)                -180.72164994 [mEh]    -113.40454746 [kcal/mol]    -474.48462655 [kJ/mol]
      Exch-Disp20 (SS)             45.17273514 [mEh]      28.34631926 [kcal/mol]     118.60099977 [kJ/mol]
      Exch-Disp20 (OS)             33.45596755 [mEh]      20.99393659 [kcal/mol]      87.83863070 [kJ/mol]

  Total HF                        797.21758012 [mEh]     500.26158419 [kcal/mol]    2093.09446824 [kJ/mol]
  Total SAPT0                     514.40298292 [mEh]     322.79274512 [kcal/mol]    1350.56484560 [kJ/mol]

  Special recipe for scaled SAPT0 (see Manual):
    Electrostatics sSAPT0        -567.80601414 [mEh]    -356.30365314 [kcal/mol]   -1490.77448473 [kJ/mol]
    Exchange sSAPT0              1524.94088730 [mEh]     956.91485373 [kcal/mol]    4003.73174801 [kJ/mol]
    Induction sSAPT0              134.69922078 [mEh]      84.52503715 [kcal/mol]     353.65275544 [kJ/mol]
    Dispersion sSAPT0            -246.28523908 [mEh]    -154.54632077 [kcal/mol]    -646.62180611 [kJ/mol]
  Total sSAPT0                    845.54885487 [mEh]     530.58991697 [kcal/mol]    2219.98821262 [kJ/mol]
  --------------------------------------------------------------------------------------------------------

*** Psi4 exiting successfully. Buy a developer a beer!
