                               Psi4 1.9 release

  ==> Input File <==

--------------------------------------------------------------------------
memory 32 GB # how much memory is available ! Depends on the nodes/cores !

molecule dimer {
# monomer A
-1 1    # Charge and multiplicity
B -0.000046  0.000337 6.599994
F -1.153597  0.000048 7.415641
F  1.153661 -0.000581 7.415641
F -0.000019 -1.153637 5.784360
F -0.000019  1.153978 5.784360
--
# monomer B
0 1     # Charge and multiplicity
C   1.22531237526482      0.70753866091955      0.00613762728373
C   1.22532433589282     -0.70753852257020     -0.00619318228664
C   -0.00000567409046      1.41496628609039     -0.00672680580738
C   2.45644923379077      1.41832825917820      0.00902448468363
C   0.00001130712078     -1.41497612663474      0.00347275151708
C   -1.22530046906674      0.70754574598412      0.00838914760619
C   2.45643823516184     -1.41832293188077     -0.00843833914343
C   -0.00000085313587      2.83680140328112     -0.00913035594137
C   3.68182717731192      0.70931832800114     -0.00808954934571
C   2.45512052870677      2.83422403348893     -0.00819210630633
C   3.68182158506039     -0.70933346742900      0.00798293467272
C   -1.22531311884624     -0.70752714354401     -0.00512042085974
C   1.22670006104402      3.54346985599427      0.00816696660346
C   0.00000526469929     -2.83678176723568      0.00832091913869
C   -2.45643555300670      1.41831729028492      0.00842454345199
C   2.45512389762097     -2.83422965658853      0.00783102630520
C   -1.22671388474763      3.54346943575023      0.00827029982280
C   4.91451777504333      1.42717324448953     -0.00160886631602
C   3.69315067131765      3.54279566454522     -0.00155906667985
C   -2.45643712022637     -1.41831290883911     -0.00846337726810
C   1.22670532178455     -3.54347386990643     -0.00780316414624
C   -2.45512491866593      2.83421703463423     -0.00818572995999
C   4.91452486062398     -1.42718653794377      0.00136387641845
C   1.22142509354026      4.97013443726031      0.00150231067809
C   4.89300870916237      2.82518837202648     -0.00039219795739
C   -1.22669652864725     -3.54347062507680     -0.00753595973677
C   -3.68181849668397      0.70932533873199     -0.00807686886569
C   3.69314758099218     -3.54280096939050      0.00148176697923
C   -1.22143177215231      4.97012866986289      0.00168580605083
C   6.13477145276790      0.68054831910577     -0.00083909176631
C   3.65678936045204      4.97295361556775     -0.00065042889723
C   -2.45512642789169     -2.83421472106065      0.00758666850712
C   -3.68181869921921     -0.70932533146830      0.00810055625144
C   4.89301309775526     -2.82519973363176      0.00021895393805
C   -0.00000059327114      5.65044773803267      0.00045449734393
C   6.13477559217374     -0.68055448207492      0.00042622874941
C   2.47813196269732      5.65357712333155      0.00063835075260
C   1.22142288457925     -4.97012668293268     -0.00129718634452
C   -3.69316190412301      3.54279732619245     -0.00139355922051
C   -1.22142804110313     -4.97011793159564     -0.00140994817719
C   -4.91452132810043      1.42717581899491     -0.00153192130862
C   3.65678749952045     -4.97295485423912      0.00080007163680
C   -2.47813805026426      5.65357479452875      0.00092287576113
C   -3.69314125872231     -3.54278984697859      0.00136564082345
C   -4.91451200321153     -1.42718062802730      0.00139857359209
C   -0.00000552908399     -5.65043791501335      0.00005899322272
C   -4.89302000425900      2.82518897091939     -0.00040227981744
C   2.47812647313991     -5.65357317188818     -0.00029052915548
C   -3.65679823041642      4.97295655404175     -0.00047374852278
C   -4.89299899901461     -2.82519139505969      0.00006491824035
C   -2.47812801824129     -5.65356579800621     -0.00056571680280
C   -6.13477002348955      0.68054913825639     -0.00086464346868
C   -3.65678835334731     -4.97294365097028      0.00058578382008
C   -6.13476456307132     -0.68055354348201      0.00040575295444
H   5.83528897565761      3.36927626695423      0.00396712770529
H   7.07385965258860      1.22821762089947     -0.00037744837300
H   4.60066374401555      5.51238117445323     -0.00014522814529
H   5.83528386714679     -3.36930568472863     -0.00423551337640
H   -0.00001167146422      6.73853104613662     -0.00389474766392
H   7.07386165167227     -1.22822657074368     -0.00008250934481
H   2.47331421164041      6.74068466339473      0.00017162982210
H   4.60066897122302     -5.51237575717576      0.00039007446835
H   -2.47331820069565      6.74068209160650      0.00047297644710
H   -0.00000978838621     -6.73852780445195      0.00458867820736
H   -5.83530143450167      3.36927132229595      0.00410314985360
H   2.47330840367253     -6.74068500242887      0.00027980126949
H   -4.60067436136587      5.51237839860371      0.00002010017831
H   -5.83527902699321     -3.36928859177951     -0.00451481925734
H   -2.47329986759855     -6.74067870613986     -0.00016951527498
H   -7.07385728692578      1.22822084484047     -0.00046143985387
H   -4.60067330624313     -5.51236229778631      0.00021776644566
H   -7.07385645456741     -1.22822025997701     -0.00017736581114

    units angstrom      # Angstroms are the default
    no_reorient         # Geometry fixed, default
    symmetry c1         # C1 symmetry, default
}

set {
    scf_type DF         # Density fitting, faster than exact integrals
    freeze_core True    # Freeze core electrons
    basis jun-cc-pVDZ   # Jun-cc-pVDZ basis set, recommended for sSAPT0 in https://doi.org/10.1063/1.4867135
}

energy('ssapt0')        # Compute sSAPT0 energy, includes also SAPT0
--------------------------------------------------------------------------

  //              Dimer HF             //
    Molecular point group: c1
  Charge       = -1
  Multiplicity = 1
  Basis Set: JUN-CC-PVDZ
    Blend: JUN-CC-PVDZ
  Basis Set: (JUN-CC-PVDZ AUX)
    Blend: JUN-CC-PVDZ-JKFIT
  @DF-RHF Final Energy: -2478.65793905459486
    Total Energy =                      -2478.6579390545957722
 Dipole X            :         -0.0001880           -0.0000160           -0.0002040
 Dipole Y            :          0.0012529           -0.0001716            0.0010813
 Dipole Z            :         30.2448298          -40.4600268          -10.2151970
 Magnitude           :                                                   10.2151971
  //            Monomer A HF           //
    Molecular point group: c1
  Multiplicity = 1
  Basis Set: JUN-CC-PVDZ
    Blend: JUN-CC-PVDZ
  Basis Set: (JUN-CC-PVDZ AUX)
    Blend: JUN-CC-PVDZ-JKFIT
  @DF-RHF Final Energy:  -422.77150618008142
    Total Energy =                       -422.7715061800814169
  //            Monomer B HF           //
    Molecular point group: c1

    Geometry (in Angstrom), charge = 0, multiplicity = 1:

       Center              X                  Y                   Z               Mass
    ------------   -----------------  -----------------  -----------------  -----------------
      Gh(B)          -0.000046449334     0.000336519434     5.837566458188    11.009305360000
      Gh(F)          -1.153597449334     0.000047519434     6.653213458188    18.998403162730
      Gh(F)           1.153660550666    -0.000581480566     6.653213458188    18.998403162730
      Gh(F)          -0.000019449334    -1.153637480566     5.021932458188    18.998403162730
      Gh(F)          -0.000019449334     1.153977519434     5.021932458188    18.998403162730
         C            1.225311925931     0.707538180353    -0.756289914528    12.000000000000
         C            1.225323886559    -0.707539003137    -0.768620724099    12.000000000000
         C           -0.000006123424     1.414965805524    -0.769154347619    12.000000000000
         C            2.456448784457     1.418327778612    -0.753403057128    12.000000000000
         C            0.000010857787    -1.414976607201    -0.758954790295    12.000000000000
         C           -1.225300918401     0.707545265418    -0.754038394206    12.000000000000
         C            2.456437785828    -1.418323412447    -0.770865880955    12.000000000000
         C           -0.000001302470     2.836800922715    -0.771557897753    12.000000000000
         C            3.681826727978     0.709317847435    -0.770517091158    12.000000000000
         C            2.455120079373     2.834223552923    -0.770619648118    12.000000000000
         C            3.681821135726    -0.709333947995    -0.754444607139    12.000000000000
         C           -1.225313568180    -0.707527624110    -0.767547962672    12.000000000000
         C            1.226699611710     3.543469375428    -0.754260575208    12.000000000000
         C            0.000004815365    -2.836782247802    -0.754106622673    12.000000000000
         C           -2.456436002341     1.418316809719    -0.754002998360    12.000000000000
         C            2.455123448287    -2.834230137155    -0.754596515507    12.000000000000
         C           -1.226714334082     3.543468955184    -0.754157241989    12.000000000000
         C            4.914517325709     1.427172763923    -0.764036408128    12.000000000000
         C            3.693150221984     3.542795183979    -0.763986608492    12.000000000000
         C           -2.456437569560    -1.418313389406    -0.770890919080    12.000000000000
         C            1.226704872451    -3.543474350473    -0.770230705958    12.000000000000
         C           -2.455125368000     2.834216554068    -0.770613271772    12.000000000000
         C            4.914524411290    -1.427187018510    -0.761063665393    12.000000000000
         C            1.221424644206     4.970133956694    -0.760925231134    12.000000000000
         C            4.893008259828     2.825187891460    -0.762819739769    12.000000000000
         C           -1.226696977981    -3.543471105643    -0.769963501549    12.000000000000
         C           -3.681818946018     0.709324858166    -0.770504410678    12.000000000000
         C            3.693147131658    -3.542801449957    -0.760945774833    12.000000000000
         C           -1.221432221486     4.970128189296    -0.760741735761    12.000000000000
         C            6.134771003434     0.680547838539    -0.763266633578    12.000000000000
         C            3.656788911118     4.972953135001    -0.763077970709    12.000000000000
         C           -2.455126877226    -2.834215201627    -0.754840873305    12.000000000000
         C           -3.681819148553    -0.709325812035    -0.754326985560    12.000000000000
         C            4.893012648421    -2.825200214198    -0.762208587874    12.000000000000
         C           -0.000001042605     5.650447257466    -0.761973044468    12.000000000000
         C            6.134775142840    -0.680554962641    -0.762001313062    12.000000000000
         C            2.478131513363     5.653576642765    -0.761789191059    12.000000000000
         C            1.221422435245    -4.970127163499    -0.763724728156    12.000000000000
         C           -3.693162353457     3.542796845626    -0.763821101032    12.000000000000
         C           -1.221428490437    -4.970118412162    -0.763837489989    12.000000000000
         C           -4.914521777434     1.427175338429    -0.763959463120    12.000000000000
         C            3.656787050187    -4.972955334806    -0.761627470175    12.000000000000
         C           -2.478138499598     5.653574313962    -0.761504666051    12.000000000000
         C           -3.693141708056    -3.542790327545    -0.761061900988    12.000000000000
         C           -4.914512452545    -1.427181108594    -0.761028968220    12.000000000000
         C           -0.000005978418    -5.650438395580    -0.762368548589    12.000000000000
         C           -4.893020453593     2.825188490353    -0.762829821629    12.000000000000
         C            2.478126023806    -5.653573652455    -0.762718070967    12.000000000000
         C           -3.656798679750     4.972956073475    -0.762901290335    12.000000000000
         C           -4.892999448349    -2.825191875626    -0.762362623572    12.000000000000
         C           -2.478128467575    -5.653566278573    -0.762993258615    12.000000000000
         C           -6.134770472823     0.680548657690    -0.763292185281    12.000000000000
         C           -3.656788802681    -4.972944131537    -0.761841757992    12.000000000000
         C           -6.134765012405    -0.680554024048    -0.762021788857    12.000000000000
         H            5.835288526324     3.369275786388    -0.758460414107     1.007825032230
         H            7.073859203255     1.228217140333    -0.762804990185     1.007825032230
         H            4.600663294682     5.512380693887    -0.762572769957     1.007825032230
         H            5.835283417813    -3.369306165295    -0.766663055188     1.007825032230
         H           -0.000012120798     6.738530565570    -0.766322289476     1.007825032230
         H            7.073861202338    -1.228227051310    -0.762510051157     1.007825032230
         H            2.473313762307     6.740684182828    -0.762255911990     1.007825032230
         H            4.600668521889    -5.512376237742    -0.762037467344     1.007825032230
         H           -2.473318650030     6.740681611040    -0.761954565365     1.007825032230
         H           -0.000010237720    -6.738528285018    -0.757838863605     1.007825032230
         H           -5.835301883836     3.369270841730    -0.758324391958     1.007825032230
         H            2.473307954339    -6.740685482995    -0.762147740542     1.007825032230
         H           -4.600674810700     5.512377918037    -0.762407441634     1.007825032230
         H           -5.835279476327    -3.369289072346    -0.766942361069     1.007825032230
         H           -2.473300316932    -6.740679186706    -0.762597057087     1.007825032230
         H           -7.073857736260     1.228220364274    -0.762888981666     1.007825032230
         H           -4.600673755577    -5.512362778353    -0.762209775366     1.007825032230
         H           -7.073856903901    -1.228220740543    -0.762604907623     1.007825032230

  Charge       = 0
  Multiplicity = 1
  Basis Set: JUN-CC-PVDZ
    Blend: JUN-CC-PVDZ
  Basis Set: (JUN-CC-PVDZ AUX)
    Blend: JUN-CC-PVDZ-JKFIT

    Orbital Energies [Eh]
    ---------------------

    Doubly Occupied:

       1A    -11.260662     2A    -11.260221     3A    -11.260216
       4A    -11.259510     5A    -11.259508     6A    -11.259339
       7A    -11.259131     8A    -11.259053     9A    -11.259051
      10A    -11.258728    11A    -11.258724    12A    -11.258656
      13A    -11.258594    14A    -11.258589    15A    -11.258586
      16A    -11.258557    17A    -11.258551    18A    -11.258535
      19A    -11.258522    20A    -11.258516    21A    -11.258511
      22A    -11.258412    23A    -11.258407    24A    -11.258108
      25A    -11.257450    26A    -11.257388    27A    -11.257387
      28A    -11.257252    29A    -11.257252    30A    -11.257167
      31A    -11.256545    32A    -11.256474    33A    -11.256473
      34A    -11.256364    35A    -11.256364    36A    -11.256316
      37A    -11.252394    38A    -11.252393    39A    -11.252392
      40A    -11.252390    41A    -11.252388    42A    -11.252386
      43A    -11.251526    44A    -11.251524    45A    -11.251523
      46A    -11.251517    47A    -11.251516    48A    -11.251512
      49A    -11.250955    50A    -11.250954    51A    -11.250953
      52A    -11.250951    53A    -11.250949    54A    -11.250948
      55A     -1.244279    56A     -1.220003    57A     -1.220002
      58A     -1.189713    59A     -1.189705    60A     -1.181151
      61A     -1.157714    62A     -1.149145    63A     -1.135691
      64A     -1.135685    65A     -1.113347    66A     -1.113343
      67A     -1.082617    68A     -1.082611    69A     -1.078798
      70A     -1.066131    71A     -1.066127    72A     -1.039568
      73A     -1.024475    74A     -1.021976    75A     -1.021935
      76A     -1.017880    77A     -1.012942    78A     -0.987208
      79A     -0.987162    80A     -0.962040    81A     -0.961990
      82A     -0.894458    83A     -0.894432    84A     -0.888149
      85A     -0.886397    86A     -0.886338    87A     -0.881587
      88A     -0.881540    89A     -0.862064    90A     -0.837545
      91A     -0.818380    92A     -0.816817    93A     -0.812327
      94A     -0.812317    95A     -0.794845    96A     -0.794835
      97A     -0.746825    98A     -0.745052    99A     -0.733618
     100A     -0.733608   101A     -0.732344   102A     -0.732320
     103A     -0.716687   104A     -0.699139   105A     -0.699129
     106A     -0.693764   107A     -0.693749   108A     -0.661390
     109A     -0.653317   110A     -0.651363   111A     -0.650408
     112A     -0.650403   113A     -0.639520   114A     -0.639518
     115A     -0.629901   116A     -0.627713   117A     -0.627696
     118A     -0.606458   119A     -0.605929   120A     -0.601853
     121A     -0.599909   122A     -0.599878   123A     -0.593812
     124A     -0.591436   125A     -0.591427   126A     -0.585413
     127A     -0.576419   128A     -0.576408   129A     -0.567471
     130A     -0.567456   131A     -0.566151   132A     -0.566131
     133A     -0.558926   134A     -0.555012   135A     -0.555007
     136A     -0.538751   137A     -0.538749   138A     -0.538282
     139A     -0.538276   140A     -0.529886   141A     -0.528204
     142A     -0.523040   143A     -0.523034   144A     -0.500660
     145A     -0.495713   146A     -0.493398   147A     -0.487941
     148A     -0.485255   149A     -0.481936   150A     -0.481928
     151A     -0.470435   152A     -0.470411   153A     -0.451235
     154A     -0.451157   155A     -0.439183   156A     -0.439174
     157A     -0.404862   158A     -0.404839   159A     -0.403484
     160A     -0.375537   161A     -0.375535   162A     -0.349241
     163A     -0.337707   164A     -0.336676   165A     -0.336614
     166A     -0.311217   167A     -0.298206   168A     -0.284472
     169A     -0.284419   170A     -0.225042   171A     -0.224975

  @DF-RHF Final Energy: -2055.89175970395672

   => Energetics <=

    Nuclear Repulsion Energy =           6452.5568002797781446
    One-Electron Energy =              -15636.4298857045450859
    Two-Electron Energy =                7127.9813257208088544
    Total Energy =                      -2055.8917597039571774
 Dipole X            :          0.0000787            0.0000112            0.0000899
 Dipole Y            :          0.0000314           -0.0000531           -0.0000217
 Dipole Z            :        492.7455645         -492.7479446           -0.0023801
 Magnitude           :                                                    0.0023819

    SAPT Results
  --------------------------------------------------------------------------------------------------------
    Electrostatics                  8.14160211 [mEh]       5.10893245 [kcal/mol]      21.37577338 [kJ/mol]
      Elst10,r                      8.14160211 [mEh]       5.10893245 [kcal/mol]      21.37577338 [kJ/mol]

    Exchange                       -0.00013200 [mEh]      -0.00008283 [kcal/mol]      -0.00034657 [kJ/mol]
      Exch10                       -0.00013200 [mEh]      -0.00008283 [kcal/mol]      -0.00034657 [kJ/mol]
      Exch10(S^2)                  -0.00013200 [mEh]      -0.00008283 [kcal/mol]      -0.00034657 [kJ/mol]

    Induction                      -2.81464066 [mEh]      -1.76621368 [kcal/mol]      -7.38983804 [kJ/mol]
      Ind20,r                      -2.83624436 [mEh]      -1.77977020 [kcal/mol]      -7.44655853 [kJ/mol]
      Exch-Ind20,r                  0.00031510 [mEh]       0.00019773 [kcal/mol]       0.00082729 [kJ/mol]
      delta HF,r (2)                0.02128860 [mEh]       0.01335880 [kcal/mol]       0.05589321 [kJ/mol]

    Dispersion                     -0.53503654 [mEh]      -0.33574050 [kcal/mol]      -1.40473824 [kJ/mol]
      Disp20                       -0.53535671 [mEh]      -0.33594141 [kcal/mol]      -1.40557885 [kJ/mol]
      Exch-Disp20                   0.00032017 [mEh]       0.00020091 [kcal/mol]       0.00084061 [kJ/mol]
      Disp20 (SS)                  -0.26767835 [mEh]      -0.16797070 [kcal/mol]      -0.70278942 [kJ/mol]
      Disp20 (OS)                  -0.26767835 [mEh]      -0.16797070 [kcal/mol]      -0.70278942 [kJ/mol]
      Exch-Disp20 (SS)              0.00024683 [mEh]       0.00015489 [kcal/mol]       0.00064805 [kJ/mol]
      Exch-Disp20 (OS)              0.00007334 [mEh]       0.00004602 [kcal/mol]       0.00019257 [kJ/mol]

  Total HF                          5.32682944 [mEh]       3.34263594 [kcal/mol]      13.98558878 [kJ/mol]
  Total SAPT0                       4.79179291 [mEh]       3.00689544 [kcal/mol]      12.58085054 [kJ/mol]

  Special recipe for scaled SAPT0 (see Manual):
    Electrostatics sSAPT0           8.14160211 [mEh]       5.10893245 [kcal/mol]      21.37577338 [kJ/mol]
    Exchange sSAPT0                -0.00013200 [mEh]      -0.00008283 [kcal/mol]      -0.00034657 [kJ/mol]
    Induction sSAPT0               -2.81464066 [mEh]      -1.76621368 [kcal/mol]      -7.38983804 [kJ/mol]
    Dispersion sSAPT0              -0.53503654 [mEh]      -0.33574050 [kcal/mol]      -1.40473824 [kJ/mol]
  Total sSAPT0                      4.79179291 [mEh]       3.00689544 [kcal/mol]      12.58085054 [kJ/mol]
  --------------------------------------------------------------------------------------------------------

*** Psi4 exiting successfully. Buy a developer a beer!
