                               Psi4 1.9 release

  ==> Input File <==

--------------------------------------------------------------------------
memory 32 GB # how much memory is available ! Depends on the nodes/cores !

molecule dimer {
# monomer A
-1 1    # Charge and multiplicity
B -1.977592e-04  2.742729e-04 -4.399966
F  1.123153e-16  1.430594e-17 -2.987181
F  1.147860e+00  6.757812e-01 -4.871107
F  1.191806e-02 -1.332011e+00 -4.870905
F -1.159666e+00  6.560735e-01 -4.870826
--
# monomer B
0 1     # Charge and multiplicity
C   1.22531237526482      0.70753866091955      0.00613762728373
C   1.22532433589282     -0.70753852257020     -0.00619318228664
C   -0.00000567409046      1.41496628609039     -0.00672680580738
C   2.45644923379077      1.41832825917820      0.00902448468363
C   0.00001130712078     -1.41497612663474      0.00347275151708
C   -1.22530046906674      0.70754574598412      0.00838914760619
C   2.45643823516184     -1.41832293188077     -0.00843833914343
C   -0.00000085313587      2.83680140328112     -0.00913035594137
C   3.68182717731192      0.70931832800114     -0.00808954934571
C   2.45512052870677      2.83422403348893     -0.00819210630633
C   3.68182158506039     -0.70933346742900      0.00798293467272
C   -1.22531311884624     -0.70752714354401     -0.00512042085974
C   1.22670006104402      3.54346985599427      0.00816696660346
C   0.00000526469929     -2.83678176723568      0.00832091913869
C   -2.45643555300670      1.41831729028492      0.00842454345199
C   2.45512389762097     -2.83422965658853      0.00783102630520
C   -1.22671388474763      3.54346943575023      0.00827029982280
C   4.91451777504333      1.42717324448953     -0.00160886631602
C   3.69315067131765      3.54279566454522     -0.00155906667985
C   -2.45643712022637     -1.41831290883911     -0.00846337726810
C   1.22670532178455     -3.54347386990643     -0.00780316414624
C   -2.45512491866593      2.83421703463423     -0.00818572995999
C   4.91452486062398     -1.42718653794377      0.00136387641845
C   1.22142509354026      4.97013443726031      0.00150231067809
C   4.89300870916237      2.82518837202648     -0.00039219795739
C   -1.22669652864725     -3.54347062507680     -0.00753595973677
C   -3.68181849668397      0.70932533873199     -0.00807686886569
C   3.69314758099218     -3.54280096939050      0.00148176697923
C   -1.22143177215231      4.97012866986289      0.00168580605083
C   6.13477145276790      0.68054831910577     -0.00083909176631
C   3.65678936045204      4.97295361556775     -0.00065042889723
C   -2.45512642789169     -2.83421472106065      0.00758666850712
C   -3.68181869921921     -0.70932533146830      0.00810055625144
C   4.89301309775526     -2.82519973363176      0.00021895393805
C   -0.00000059327114      5.65044773803267      0.00045449734393
C   6.13477559217374     -0.68055448207492      0.00042622874941
C   2.47813196269732      5.65357712333155      0.00063835075260
C   1.22142288457925     -4.97012668293268     -0.00129718634452
C   -3.69316190412301      3.54279732619245     -0.00139355922051
C   -1.22142804110313     -4.97011793159564     -0.00140994817719
C   -4.91452132810043      1.42717581899491     -0.00153192130862
C   3.65678749952045     -4.97295485423912      0.00080007163680
C   -2.47813805026426      5.65357479452875      0.00092287576113
C   -3.69314125872231     -3.54278984697859      0.00136564082345
C   -4.91451200321153     -1.42718062802730      0.00139857359209
C   -0.00000552908399     -5.65043791501335      0.00005899322272
C   -4.89302000425900      2.82518897091939     -0.00040227981744
C   2.47812647313991     -5.65357317188818     -0.00029052915548
C   -3.65679823041642      4.97295655404175     -0.00047374852278
C   -4.89299899901461     -2.82519139505969      0.00006491824035
C   -2.47812801824129     -5.65356579800621     -0.00056571680280
C   -6.13477002348955      0.68054913825639     -0.00086464346868
C   -3.65678835334731     -4.97294365097028      0.00058578382008
C   -6.13476456307132     -0.68055354348201      0.00040575295444
H   5.83528897565761      3.36927626695423      0.00396712770529
H   7.07385965258860      1.22821762089947     -0.00037744837300
H   4.60066374401555      5.51238117445323     -0.00014522814529
H   5.83528386714679     -3.36930568472863     -0.00423551337640
H   -0.00001167146422      6.73853104613662     -0.00389474766392
H   7.07386165167227     -1.22822657074368     -0.00008250934481
H   2.47331421164041      6.74068466339473      0.00017162982210
H   4.60066897122302     -5.51237575717576      0.00039007446835
H   -2.47331820069565      6.74068209160650      0.00047297644710
H   -0.00000978838621     -6.73852780445195      0.00458867820736
H   -5.83530143450167      3.36927132229595      0.00410314985360
H   2.47330840367253     -6.74068500242887      0.00027980126949
H   -4.60067436136587      5.51237839860371      0.00002010017831
H   -5.83527902699321     -3.36928859177951     -0.00451481925734
H   -2.47329986759855     -6.74067870613986     -0.00016951527498
H   -7.07385728692578      1.22822084484047     -0.00046143985387
H   -4.60067330624313     -5.51236229778631      0.00021776644566
H   -7.07385645456741     -1.22822025997701     -0.00017736581114

    units angstrom      # Angstroms are the default
    no_reorient         # Geometry fixed, default
    symmetry c1         # C1 symmetry, default
}

set {
    scf_type DF         # Density fitting, faster than exact integrals
    freeze_core True    # Freeze core electrons
    basis jun-cc-pVDZ   # Jun-cc-pVDZ basis set, recommended for sSAPT0 in https://doi.org/10.1063/1.4867135
}

energy('ssapt0')        # Compute sSAPT0 energy, includes also SAPT0
--------------------------------------------------------------------------

  //              Dimer HF             //
    Molecular point group: c1
  Charge       = -1
  Multiplicity = 1
  Basis Set: JUN-CC-PVDZ
    Blend: JUN-CC-PVDZ
  Basis Set: (JUN-CC-PVDZ AUX)
    Blend: JUN-CC-PVDZ-JKFIT
  @DF-RHF Final Energy: -2478.66128595384225
    Total Energy =                      -2478.6612859538417979
 Dipole X            :         -0.0004249            0.0000481           -0.0003768
 Dipole Y            :          0.0008837           -0.0001453            0.0007384
 Dipole Z            :        -20.8390749           26.9736230            6.1345482
 Magnitude           :                                                    6.1345482
  //            Monomer A HF           //
    Molecular point group: c1
  Multiplicity = 1
  Basis Set: JUN-CC-PVDZ
    Blend: JUN-CC-PVDZ
  Basis Set: (JUN-CC-PVDZ AUX)
    Blend: JUN-CC-PVDZ-JKFIT
  @DF-RHF Final Energy:  -422.77232387726093
    Total Energy =                       -422.7723238772609307
  //            Monomer B HF           //
    Molecular point group: c1

    Geometry (in Angstrom), charge = 0, multiplicity = 1:

       Center              X                  Y                   Z               Mass
    ------------   -----------------  -----------------  -----------------  -----------------
      Gh(B)          -0.000198161052     0.000273808717    -3.891677250147    11.009305360000
      Gh(F)          -0.000000401852    -0.000000464183    -2.478892250147    18.998403162730
      Gh(F)           1.147859598148     0.675780735817    -4.362818250147    18.998403162730
      Gh(F)           0.011917658148    -1.332011464183    -4.362616250147    18.998403162730
      Gh(F)          -1.159666401852     0.656073035817    -4.362537250147    18.998403162730
         C            1.225311973413     0.707538196736     0.514426377137    12.000000000000
         C            1.225323934041    -0.707538986754     0.502095567566    12.000000000000
         C           -0.000006075942     1.414965821907     0.501561944045    12.000000000000
         C            2.456448831939     1.418327794995     0.517313234536    12.000000000000
         C            0.000010905269    -1.414976590818     0.511761501370    12.000000000000
         C           -1.225300870919     0.707545281801     0.516677897459    12.000000000000
         C            2.456437833310    -1.418323396064     0.499850410709    12.000000000000
         C           -0.000001254988     2.836800939098     0.499158393911    12.000000000000
         C            3.681826775460     0.709317863818     0.500199200507    12.000000000000
         C            2.455120126855     2.834223569306     0.500096643546    12.000000000000
         C            3.681821183209    -0.709333931612     0.516271684526    12.000000000000
         C           -1.225313520698    -0.707527607727     0.503168328993    12.000000000000
         C            1.226699659192     3.543469391811     0.516455716456    12.000000000000
         C            0.000004862847    -2.836782231419     0.516609668991    12.000000000000
         C           -2.456435954859     1.418316826102     0.516713293305    12.000000000000
         C            2.455123495769    -2.834230120772     0.516119776158    12.000000000000
         C           -1.226714286599     3.543468971567     0.516559049676    12.000000000000
         C            4.914517373191     1.427172780306     0.506679883537    12.000000000000
         C            3.693150269466     3.542795200362     0.506729683173    12.000000000000
         C           -2.456437522078    -1.418313373022     0.499825372585    12.000000000000
         C            1.226704919933    -3.543474334090     0.500485585707    12.000000000000
         C           -2.455125320518     2.834216570451     0.500103019893    12.000000000000
         C            4.914524458772    -1.427187002127     0.509652626271    12.000000000000
         C            1.221424691688     4.970133973077     0.509791060531    12.000000000000
         C            4.893008307311     2.825187907843     0.507896551895    12.000000000000
         C           -1.226696930499    -3.543471089260     0.500752790116    12.000000000000
         C           -3.681818898536     0.709324874549     0.500211880987    12.000000000000
         C            3.693147179140    -3.542801433574     0.509770516832    12.000000000000
         C           -1.221432174004     4.970128205680     0.509974555904    12.000000000000
         C            6.134771050916     0.680547854922     0.507449658086    12.000000000000
         C            3.656788958600     4.972953151384     0.507638320956    12.000000000000
         C           -2.455126829744    -2.834215185244     0.515875418360    12.000000000000
         C           -3.681819101071    -0.709325795652     0.516389306104    12.000000000000
         C            4.893012695903    -2.825200197815     0.508507703791    12.000000000000
         C           -0.000000995123     5.650447273849     0.508743247197    12.000000000000
         C            6.134775190322    -0.680554946258     0.508714978602    12.000000000000
         C            2.478131560845     5.653576659148     0.508927100605    12.000000000000
         C            1.221422482727    -4.970127147116     0.506991563508    12.000000000000
         C           -3.693162305975     3.542796862009     0.506895190632    12.000000000000
         C           -1.221428442955    -4.970118395779     0.506878801676    12.000000000000
         C           -4.914521729952     1.427175354812     0.506756828544    12.000000000000
         C            3.656787097669    -4.972955318422     0.509088821490    12.000000000000
         C           -2.478138452116     5.653574330345     0.509211625614    12.000000000000
         C           -3.693141660574    -3.542790311162     0.509654390676    12.000000000000
         C           -4.914512405063    -1.427181092211     0.509687323445    12.000000000000
         C           -0.000005930936    -5.650438379197     0.508347743076    12.000000000000
         C           -4.893020406111     2.825188506736     0.507886470035    12.000000000000
         C            2.478126071288    -5.653573636072     0.507998220697    12.000000000000
         C           -3.656798632268     4.972956089858     0.507815001330    12.000000000000
         C           -4.892999400866    -2.825191859243     0.508353668093    12.000000000000
         C           -2.478128420093    -5.653566262190     0.507723033050    12.000000000000
         C           -6.134770425341     0.680548674073     0.507424106384    12.000000000000
         C           -3.656788755199    -4.972944115154     0.508874533673    12.000000000000
         C           -6.134764964923    -0.680554007665     0.508694502807    12.000000000000
         H            5.835288573806     3.369275802771     0.512255877558     1.007825032230
         H            7.073859250737     1.228217156716     0.507911301480     1.007825032230
         H            4.600663342164     5.512380710270     0.508143521708     1.007825032230
         H            5.835283465295    -3.369306148912     0.504053236476     1.007825032230
         H           -0.000012073316     6.738530581953     0.504394002189     1.007825032230
         H            7.073861249820    -1.228227034927     0.508206240508     1.007825032230
         H            2.473313809789     6.740684199211     0.508460379675     1.007825032230
         H            4.600668569371    -5.512376221359     0.508678824321     1.007825032230
         H           -2.473318602548     6.740681627423     0.508761726300     1.007825032230
         H           -0.000010190238    -6.738528268635     0.512877428060     1.007825032230
         H           -5.835301836354     3.369270858113     0.512391899706     1.007825032230
         H            2.473308001821    -6.740685466612     0.508568551122     1.007825032230
         H           -4.600674763218     5.512377934420     0.508308850031     1.007825032230
         H           -5.835279428845    -3.369289055963     0.503773930595     1.007825032230
         H           -2.473300269450    -6.740679170323     0.508119234578     1.007825032230
         H           -7.073857688778     1.228220380657     0.507827309999     1.007825032230
         H           -4.600673708095    -5.512362761970     0.508506516298     1.007825032230
         H           -7.073856856419    -1.228220724160     0.508111384042     1.007825032230

  Charge       = 0
  Multiplicity = 1
  Basis Set: JUN-CC-PVDZ
    Blend: JUN-CC-PVDZ
  Basis Set: (JUN-CC-PVDZ AUX)
    Blend: JUN-CC-PVDZ-JKFIT

    Orbital Energies [Eh]
    ---------------------

    Doubly Occupied:

       1A    -11.260702     2A    -11.260251     3A    -11.260248
       4A    -11.259484     5A    -11.259483     6A    -11.259287
       7A    -11.259052     8A    -11.258981     9A    -11.258980
      10A    -11.258676    11A    -11.258672    12A    -11.258569
      13A    -11.258514    14A    -11.258513    15A    -11.258508
      16A    -11.258474    17A    -11.258468    18A    -11.258452
      19A    -11.258443    20A    -11.258438    21A    -11.258432
      22A    -11.258365    23A    -11.258361    24A    -11.258117
      25A    -11.257350    26A    -11.257289    27A    -11.257288
      28A    -11.257153    29A    -11.257153    30A    -11.257069
      31A    -11.256441    32A    -11.256371    33A    -11.256370
      34A    -11.256262    35A    -11.256262    36A    -11.256215
      37A    -11.252327    38A    -11.252327    39A    -11.252325
      40A    -11.252324    41A    -11.252322    42A    -11.252320
      43A    -11.251437    44A    -11.251435    45A    -11.251433
      46A    -11.251427    47A    -11.251427    48A    -11.251423
      49A    -11.250889    50A    -11.250888    51A    -11.250886
      52A    -11.250884    53A    -11.250883    54A    -11.250881
      55A     -1.244106    56A     -1.219869    57A     -1.219868
      58A     -1.189598    59A     -1.189591    60A     -1.180992
      61A     -1.157619    62A     -1.149034    63A     -1.135539
      64A     -1.135532    65A     -1.113249    66A     -1.113245
      67A     -1.082482    68A     -1.082475    69A     -1.078654
      70A     -1.066037    71A     -1.066033    72A     -1.039458
      73A     -1.024325    74A     -1.021815    75A     -1.021772
      76A     -1.017786    77A     -1.012850    78A     -0.987076
      79A     -0.987030    80A     -0.961934    81A     -0.961884
      82A     -0.894346    83A     -0.894320    84A     -0.887985
      85A     -0.886230    86A     -0.886172    87A     -0.881454
      88A     -0.881406    89A     -0.861954    90A     -0.837467
      91A     -0.818267    92A     -0.816661    93A     -0.812191
      94A     -0.812181    95A     -0.794745    96A     -0.794734
      97A     -0.746681    98A     -0.744908    99A     -0.733462
     100A     -0.733453   101A     -0.732239   102A     -0.732216
     103A     -0.716551   104A     -0.699031   105A     -0.699020
     106A     -0.693639   107A     -0.693624   108A     -0.661286
     109A     -0.653147   110A     -0.651203   111A     -0.650309
     112A     -0.650303   113A     -0.639417   114A     -0.639415
     115A     -0.629767   116A     -0.627577   117A     -0.627561
     118A     -0.606498   119A     -0.605862   120A     -0.601714
     121A     -0.599794   122A     -0.599763   123A     -0.593696
     124A     -0.591266   125A     -0.591255   126A     -0.585333
     127A     -0.576392   128A     -0.576386   129A     -0.567379
     130A     -0.567365   131A     -0.566002   132A     -0.565982
     133A     -0.558770   134A     -0.554898   135A     -0.554892
     136A     -0.538650   137A     -0.538648   138A     -0.538208
     139A     -0.538202   140A     -0.529775   141A     -0.528230
     142A     -0.522926   143A     -0.522919   144A     -0.500560
     145A     -0.495636   146A     -0.493291   147A     -0.487873
     148A     -0.485129   149A     -0.481813   150A     -0.481805
     151A     -0.470384   152A     -0.470366   153A     -0.451069
     154A     -0.450991   155A     -0.439113   156A     -0.439104
     157A     -0.404767   158A     -0.404744   159A     -0.403418
     160A     -0.375464   161A     -0.375461   162A     -0.349159
     163A     -0.337610   164A     -0.336622   165A     -0.336564
     166A     -0.311123   167A     -0.298149   168A     -0.284373
     169A     -0.284320   170A     -0.224956   171A     -0.224890

  @DF-RHF Final Energy: -2055.89306653085259

   => Energetics <=

    Nuclear Repulsion Energy =           6452.5568002797772351
    One-Electron Energy =              -15636.4659567436265206
    Two-Electron Energy =                7128.0160899329966924
    Total Energy =                      -2055.8930665308525931
 Dipole X            :          0.0000307            0.0000419            0.0000726
 Dipole Y            :          0.0000492           -0.0000426            0.0000066
 Dipole Z            :       -328.4966852          328.4986302            0.0019450
 Magnitude           :                                                    0.0019464

    SAPT Results
  --------------------------------------------------------------------------------------------------------
    Electrostatics                 10.89207588 [mEh]       6.83488081 [kcal/mol]      28.59714129 [kJ/mol]
      Elst10,r                     10.89207588 [mEh]       6.83488081 [kcal/mol]      28.59714129 [kJ/mol]

    Exchange                        3.62221174 [mEh]       2.27297219 [kcal/mol]       9.51011562 [kJ/mol]
      Exch10                        3.62221174 [mEh]       2.27297219 [kcal/mol]       9.51011562 [kJ/mol]
      Exch10(S^2)                   3.62232521 [mEh]       2.27304339 [kcal/mol]       9.51041354 [kJ/mol]

    Induction                     -10.40983336 [mEh]      -6.53226905 [kcal/mol]     -27.33101371 [kJ/mol]
      Ind20,r                     -11.03864258 [mEh]      -6.92685280 [kcal/mol]     -28.98195211 [kJ/mol]
      Exch-Ind20,r                  0.78330187 [mEh]       0.49152934 [kcal/mol]       2.05655878 [kJ/mol]
      delta HF,r (2)               -0.15449264 [mEh]      -0.09694560 [kcal/mol]      -0.40562038 [kJ/mol]

    Dispersion                     -5.25578073 [mEh]      -3.29805220 [kcal/mol]     -13.79905039 [kJ/mol]
      Disp20                       -5.76927772 [mEh]      -3.62027643 [kcal/mol]     -15.14723658 [kJ/mol]
      Exch-Disp20                   0.51349700 [mEh]       0.32222423 [kcal/mol]       1.34818619 [kJ/mol]
      Disp20 (SS)                  -2.88463886 [mEh]      -1.81013821 [kcal/mol]      -7.57361829 [kJ/mol]
      Disp20 (OS)                  -2.88463886 [mEh]      -1.81013821 [kcal/mol]      -7.57361829 [kJ/mol]
      Exch-Disp20 (SS)              0.30213376 [mEh]       0.18959179 [kcal/mol]       0.79325207 [kJ/mol]
      Exch-Disp20 (OS)              0.21136324 [mEh]       0.13263244 [kcal/mol]       0.55493412 [kJ/mol]

  Total HF                          4.10445427 [mEh]       2.57558394 [kcal/mol]      10.77624320 [kJ/mol]
  Total SAPT0                      -1.15132645 [mEh]      -0.72246826 [kcal/mol]      -3.02280719 [kJ/mol]

  Special recipe for scaled SAPT0 (see Manual):
    Electrostatics sSAPT0          10.89207588 [mEh]       6.83488081 [kcal/mol]      28.59714129 [kJ/mol]
    Exchange sSAPT0                 3.62221174 [mEh]       2.27297219 [kcal/mol]       9.51011562 [kJ/mol]
    Induction sSAPT0              -10.40990697 [mEh]      -6.53231524 [kcal/mol]     -27.33120697 [kJ/mol]
    Dispersion sSAPT0              -5.25582898 [mEh]      -3.29808248 [kcal/mol]     -13.79917709 [kJ/mol]
  Total sSAPT0                     -1.15144832 [mEh]      -0.72254473 [kcal/mol]      -3.02312714 [kJ/mol]
  --------------------------------------------------------------------------------------------------------

*** Psi4 exiting successfully. Buy a developer a beer!
