                               Psi4 1.9 release

  ==> Input File <==

--------------------------------------------------------------------------
memory 64 GB # how much memory is available ! Depends on the nodes/cores !

molecule dimer {
# monomer A
-1 1    # Charge and multiplicity
B -1.977592e-04  2.742729e-04 2.800034
F  1.123153e-16  1.430594e-17 4.212819
F  1.147860e+00  6.757812e-01 2.328893
F  1.191806e-02 -1.332011e+00 2.329095
F -1.159666e+00  6.560735e-01 2.329174
--
# monomer B
0 1     # Charge and multiplicity
C   -3.66844126402057      7.80375217008252      0.00190004133558
C   -4.84759871934653      7.13124183134024     -0.00046653359696
C   -4.89495929917518      5.69633040353158     -0.00103944469517
C   -3.65374067877320      4.98073034095895      0.00662099703436
C   -2.40942512149445      7.11398103667468      0.00209438359570
C   -2.42547734410473      5.68112195090346     -0.00491050527438
C   -1.19474401643570      7.78614419430947      0.00356656413763
C   0.03795902893699      7.09942164575698      0.00139585983271
C   0.03033258741920      5.66948955970466     -0.00408752508301
C   -1.20098450790502      4.96927034791531      0.00488220885047
C   1.27795782581485      7.77285944319479      0.00277170839332
C   2.48535808472416      7.08769688523756      0.00049722048857
C   2.48612868491717      5.65477081024076     -0.00644052849921
C   1.25408291964399      4.95607811366431      0.00518741308898
C   3.75171459140595      7.76391215098033      0.00062407186893
C   4.92356605618520      7.07878077698995     -0.00143240883900
C   4.95560727132542      5.64344746336949     -0.00159282164606
C   3.70680153420475      4.94121020833308      0.00349873852374
H   -3.65852113775815      8.89082741913536      0.00358502958574
H   -1.18921332975660      8.87412108735996      0.00753844057883
H   1.28429423888630      8.86083343548850      0.00693053253426
H   3.75354208679975      8.85103527897216      0.00214659618464
H   5.86995870320703      7.61379483465560     -0.00235777588134
H   -5.78823170750226      7.67630221293400     -0.00202638095293
C   -6.09197395869619      4.99326001364347     -0.00291168518608
C   -6.12866148031747      3.58258016879823     -0.00171050815740
C   -3.66457974004527      3.56418217974434     -0.00463560277484
C   -4.89429820469869      2.86108077590057      0.00453338221034
C   -2.43733499489796      2.84761165708481      0.00719617576166
C   -1.20922785759670      3.54788693497833     -0.00648285103018
C   1.24714157216223      3.53468075142962     -0.00729145743546
C   0.01517603956900      2.83311183930540      0.00439272578912
C   2.46764517244071      2.82128997725533      0.00449278391269
C   3.70254947457969      3.52466015442405     -0.00899517692985
C   6.14498038638375      4.92757236613191     -0.00282626685777
C   6.16658835886151      3.51658447594213     -0.00065971342101
C   4.92460995845939      2.80840792535402      0.00587903281610
H   7.08990550964105      5.46688776622306     -0.00658814770723
H   -7.03104175110130      5.54268795285765     -0.00714490013730
C   -7.33969804112295      2.85841153457957     -0.00333767559888
C   -7.36488195805880      1.47032337158330     -0.00157213747140
C   -4.90350460894690      1.44442681216000     -0.00628840166334
C   -6.13225715261081      0.73993935705394      0.00600164231964
C   -3.67687480051673      0.72669714267312      0.00433931473643
C   -2.44565658606518      1.42964113326212     -0.00597039546461
C   -1.22360068130162      0.71532450163492      0.00545886906656
C   0.00763786931376      1.41738314923765      0.00392452278437
C   1.23121980774686      0.70211669058719     -0.01490206287210
C   2.46082110053113      1.40329203612573      0.00460244601878
C   3.68443025419614      0.68719842821222      0.00377365974158
C   4.91870890153864      1.39173456118907     -0.00862816189375
C   7.36980207796101      2.77948220318441     -0.00242013321349
C   7.38016266612146      1.39121750785509     -0.00087345036788
C   6.13979953912259      0.67411862320065      0.00545489144369
H   -8.27919079934664      3.40711804112415     -0.00763522772059
H   8.31511347147953      3.31811809662368     -0.00663070901292
C   -8.59175593758115      0.72483255304480     -0.00123170985383
C   -8.59902460370342     -0.63263980622873      0.00089141472904
C   -6.13981313911873     -0.67413663715361     -0.00609792660607
C   -7.38018411213749     -1.39126618958160      0.00131813493501
C   -4.91868448025621     -1.39175501803000      0.00624257154343
C   -3.68443829568458     -0.68723731573599     -0.00478966852105
C   -2.46081704024768     -1.40334517882457      0.00575341766833
C   -1.23116201232071     -0.70217386488055     -0.00636696112346
C   -0.00756962538737     -1.41741884941102      0.00108956317991
C   1.22364771588843     -0.71527537726392      0.01109518512883
C   2.44567064933149     -1.42964328900682     -0.00065482763106
C   3.67686670284649     -0.72670743155550     -0.00479541202602
C   6.13224884641929     -0.73997883984993     -0.00632338623858
C   4.90351914550401     -1.44445752054090      0.00751768830159
C   8.59901484869081      0.63260386666793     -0.00101133422380
C   8.59174548810050     -0.72485086719319      0.00072504603735
C   7.36486276438985     -1.47033266560598      0.00049486934466
H   -9.52830597181814      1.27684744919284     -0.00270163681798
H   9.54141097460619      1.17457248844457     -0.00206336648518
C   -7.36983790976868     -2.77954514593389      0.00312634335708
C   -4.92459910905015     -2.80843725734101     -0.00460528907921
C   -6.16662249566744     -3.51665219282533      0.00169655107992
C   -3.70251035970491     -3.52468154912026      0.00571878010666
C   -2.46764698511392     -2.82132596280400     -0.00632585824990
C   -0.01513347410770     -2.83314164539971     -0.00604426974092
C   -1.24712184122656     -3.53473217556300      0.00551968366725
C   1.20924506964357     -3.54791467864352      0.00805871345849
C   2.43733602215464     -2.84764173817541     -0.00608104485234
C   4.89430234377080     -2.86112296828604     -0.00526030478103
C   3.66461525504104     -3.56421984553201      0.00761911515957
C   6.12863901474565     -3.58258405771778      0.00096495711699
C   7.33967266469532     -2.85841330737039      0.00248018319869
H   -9.54144911125902     -1.17456346666430      0.00226083090216
H   9.52826186807155     -1.27691907390448      0.00197485379837
H   -8.31516504384864     -3.31814985321231      0.00729857188773
H   8.27915514249207     -3.40714078989363      0.00681973918158
C   -6.14499418870218     -4.92764727278338      0.00302254913999
C   -3.70678334799751     -4.94126171411716     -0.00679841894792
C   -4.95559005800169     -5.64349397349412      0.00116871569699
C   -2.48612132622665     -5.65478557440947      0.00614125209662
C   -1.25405833548005     -4.95612205000132     -0.00503435388927
C   1.20101257386816     -4.96928038819302     -0.00385322963129
C   -0.03033667441341     -5.66952030313900      0.00398997003238
C   3.65375010132847     -4.98074377541453     -0.00309522988330
C   2.42549269587528     -5.68117463552727      0.00628170066869
C   6.09196561781097     -4.99325796338655      0.00325918379042
C   4.89497644461045     -5.69634842095790      0.00202298796027
H   -7.08989238804069     -5.46699984223871      0.00742531082125
H   7.03105520920009     -5.54265853633254      0.00683896355417
C   -4.92354532219813     -7.07882109967734      0.00061394679214
C   -2.48534208823777     -7.08772807792913     -0.00189594564379
C   -3.75168589177895     -7.76394715763627     -0.00170126671874
C   -0.03794895698805     -7.09946487446944     -0.00168022049625
C   -1.27795610040136     -7.77290438466689     -0.00366491325785
C   2.40944432072629     -7.11402201200282     -0.00081701968533
C   1.19474993715296     -7.78618536556242     -0.00296931056689
C   4.84762105249800     -7.13126211057943      0.00168979497423
C   3.66847160587561     -7.80378799294376     -0.00065863938960
H   -5.86994035041618     -7.61383059804164      0.00215798365757
H   5.78824962538815     -7.67633218931421      0.00281691445618
H   -3.75352693944918     -8.85107156923607     -0.00353718114765
H   -1.28430440589466     -8.86087539249706     -0.00809229711623
H   1.18922157469537     -8.87416062058945     -0.00706194725726
H   3.65854661482387     -8.89086063405326     -0.00231318081200

    units angstrom      # Angstroms are the default
    no_reorient         # Geometry fixed, default
    symmetry c1         # C1 symmetry, default
}

set {
    scf_type DF         # Density fitting, faster than exact integrals
    freeze_core True    # Freeze core electrons
    basis jun-cc-pVDZ   # Jun-cc-pVDZ basis set, recommended for sSAPT0 in https://doi.org/10.1063/1.4867135
}

energy('ssapt0')        # Compute sSAPT0 energy, includes also SAPT0
--------------------------------------------------------------------------

  //              Dimer HF             //
    Molecular point group: c1
  Charge       = -1
  Multiplicity = 1
  Basis Set: JUN-CC-PVDZ
    Blend: JUN-CC-PVDZ
  Basis Set: (JUN-CC-PVDZ AUX)
    Blend: JUN-CC-PVDZ-JKFIT
  @DF-RHF Final Energy: -4073.06716537526017
    Total Energy =                      -4073.0671653752615384
 Dipole X            :          0.0041164           -0.0000548            0.0040616
 Dipole Y            :          0.0028959           -0.0002464            0.0026496
 Dipole Z            :         13.5898182          -16.6636033           -3.0737851
 Magnitude           :                                                    3.0737889
  //            Monomer A HF           //
    Molecular point group: c1
  Multiplicity = 1
  Basis Set: JUN-CC-PVDZ
    Blend: JUN-CC-PVDZ
  Basis Set: (JUN-CC-PVDZ AUX)
    Blend: JUN-CC-PVDZ-JKFIT
  @DF-RHF Final Energy:  -422.77587445442595
    Total Energy =                       -422.7758744544259457
  //            Monomer B HF           //
    Molecular point group: c1

    Geometry (in Angstrom), charge = 0, multiplicity = 1:

       Center              X                  Y                   Z               Mass
    ------------   -----------------  -----------------  -----------------  -----------------
      Gh(B)          -0.000201921932     0.000288800891     2.607179408711    11.009305360000
      Gh(F)          -0.000004162732     0.000014527991     4.019964408711    18.998403162730
      Gh(F)           1.147855837268     0.675795727991     2.136038408711    18.998403162730
      Gh(F)           0.011913897268    -1.331996472009     2.136240408711    18.998403162730
      Gh(F)          -1.159670162732     0.656088027991     2.136319408711    18.998403162730
         C           -3.668445426752     7.803766698073    -0.190954549953    12.000000000000
         C           -4.847602882078     7.131256359331    -0.193321124886    12.000000000000
         C           -4.894963461907     5.696344931522    -0.193894035984    12.000000000000
         C           -3.653744841505     4.980744868950    -0.186233594255    12.000000000000
         C           -2.409429284226     7.113995564665    -0.190760207693    12.000000000000
         C           -2.425481506836     5.681136478894    -0.197765096563    12.000000000000
         C           -1.194748179167     7.786158722300    -0.189288027151    12.000000000000
         C            0.037954866205     7.099436173748    -0.191458731456    12.000000000000
         C            0.030328424687     5.669504087695    -0.196942116372    12.000000000000
         C           -1.200988670637     4.969284875906    -0.187972382439    12.000000000000
         C            1.277953663083     7.772873971185    -0.190082882896    12.000000000000
         C            2.485353921992     7.087711413228    -0.192357370800    12.000000000000
         C            2.486124522185     5.654785338231    -0.199295119788    12.000000000000
         C            1.254078756912     4.956092641655    -0.187667178200    12.000000000000
         C            3.751710428674     7.763926678971    -0.192230519420    12.000000000000
         C            4.923561893453     7.078795304981    -0.194287000128    12.000000000000
         C            4.955603108594     5.643461991360    -0.194447412935    12.000000000000
         C            3.706797371473     4.941224736324    -0.189355852765    12.000000000000
         H           -3.658525300490     8.890841947126    -0.189269561703     1.007825032230
         H           -1.189217492488     8.874135615351    -0.185316150710     1.007825032230
         H            1.284290076155     8.860847963479    -0.185924058755     1.007825032230
         H            3.753537924068     8.851049806963    -0.190707995104     1.007825032230
         H            5.869954540475     7.613809362646    -0.195212367170     1.007825032230
         H           -5.788235870234     7.676316740925    -0.194880972242     1.007825032230
         C           -6.091978121428     4.993274541634    -0.195766276475    12.000000000000
         C           -6.128665643049     3.582594696789    -0.194565099446    12.000000000000
         C           -3.664583902777     3.564196707735    -0.197490194064    12.000000000000
         C           -4.894302367430     2.861095303891    -0.188321209079    12.000000000000
         C           -2.437339157630     2.847626185075    -0.185658415527    12.000000000000
         C           -1.209232020328     3.547901462969    -0.199337442319    12.000000000000
         C            1.247137409430     3.534695279420    -0.200146048724    12.000000000000
         C            0.015171876837     2.833126367296    -0.188461865500    12.000000000000
         C            2.467641009709     2.821304505246    -0.188361807376    12.000000000000
         C            3.702545311848     3.524674682415    -0.201849768219    12.000000000000
         C            6.144976223652     4.927586894122    -0.195680858147    12.000000000000
         C            6.166584196130     3.516599003933    -0.193514304710    12.000000000000
         C            4.924605795728     2.808422453345    -0.186975558473    12.000000000000
         H            7.089901346909     5.466902294214    -0.199442738996     1.007825032230
         H           -7.031045913833     5.542702480848    -0.199999491426     1.007825032230
         C           -7.339702203855     2.858426062570    -0.196192266888    12.000000000000
         C           -7.364886120791     1.470337899574    -0.194426728760    12.000000000000
         C           -4.903508771679     1.444441340151    -0.199142992952    12.000000000000
         C           -6.132261315343     0.739953885044    -0.186852948969    12.000000000000
         C           -3.676878963248     0.726711670664    -0.188515276553    12.000000000000
         C           -2.445660748797     1.429655661253    -0.198824986754    12.000000000000
         C           -1.223604844033     0.715339029625    -0.187395722222    12.000000000000
         C            0.007633706582     1.417397677228    -0.188930068505    12.000000000000
         C            1.231215645015     0.702131218578    -0.207756654161    12.000000000000
         C            2.460816937799     1.403306564116    -0.188252145270    12.000000000000
         C            3.684426091464     0.687212956203    -0.189080931547    12.000000000000
         C            4.918704738807     1.391749089180    -0.201482753183    12.000000000000
         C            7.369797915229     2.779496731175    -0.195274724502    12.000000000000
         C            7.380158503390     1.391232035846    -0.193728041657    12.000000000000
         C            6.139795376391     0.674133151191    -0.187399699845    12.000000000000
         H           -8.279194962078     3.407132569115    -0.200489819010     1.007825032230
         H            8.315109308748     3.318132624614    -0.199485300302     1.007825032230
         C           -8.591760100313     0.724847081035    -0.194086301143    12.000000000000
         C           -8.599028766435    -0.632625278238    -0.191963176560    12.000000000000
         C           -6.139817301850    -0.674122109163    -0.198952517895    12.000000000000
         C           -7.380188274869    -1.391251661591    -0.191536456354    12.000000000000
         C           -4.918688642988    -1.391740490039    -0.186612019746    12.000000000000
         C           -3.684442458416    -0.687222787745    -0.197644259810    12.000000000000
         C           -2.460821202979    -1.403330650834    -0.187101173621    12.000000000000
         C           -1.231166175052    -0.702159336890    -0.199221552412    12.000000000000
         C           -0.007573788119    -1.417404321420    -0.191765028109    12.000000000000
         C            1.223643553157    -0.715260849273    -0.181759406160    12.000000000000
         C            2.445666486600    -1.429628761016    -0.193509418920    12.000000000000
         C            3.676862540115    -0.726692903565    -0.197650003315    12.000000000000
         C            6.132244683688    -0.739964311859    -0.199177977528    12.000000000000
         C            4.903514982772    -1.444442992550    -0.185336902987    12.000000000000
         C            8.599010685959     0.632618394658    -0.193865925513    12.000000000000
         C            8.591741325369    -0.724836339203    -0.192129545252    12.000000000000
         C            7.364858601658    -1.470318137615    -0.192359721944    12.000000000000
         H           -9.528310134550     1.276861977183    -0.195556228107     1.007825032230
         H            9.541406811874     1.174587016435    -0.194917957774     1.007825032230
         C           -7.369842072500    -2.779530617943    -0.189728247932    12.000000000000
         C           -4.924603271782    -2.808422729350    -0.197459880368    12.000000000000
         C           -6.166626658399    -3.516637664835    -0.191158040209    12.000000000000
         C           -3.702514522437    -3.524667021130    -0.187135811182    12.000000000000
         C           -2.467651147846    -2.821311434813    -0.199180449539    12.000000000000
         C           -0.015137636839    -2.833127117409    -0.198898861030    12.000000000000
         C           -1.247126003958    -3.534717647572    -0.187334907622    12.000000000000
         C            1.209240906912    -3.547900150653    -0.184795877830    12.000000000000
         C            2.437331859423    -2.847627210185    -0.198935636141    12.000000000000
         C            4.894298181039    -2.861108440295    -0.198114896070    12.000000000000
         C            3.664611092309    -3.564205317541    -0.185235476129    12.000000000000
         C            6.128634852014    -3.582569529727    -0.191889634172    12.000000000000
         C            7.339668501964    -2.858398779380    -0.190374408090    12.000000000000
         H           -9.541453273991    -1.174548938674    -0.190593760387     1.007825032230
         H            9.528257705340    -1.276904545914    -0.190879737491     1.007825032230
         H           -8.315169206580    -3.318135325222    -0.185556019401     1.007825032230
         H            8.279150979760    -3.407126261903    -0.186034852107     1.007825032230
         C           -6.144998351434    -4.927632744793    -0.189832042149    12.000000000000
         C           -3.706787510729    -4.941247186127    -0.199653010237    12.000000000000
         C           -4.955594220733    -5.643479445504    -0.191685875592    12.000000000000
         C           -2.486125488958    -5.654771046419    -0.186713339192    12.000000000000
         C           -1.254062498212    -4.956107522011    -0.197888945178    12.000000000000
         C            1.201008411136    -4.969265860202    -0.196707820920    12.000000000000
         C           -0.030340837145    -5.669505775148    -0.188864621257    12.000000000000
         C            3.653745938597    -4.980729247424    -0.195949821172    12.000000000000
         C            2.425488533144    -5.681160107537    -0.186572890620    12.000000000000
         C            6.091961455079    -4.993243435396    -0.189595407499    12.000000000000
         C            4.894972281879    -5.696333892967    -0.190831603329    12.000000000000
         H           -7.089896550772    -5.466985314248    -0.185429280468     1.007825032230
         H            7.031051046468    -5.542644008342    -0.186015627735     1.007825032230
         C           -4.923549484930    -7.078806571687    -0.192240644497    12.000000000000
         C           -2.485346250970    -7.087713549939    -0.194750536933    12.000000000000
         C           -3.751690054511    -7.763932629646    -0.194555858008    12.000000000000
         C           -0.037953119720    -7.099450346479    -0.194534811785    12.000000000000
         C           -1.277960263133    -7.772889856676    -0.196519504547    12.000000000000
         C            2.409440157995    -7.114007484012    -0.193671610974    12.000000000000
         C            1.194745774421    -7.786170837572    -0.195823901856    12.000000000000
         C            4.847616889766    -7.131247582589    -0.191164796315    12.000000000000
         C            3.668467443144    -7.803773464953    -0.193513230679    12.000000000000
         H           -5.869944513148    -7.613816070051    -0.190696607631     1.007825032230
         H            5.788245462656    -7.676317661324    -0.190037676833     1.007825032230
         H           -3.753531102181    -8.851057041246    -0.196391772437     1.007825032230
         H           -1.284308568626    -8.860860864507    -0.200946888405     1.007825032230
         H            1.189217411964    -8.874146092599    -0.199916538546     1.007825032230
         H            3.658542452092    -8.890846106063    -0.195167772101     1.007825032230

  Charge       = 0
  Multiplicity = 1
  Basis Set: JUN-CC-PVDZ
    Blend: JUN-CC-PVDZ
  Basis Set: (JUN-CC-PVDZ AUX)
    Blend: JUN-CC-PVDZ-JKFIT

    Orbital Energies [Eh]
    ---------------------

    Doubly Occupied:

       1A    -11.264119     2A    -11.263754     3A    -11.263747
       4A    -11.263306     5A    -11.263305     6A    -11.263266
       7A    -11.263126     8A    -11.263122     9A    -11.263117
      10A    -11.262870    11A    -11.262754    12A    -11.262751
      13A    -11.262262    14A    -11.262255    15A    -11.262239
      16A    -11.262229    17A    -11.262114    18A    -11.262109
      19A    -11.262066    20A    -11.262027    21A    -11.262024
      22A    -11.261923    23A    -11.261917    24A    -11.261762
      25A    -11.261760    26A    -11.261735    27A    -11.261728
      28A    -11.261688    29A    -11.261680    30A    -11.261579
      31A    -11.261573    32A    -11.261559    33A    -11.261556
      34A    -11.261528    35A    -11.261527    36A    -11.261506
      37A    -11.261340    38A    -11.261332    39A    -11.261327
      40A    -11.261321    41A    -11.261316    42A    -11.261313
      43A    -11.261292    44A    -11.261274    45A    -11.261270
      46A    -11.261246    47A    -11.261243    48A    -11.261237
      49A    -11.261049    50A    -11.261018    51A    -11.261013
      52A    -11.260940    53A    -11.260936    54A    -11.260883
      55A    -11.259918    56A    -11.259904    57A    -11.259902
      58A    -11.259872    59A    -11.259871    60A    -11.259854
      61A    -11.259287    62A    -11.259261    63A    -11.259259
      64A    -11.259206    65A    -11.259204    66A    -11.259174
      67A    -11.258920    68A    -11.258902    69A    -11.258900
      70A    -11.258871    71A    -11.258869    72A    -11.258857
      73A    -11.254538    74A    -11.254537    75A    -11.254533
      76A    -11.254532    77A    -11.254532    78A    -11.254530
      79A    -11.253661    80A    -11.253659    81A    -11.253658
      82A    -11.253656    83A    -11.253655    84A    -11.253653
      85A    -11.253576    86A    -11.253575    87A    -11.253574
      88A    -11.253572    89A    -11.253571    90A    -11.253569
      91A    -11.253066    92A    -11.253065    93A    -11.253061
      94A    -11.253060    95A    -11.253060    96A    -11.253058
      97A     -1.253906    98A     -1.238988    99A     -1.238986
     100A     -1.220465   101A     -1.220460   102A     -1.215398
     103A     -1.201048   104A     -1.195609   105A     -1.188115
     106A     -1.188113   107A     -1.173772   108A     -1.173769
     109A     -1.155618   110A     -1.155615   111A     -1.152677
     112A     -1.144731   113A     -1.144728   114A     -1.128566
     115A     -1.114701   116A     -1.113169   117A     -1.112452
     118A     -1.112437   119A     -1.111629   120A     -1.088421
     121A     -1.088407   122A     -1.076968   123A     -1.076967
     124A     -1.067605   125A     -1.067576   126A     -1.064945
     127A     -1.046800   128A     -1.046793   129A     -1.040480
     130A     -1.038742   131A     -1.038742   132A     -1.025220
     133A     -1.021347   134A     -1.021297   135A     -1.007181
     136A     -1.006813   137A     -1.003794   138A     -1.000474
     139A     -1.000426   140A     -0.991083   141A     -0.970976
     142A     -0.970928   143A     -0.955884   144A     -0.955829
     145A     -0.905568   146A     -0.905559   147A     -0.905526
     148A     -0.905519   149A     -0.904300   150A     -0.892348
     151A     -0.892289   152A     -0.890344   153A     -0.890286
     154A     -0.889451   155A     -0.872220   156A     -0.869067
     157A     -0.851541   158A     -0.847853   159A     -0.847831
     160A     -0.845581   161A     -0.843013   162A     -0.834561
     163A     -0.834547   164A     -0.828119   165A     -0.828116
     166A     -0.784545   167A     -0.784534   168A     -0.783643
     169A     -0.783616   170A     -0.782281   171A     -0.782261
     172A     -0.782019   173A     -0.766994   174A     -0.760773
     175A     -0.750551   176A     -0.733489   177A     -0.727068
     178A     -0.727056   179A     -0.725077   180A     -0.724543
     181A     -0.724526   182A     -0.718461   183A     -0.713752
     184A     -0.713746   185A     -0.699573   186A     -0.699561
     187A     -0.686093   188A     -0.685961   189A     -0.685958
     190A     -0.682178   191A     -0.682167   192A     -0.678750
     193A     -0.653615   194A     -0.650863   195A     -0.650833
     196A     -0.649789   197A     -0.649773   198A     -0.649569
     199A     -0.640901   200A     -0.640874   201A     -0.640092
     202A     -0.639169   203A     -0.636004   204A     -0.635978
     205A     -0.629141   206A     -0.617703   207A     -0.615309
     208A     -0.615289   209A     -0.608801   210A     -0.608794
     211A     -0.599105   212A     -0.599070   213A     -0.598732
     214A     -0.598599   215A     -0.598576   216A     -0.598001
     217A     -0.595070   218A     -0.595058   219A     -0.594715
     220A     -0.594206   221A     -0.591942   222A     -0.591939
     223A     -0.587367   224A     -0.577802   225A     -0.577793
     226A     -0.575647   227A     -0.575645   228A     -0.573384
     229A     -0.569593   230A     -0.568110   231A     -0.568087
     232A     -0.566743   233A     -0.566732   234A     -0.560919
     235A     -0.558703   236A     -0.558685   237A     -0.558432
     238A     -0.554362   239A     -0.550545   240A     -0.547481
     241A     -0.544254   242A     -0.535017   243A     -0.534981
     244A     -0.533525   245A     -0.533503   246A     -0.528076
     247A     -0.528060   248A     -0.527767   249A     -0.517133
     250A     -0.517099   251A     -0.515346   252A     -0.515341
     253A     -0.509643   254A     -0.509627   255A     -0.498026
     256A     -0.496441   257A     -0.496415   258A     -0.493759
     259A     -0.493748   260A     -0.489433   261A     -0.481451
     262A     -0.477414   263A     -0.477410   264A     -0.473993
     265A     -0.469433   266A     -0.466516   267A     -0.466511
     268A     -0.458774   269A     -0.446654   270A     -0.446594
     271A     -0.441015   272A     -0.440759   273A     -0.440736
     274A     -0.434685   275A     -0.433906   276A     -0.407361
     277A     -0.407338   278A     -0.386369   279A     -0.386320
     280A     -0.385732   281A     -0.385731   282A     -0.383723
     283A     -0.354316   284A     -0.354300   285A     -0.350638
     286A     -0.338031   287A     -0.335542   288A     -0.335470
     289A     -0.332714   290A     -0.332707   291A     -0.307023
     292A     -0.301888   293A     -0.301826   294A     -0.300838
     295A     -0.286152   296A     -0.256488   297A     -0.253444
     298A     -0.253391   299A     -0.204243   300A     -0.204154

  @DF-RHF Final Energy: -3650.34030306928389

   => Energetics <=

    Nuclear Repulsion Energy =          15611.4211649754324753
    One-Electron Energy =              -36072.1513086753766402
    Two-Electron Energy =               16810.3898406306616380
    Total Energy =                      -3650.3403030692825268
 Dipole X            :          0.0000827            0.0002304            0.0003132
 Dipole Y            :          0.0014099           -0.0013052            0.0001047
 Dipole Z            :        218.6641085         -218.6620238            0.0020847
 Magnitude           :                                                    0.0021107

    SAPT Results
  --------------------------------------------------------------------------------------------------------
    Electrostatics                -42.46413339 [mEh]     -26.64664600 [kcal/mol]    -111.48956687 [kJ/mol]
      Elst10,r                    -42.46413339 [mEh]     -26.64664600 [kcal/mol]    -111.48956687 [kJ/mol]

    Exchange                      129.26773442 [mEh]      81.11672801 [kcal/mol]     339.39238997 [kJ/mol]
      Exch10                      129.26773442 [mEh]      81.11672801 [kcal/mol]     339.39238997 [kJ/mol]
      Exch10(S^2)                 127.32844450 [mEh]      79.89980521 [kcal/mol]     334.30078498 [kJ/mol]

    Induction                     -37.79145258 [mEh]     -23.71449452 [kcal/mol]     -99.22144508 [kJ/mol]
      Ind20,r                     -87.69610078 [mEh]     -55.03013406 [kcal/mol]    -230.24608089 [kJ/mol]
      Exch-Ind20,r                 58.77965710 [mEh]      36.88479169 [kcal/mol]     154.32596845 [kJ/mol]
      delta HF,r (2)               -8.87500890 [mEh]      -5.56915216 [kcal/mol]     -23.30133265 [kJ/mol]

    Dispersion                    -32.38654994 [mEh]     -20.32286691 [kcal/mol]     -85.03087514 [kJ/mol]
      Disp20                      -44.12513420 [mEh]     -27.68893974 [kcal/mol]    -115.85052388 [kJ/mol]
      Exch-Disp20                  11.73858426 [mEh]       7.36607283 [kcal/mol]      30.81964874 [kJ/mol]
      Disp20 (SS)                 -22.06256710 [mEh]     -13.84446987 [kcal/mol]     -57.92526194 [kJ/mol]
      Disp20 (OS)                 -22.06256710 [mEh]     -13.84446987 [kcal/mol]     -57.92526194 [kJ/mol]
      Exch-Disp20 (SS)              6.33876053 [mEh]       3.97763228 [kcal/mol]      16.64241347 [kJ/mol]
      Exch-Disp20 (OS)              5.39982374 [mEh]       3.38844055 [kcal/mol]      14.17723527 [kJ/mol]

  Total HF                         49.01214845 [mEh]      30.75558748 [kcal/mol]     128.68137803 [kJ/mol]
  Total SAPT0                      16.62559851 [mEh]      10.43272057 [kcal/mol]      43.65050288 [kJ/mol]

  Special recipe for scaled SAPT0 (see Manual):
    Electrostatics sSAPT0         -42.46413339 [mEh]     -26.64664600 [kcal/mol]    -111.48956687 [kJ/mol]
    Exchange sSAPT0               129.26773442 [mEh]      81.11672801 [kcal/mol]     339.39238997 [kJ/mol]
    Induction sSAPT0              -35.06458913 [mEh]     -22.00336188 [kcal/mol]     -92.06206609 [kJ/mol]
    Dispersion sSAPT0             -31.84198200 [mEh]     -19.98114537 [kcal/mol]     -83.60111223 [kJ/mol]
  Total sSAPT0                     19.89702989 [mEh]      12.48557476 [kcal/mol]      52.23964478 [kJ/mol]
  --------------------------------------------------------------------------------------------------------

*** Psi4 exiting successfully. Buy a developer a beer!
