                               Psi4 1.9 release

  ==> Input File <==

--------------------------------------------------------------------------
memory 64 GB # how much memory is available ! Depends on the nodes/cores !

molecule dimer {
# monomer A
+1 1    # Charge and multiplicity
C  0.680067 -1.215929 2.208042
C -0.680504 -1.215545 2.206014
N -1.085635  0.102779 2.205016
C  0.000108  0.884180 2.201740
C -2.477365  0.570758 2.155610
N  1.085222  0.102779 2.205016
H  1.385146 -2.033368 2.215870
H -1.385302 -2.033214 2.206204
H -0.000009  1.965269 2.199993
C  2.478117  0.567877 2.221908
H  2.490592  1.658130 2.194563
H  2.967028  0.220701 3.135354
H  3.001428  0.176405 1.346425
H -2.857359  0.490799 1.133539
H -3.082679 -0.042306 2.825694
H -2.518128  1.610706 2.482594
--
# monomer B
0 1     # Charge and multiplicity
C   -3.66844126402057      7.80375217008252      0.00190004133558
C   -4.84759871934653      7.13124183134024     -0.00046653359696
C   -4.89495929917518      5.69633040353158     -0.00103944469517
C   -3.65374067877320      4.98073034095895      0.00662099703436
C   -2.40942512149445      7.11398103667468      0.00209438359570
C   -2.42547734410473      5.68112195090346     -0.00491050527438
C   -1.19474401643570      7.78614419430947      0.00356656413763
C   0.03795902893699      7.09942164575698      0.00139585983271
C   0.03033258741920      5.66948955970466     -0.00408752508301
C   -1.20098450790502      4.96927034791531      0.00488220885047
C   1.27795782581485      7.77285944319479      0.00277170839332
C   2.48535808472416      7.08769688523756      0.00049722048857
C   2.48612868491717      5.65477081024076     -0.00644052849921
C   1.25408291964399      4.95607811366431      0.00518741308898
C   3.75171459140595      7.76391215098033      0.00062407186893
C   4.92356605618520      7.07878077698995     -0.00143240883900
C   4.95560727132542      5.64344746336949     -0.00159282164606
C   3.70680153420475      4.94121020833308      0.00349873852374
H   -3.65852113775815      8.89082741913536      0.00358502958574
H   -1.18921332975660      8.87412108735996      0.00753844057883
H   1.28429423888630      8.86083343548850      0.00693053253426
H   3.75354208679975      8.85103527897216      0.00214659618464
H   5.86995870320703      7.61379483465560     -0.00235777588134
H   -5.78823170750226      7.67630221293400     -0.00202638095293
C   -6.09197395869619      4.99326001364347     -0.00291168518608
C   -6.12866148031747      3.58258016879823     -0.00171050815740
C   -3.66457974004527      3.56418217974434     -0.00463560277484
C   -4.89429820469869      2.86108077590057      0.00453338221034
C   -2.43733499489796      2.84761165708481      0.00719617576166
C   -1.20922785759670      3.54788693497833     -0.00648285103018
C   1.24714157216223      3.53468075142962     -0.00729145743546
C   0.01517603956900      2.83311183930540      0.00439272578912
C   2.46764517244071      2.82128997725533      0.00449278391269
C   3.70254947457969      3.52466015442405     -0.00899517692985
C   6.14498038638375      4.92757236613191     -0.00282626685777
C   6.16658835886151      3.51658447594213     -0.00065971342101
C   4.92460995845939      2.80840792535402      0.00587903281610
H   7.08990550964105      5.46688776622306     -0.00658814770723
H   -7.03104175110130      5.54268795285765     -0.00714490013730
C   -7.33969804112295      2.85841153457957     -0.00333767559888
C   -7.36488195805880      1.47032337158330     -0.00157213747140
C   -4.90350460894690      1.44442681216000     -0.00628840166334
C   -6.13225715261081      0.73993935705394      0.00600164231964
C   -3.67687480051673      0.72669714267312      0.00433931473643
C   -2.44565658606518      1.42964113326212     -0.00597039546461
C   -1.22360068130162      0.71532450163492      0.00545886906656
C   0.00763786931376      1.41738314923765      0.00392452278437
C   1.23121980774686      0.70211669058719     -0.01490206287210
C   2.46082110053113      1.40329203612573      0.00460244601878
C   3.68443025419614      0.68719842821222      0.00377365974158
C   4.91870890153864      1.39173456118907     -0.00862816189375
C   7.36980207796101      2.77948220318441     -0.00242013321349
C   7.38016266612146      1.39121750785509     -0.00087345036788
C   6.13979953912259      0.67411862320065      0.00545489144369
H   -8.27919079934664      3.40711804112415     -0.00763522772059
H   8.31511347147953      3.31811809662368     -0.00663070901292
C   -8.59175593758115      0.72483255304480     -0.00123170985383
C   -8.59902460370342     -0.63263980622873      0.00089141472904
C   -6.13981313911873     -0.67413663715361     -0.00609792660607
C   -7.38018411213749     -1.39126618958160      0.00131813493501
C   -4.91868448025621     -1.39175501803000      0.00624257154343
C   -3.68443829568458     -0.68723731573599     -0.00478966852105
C   -2.46081704024768     -1.40334517882457      0.00575341766833
C   -1.23116201232071     -0.70217386488055     -0.00636696112346
C   -0.00756962538737     -1.41741884941102      0.00108956317991
C   1.22364771588843     -0.71527537726392      0.01109518512883
C   2.44567064933149     -1.42964328900682     -0.00065482763106
C   3.67686670284649     -0.72670743155550     -0.00479541202602
C   6.13224884641929     -0.73997883984993     -0.00632338623858
C   4.90351914550401     -1.44445752054090      0.00751768830159
C   8.59901484869081      0.63260386666793     -0.00101133422380
C   8.59174548810050     -0.72485086719319      0.00072504603735
C   7.36486276438985     -1.47033266560598      0.00049486934466
H   -9.52830597181814      1.27684744919284     -0.00270163681798
H   9.54141097460619      1.17457248844457     -0.00206336648518
C   -7.36983790976868     -2.77954514593389      0.00312634335708
C   -4.92459910905015     -2.80843725734101     -0.00460528907921
C   -6.16662249566744     -3.51665219282533      0.00169655107992
C   -3.70251035970491     -3.52468154912026      0.00571878010666
C   -2.46764698511392     -2.82132596280400     -0.00632585824990
C   -0.01513347410770     -2.83314164539971     -0.00604426974092
C   -1.24712184122656     -3.53473217556300      0.00551968366725
C   1.20924506964357     -3.54791467864352      0.00805871345849
C   2.43733602215464     -2.84764173817541     -0.00608104485234
C   4.89430234377080     -2.86112296828604     -0.00526030478103
C   3.66461525504104     -3.56421984553201      0.00761911515957
C   6.12863901474565     -3.58258405771778      0.00096495711699
C   7.33967266469532     -2.85841330737039      0.00248018319869
H   -9.54144911125902     -1.17456346666430      0.00226083090216
H   9.52826186807155     -1.27691907390448      0.00197485379837
H   -8.31516504384864     -3.31814985321231      0.00729857188773
H   8.27915514249207     -3.40714078989363      0.00681973918158
C   -6.14499418870218     -4.92764727278338      0.00302254913999
C   -3.70678334799751     -4.94126171411716     -0.00679841894792
C   -4.95559005800169     -5.64349397349412      0.00116871569699
C   -2.48612132622665     -5.65478557440947      0.00614125209662
C   -1.25405833548005     -4.95612205000132     -0.00503435388927
C   1.20101257386816     -4.96928038819302     -0.00385322963129
C   -0.03033667441341     -5.66952030313900      0.00398997003238
C   3.65375010132847     -4.98074377541453     -0.00309522988330
C   2.42549269587528     -5.68117463552727      0.00628170066869
C   6.09196561781097     -4.99325796338655      0.00325918379042
C   4.89497644461045     -5.69634842095790      0.00202298796027
H   -7.08989238804069     -5.46699984223871      0.00742531082125
H   7.03105520920009     -5.54265853633254      0.00683896355417
C   -4.92354532219813     -7.07882109967734      0.00061394679214
C   -2.48534208823777     -7.08772807792913     -0.00189594564379
C   -3.75168589177895     -7.76394715763627     -0.00170126671874
C   -0.03794895698805     -7.09946487446944     -0.00168022049625
C   -1.27795610040136     -7.77290438466689     -0.00366491325785
C   2.40944432072629     -7.11402201200282     -0.00081701968533
C   1.19474993715296     -7.78618536556242     -0.00296931056689
C   4.84762105249800     -7.13126211057943      0.00168979497423
C   3.66847160587561     -7.80378799294376     -0.00065863938960
H   -5.86994035041618     -7.61383059804164      0.00215798365757
H   5.78824962538815     -7.67633218931421      0.00281691445618
H   -3.75352693944918     -8.85107156923607     -0.00353718114765
H   -1.28430440589466     -8.86087539249706     -0.00809229711623
H   1.18922157469537     -8.87416062058945     -0.00706194725726
H   3.65854661482387     -8.89086063405326     -0.00231318081200

    units angstrom      # Angstroms are the default
    no_reorient         # Geometry fixed, default
    symmetry c1         # C1 symmetry, default
}

set {
    scf_type DF         # Density fitting, faster than exact integrals
    freeze_core True    # Freeze core electrons
    basis jun-cc-pVDZ   # Jun-cc-pVDZ basis set, recommended for sSAPT0 in https://doi.org/10.1063/1.4867135
}

energy('ssapt0')        # Compute sSAPT0 energy, includes also SAPT0
--------------------------------------------------------------------------

  //              Dimer HF             //
    Molecular point group: c1
  Charge       = 1
  Multiplicity = 1
  Basis Set: JUN-CC-PVDZ
    Blend: JUN-CC-PVDZ
  Basis Set: (JUN-CC-PVDZ AUX)
    Blend: JUN-CC-PVDZ-JKFIT
  @DF-RHF Final Energy: -3953.18172628917955
    Total Energy =                      -3953.1817262891781866
 Dipole X            :         -0.0400148            0.0004804           -0.0395344
 Dipole Y            :         -1.7041302            1.8866171            0.1824869
 Dipole Z            :        -11.4577579           13.3045304            1.8467725
 Magnitude           :                                                    1.8561878
  //            Monomer A HF           //
    Molecular point group: c1
  Multiplicity = 1
  Basis Set: JUN-CC-PVDZ
    Blend: JUN-CC-PVDZ
  Basis Set: (JUN-CC-PVDZ AUX)
    Blend: JUN-CC-PVDZ-JKFIT
  @DF-RHF Final Energy:  -303.30190781412352
    Total Energy =                       -303.3019078141235241
  //            Monomer B HF           //
    Molecular point group: c1

    Geometry (in Angstrom), charge = 0, multiplicity = 1:

       Center              X                  Y                   Z               Mass
    ------------   -----------------  -----------------  -----------------  -----------------
      Gh(C)           0.680062820275    -1.215917226251     2.040305882660    12.000000000000
      Gh(C)          -0.680508179725    -1.215533226251     2.038277882660    12.000000000000
      Gh(N)          -1.085639179725     0.102790773749     2.037279882660    14.003074004430
      Gh(C)           0.000103820275     0.884191773749     2.034003882660    12.000000000000
      Gh(C)          -2.477369179725     0.570769773749     1.987873882660    12.000000000000
      Gh(N)           1.085217820275     0.102790773749     2.037279882660    14.003074004430
      Gh(H)           1.385141820275    -2.033356226251     2.048133882660     1.007825032230
      Gh(H)          -1.385306179725    -2.033202226251     2.038467882660     1.007825032230
      Gh(H)          -0.000013179725     1.965280773749     2.032256882660     1.007825032230
      Gh(C)           2.478112820275     0.567888773749     2.054171882660    12.000000000000
      Gh(H)           2.490587820275     1.658141773750     2.026826882660     1.007825032230
      Gh(H)           2.967023820275     0.220712773749     2.967617882660     1.007825032230
      Gh(H)           3.001423820275     0.176416773749     1.178688882660     1.007825032230
      Gh(H)          -2.857363179725     0.490810773749     0.965802882660     1.007825032230
      Gh(H)          -3.082683179725    -0.042294226251     2.657957882660     1.007825032230
      Gh(H)          -2.518132179725     1.610717773749     2.314857882660     1.007825032230
         C           -3.668445443746     7.803763943832    -0.165836076005    12.000000000000
         C           -4.847602899072     7.131253605090    -0.168202650937    12.000000000000
         C           -4.894963478901     5.696342177281    -0.168775562036    12.000000000000
         C           -3.653744858499     4.980742114708    -0.161115120306    12.000000000000
         C           -2.409429301220     7.113992810424    -0.165641733745    12.000000000000
         C           -2.425481523830     5.681133724653    -0.172646622615    12.000000000000
         C           -1.194748196161     7.786155968059    -0.164169553203    12.000000000000
         C            0.037954849212     7.099433419506    -0.166340257508    12.000000000000
         C            0.030328407694     5.669501333454    -0.171823642423    12.000000000000
         C           -1.200988687630     4.969282121665    -0.162853908490    12.000000000000
         C            1.277953646089     7.772871216944    -0.164964408947    12.000000000000
         C            2.485353904999     7.087708658987    -0.167238896852    12.000000000000
         C            2.486124505192     5.654782583990    -0.174176645840    12.000000000000
         C            1.254078739919     4.956089887414    -0.162548704251    12.000000000000
         C            3.751710411681     7.763923924730    -0.167112045471    12.000000000000
         C            4.923561876460     7.078792550739    -0.169168526179    12.000000000000
         C            4.955603091600     5.643459237119    -0.169328938986    12.000000000000
         C            3.706797354479     4.941221982083    -0.164237378817    12.000000000000
         H           -3.658525317484     8.890839192885    -0.164151087755     1.007825032230
         H           -1.189217509482     8.874132861109    -0.160197676762     1.007825032230
         H            1.284290059161     8.860845209238    -0.160805584806     1.007825032230
         H            3.753537907074     8.851047052722    -0.165589521156     1.007825032230
         H            5.869954523482     7.613806608405    -0.170093893222     1.007825032230
         H           -5.788235887228     7.676313986684    -0.169762498293     1.007825032230
         C           -6.091978138422     4.993271787393    -0.170647802526    12.000000000000
         C           -6.128665660043     3.582591942548    -0.169446625498    12.000000000000
         C           -3.664583919771     3.564193953494    -0.172371720115    12.000000000000
         C           -4.894302384424     2.861092549650    -0.163202735130    12.000000000000
         C           -2.437339174623     2.847623430834    -0.160539941579    12.000000000000
         C           -1.209232037322     3.547898708728    -0.174218968371    12.000000000000
         C            1.247137392437     3.534692525179    -0.175027574776    12.000000000000
         C            0.015171859844     2.833123613055    -0.163343391551    12.000000000000
         C            2.467640992715     2.821301751005    -0.163243333428    12.000000000000
         C            3.702545294854     3.524671928174    -0.176731294270    12.000000000000
         C            6.144976206658     4.927584139881    -0.170562384198    12.000000000000
         C            6.166584179136     3.516596249692    -0.168395830761    12.000000000000
         C            4.924605778734     2.808419699104    -0.161857084524    12.000000000000
         H            7.089901329916     5.466899539973    -0.174324265048     1.007825032230
         H           -7.031045930827     5.542699726607    -0.174881017478     1.007825032230
         C           -7.339702220848     2.858423308329    -0.171073792939    12.000000000000
         C           -7.364886137784     1.470335145333    -0.169308254812    12.000000000000
         C           -4.903508788672     1.444438585909    -0.174024519004    12.000000000000
         C           -6.132261332336     0.739951130803    -0.161734475021    12.000000000000
         C           -3.676878980242     0.726708916423    -0.163396802604    12.000000000000
         C           -2.445660765791     1.429652907012    -0.173706512805    12.000000000000
         C           -1.223604861027     0.715336275384    -0.162277248274    12.000000000000
         C            0.007633689588     1.417394922987    -0.163811594556    12.000000000000
         C            1.231215628021     0.702128464337    -0.182638180212    12.000000000000
         C            2.460816920806     1.403303809875    -0.163133671322    12.000000000000
         C            3.684426074471     0.687210201962    -0.163962457599    12.000000000000
         C            4.918704721813     1.391746334939    -0.176364279234    12.000000000000
         C            7.369797898236     2.779493976934    -0.170156250554    12.000000000000
         C            7.380158486396     1.391229281605    -0.168609567708    12.000000000000
         C            6.139795359397     0.674130396950    -0.162281225897    12.000000000000
         H           -8.279194979072     3.407129814874    -0.175371345061     1.007825032230
         H            8.315109291754     3.318129870373    -0.174366826353     1.007825032230
         C           -8.591760117307     0.724844326794    -0.168967827194    12.000000000000
         C           -8.599028783429    -0.632628032479    -0.166844702611    12.000000000000
         C           -6.139817318844    -0.674124863404    -0.173834043946    12.000000000000
         C           -7.380188291863    -1.391254415832    -0.166417982405    12.000000000000
         C           -4.918688659982    -1.391743244281    -0.161493545797    12.000000000000
         C           -3.684442475410    -0.687225541986    -0.172525785861    12.000000000000
         C           -2.460821219973    -1.403333405075    -0.161982699672    12.000000000000
         C           -1.231166192046    -0.702162091131    -0.174103078464    12.000000000000
         C           -0.007573805113    -1.417407075662    -0.166646554160    12.000000000000
         C            1.223643536163    -0.715263603514    -0.156640932212    12.000000000000
         C            2.445666469606    -1.429631515257    -0.168390944971    12.000000000000
         C            3.676862523121    -0.726695657806    -0.172531529366    12.000000000000
         C            6.132244666694    -0.739967066100    -0.174059503579    12.000000000000
         C            4.903514965779    -1.444445746791    -0.160218429039    12.000000000000
         C            8.599010668965     0.632615640417    -0.168747451564    12.000000000000
         C            8.591741308375    -0.724839093444    -0.167011071303    12.000000000000
         C            7.364858584664    -1.470320891856    -0.167241247996    12.000000000000
         H           -9.528310151544     1.276859222942    -0.170437754158     1.007825032230
         H            9.541406794881     1.174584262194    -0.169799483826     1.007825032230
         C           -7.369842089494    -2.779533372184    -0.164609773983    12.000000000000
         C           -4.924603288776    -2.808425483592    -0.172341406420    12.000000000000
         C           -6.166626675393    -3.516640419076    -0.166039566260    12.000000000000
         C           -3.702514539430    -3.524669775371    -0.162017337234    12.000000000000
         C           -2.467651164839    -2.821314189055    -0.174061975590    12.000000000000
         C           -0.015137653833    -2.833129871650    -0.173780387081    12.000000000000
         C           -1.247126020952    -3.534720401814    -0.162216433673    12.000000000000
         C            1.209240889918    -3.547902904894    -0.159677403882    12.000000000000
         C            2.437331842429    -2.847629964426    -0.173817162193    12.000000000000
         C            4.894298164045    -2.861111194537    -0.172996422121    12.000000000000
         C            3.664611075316    -3.564208071783    -0.160117002181    12.000000000000
         C            6.128634835020    -3.582572283968    -0.166771160223    12.000000000000
         C            7.339668484970    -2.858401533621    -0.165255934142    12.000000000000
         H           -9.541453290984    -1.174551692915    -0.165475286438     1.007825032230
         H            9.528257688346    -1.276907300155    -0.165761263542     1.007825032230
         H           -8.315169223574    -3.318138079463    -0.160437545453     1.007825032230
         H            8.279150962767    -3.407129016144    -0.160916378159     1.007825032230
         C           -6.144998368428    -4.927635499034    -0.164713568200    12.000000000000
         C           -3.706787527723    -4.941249940368    -0.174534536288    12.000000000000
         C           -4.955594237727    -5.643482199745    -0.166567401643    12.000000000000
         C           -2.486125505952    -5.654773800660    -0.161594865244    12.000000000000
         C           -1.254062515205    -4.956110276252    -0.172770471230    12.000000000000
         C            1.201008394143    -4.969268614444    -0.171589346972    12.000000000000
         C           -0.030340854139    -5.669508529390    -0.163746147308    12.000000000000
         C            3.653745921603    -4.980732001665    -0.170831347224    12.000000000000
         C            2.425488516150    -5.681162861778    -0.161454416672    12.000000000000
         C            6.091961438086    -4.993246189637    -0.164476933550    12.000000000000
         C            4.894972264885    -5.696336647208    -0.165713129380    12.000000000000
         H           -7.089896567766    -5.466988068489    -0.160310806519     1.007825032230
         H            7.031051029475    -5.542646762583    -0.160897153786     1.007825032230
         C           -4.923549501924    -7.078809325928    -0.167122170548    12.000000000000
         C           -2.485346267963    -7.087716304180    -0.169632062984    12.000000000000
         C           -3.751690071504    -7.763935383887    -0.169437384059    12.000000000000
         C           -0.037953136713    -7.099453100720    -0.169416337837    12.000000000000
         C           -1.277960280127    -7.772892610917    -0.171401030598    12.000000000000
         C            2.409440141001    -7.114010238253    -0.168553137026    12.000000000000
         C            1.194745757428    -7.786173591813    -0.170705427907    12.000000000000
         C            4.847616872773    -7.131250336830    -0.166046322366    12.000000000000
         C            3.668467426150    -7.803776219194    -0.168394756730    12.000000000000
         H           -5.869944530142    -7.613818824292    -0.165578133683     1.007825032230
         H            5.788245445663    -7.676320415565    -0.164919202884     1.007825032230
         H           -3.753531119175    -8.851059795487    -0.171273298488     1.007825032230
         H           -1.284308585620    -8.860863618748    -0.175828414457     1.007825032230
         H            1.189217394970    -8.874148846840    -0.174798064598     1.007825032230
         H            3.658542435098    -8.890848860304    -0.170049298152     1.007825032230

  Charge       = 0
  Multiplicity = 1
  Basis Set: JUN-CC-PVDZ
    Blend: JUN-CC-PVDZ
  Basis Set: (JUN-CC-PVDZ AUX)
    Blend: JUN-CC-PVDZ-JKFIT

    Orbital Energies [Eh]
    ---------------------

    Doubly Occupied:

       1A    -11.263995     2A    -11.263625     3A    -11.263622
       4A    -11.263200     5A    -11.263189     6A    -11.263151
       7A    -11.263012     8A    -11.263001     9A    -11.262975
      10A    -11.262751    11A    -11.262636    12A    -11.262614
      13A    -11.262144    14A    -11.262130    15A    -11.262107
      16A    -11.262081    17A    -11.261976    18A    -11.261970
      19A    -11.261925    20A    -11.261885    21A    -11.261877
      22A    -11.261786    23A    -11.261779    24A    -11.261636
      25A    -11.261621    26A    -11.261593    27A    -11.261585
      28A    -11.261551    29A    -11.261538    30A    -11.261447
      31A    -11.261435    32A    -11.261418    33A    -11.261412
      34A    -11.261394    35A    -11.261383    36A    -11.261358
      37A    -11.261220    38A    -11.261215    39A    -11.261192
      40A    -11.261184    41A    -11.261177    42A    -11.261170
      43A    -11.261161    44A    -11.261143    45A    -11.261131
      46A    -11.261118    47A    -11.261098    48A    -11.261085
      49A    -11.260926    50A    -11.260890    51A    -11.260866
      52A    -11.260811    53A    -11.260807    54A    -11.260742
      55A    -11.259779    56A    -11.259751    57A    -11.259736
      58A    -11.259719    59A    -11.259705    60A    -11.259683
      61A    -11.259141    62A    -11.259105    63A    -11.259098
      64A    -11.259053    65A    -11.259044    66A    -11.259013
      67A    -11.258776    68A    -11.258749    69A    -11.258732
      70A    -11.258716    71A    -11.258702    72A    -11.258683
      73A    -11.254448    74A    -11.254441    75A    -11.254418
      76A    -11.254417    77A    -11.254417    78A    -11.254410
      79A    -11.253555    80A    -11.253521    81A    -11.253521
      82A    -11.253513    83A    -11.253503    84A    -11.253499
      85A    -11.253470    86A    -11.253433    87A    -11.253433
      88A    -11.253428    89A    -11.253418    90A    -11.253415
      91A    -11.252976    92A    -11.252969    93A    -11.252946
      94A    -11.252945    95A    -11.252944    96A    -11.252937
      97A     -1.253646    98A     -1.238765    99A     -1.238725
     100A     -1.220253   101A     -1.220241   102A     -1.215184
     103A     -1.200857   104A     -1.195409   105A     -1.187900
     106A     -1.187867   107A     -1.173588   108A     -1.173587
     109A     -1.155382   110A     -1.155372   111A     -1.152463
     112A     -1.144558   113A     -1.144554   114A     -1.128337
     115A     -1.114468   116A     -1.112997   117A     -1.112246
     118A     -1.112210   119A     -1.111463   120A     -1.088205
     121A     -1.088188   122A     -1.076803   123A     -1.076800
     124A     -1.067384   125A     -1.067347   126A     -1.064721
     127A     -1.046596   128A     -1.046585   129A     -1.040260
     130A     -1.038579   131A     -1.038572   132A     -1.024983
     133A     -1.021105   134A     -1.021035   135A     -1.006989
     136A     -1.006579   137A     -1.003599   138A     -1.000245
     139A     -1.000192   140A     -0.990926   141A     -0.970763
     142A     -0.970712   143A     -0.955705   144A     -0.955646
     145A     -0.905403   146A     -0.905358   147A     -0.905308
     148A     -0.905275   149A     -0.904036   150A     -0.892077
     151A     -0.892022   152A     -0.890102   153A     -0.890054
     154A     -0.889213   155A     -0.872049   156A     -0.868930
     157A     -0.851350   158A     -0.847606   159A     -0.847601
     160A     -0.845337   161A     -0.842771   162A     -0.834351
     163A     -0.834342   164A     -0.827962   165A     -0.827951
     166A     -0.784355   167A     -0.784344   168A     -0.783428
     169A     -0.783418   170A     -0.782059   171A     -0.782037
     172A     -0.781781   173A     -0.766780   174A     -0.760523
     175A     -0.750329   176A     -0.733315   177A     -0.726868
     178A     -0.726829   179A     -0.724849   180A     -0.724335
     181A     -0.724300   182A     -0.718222   183A     -0.713522
     184A     -0.713514   185A     -0.699379   186A     -0.699351
     187A     -0.685861   188A     -0.685771   189A     -0.685762
     190A     -0.681971   191A     -0.681965   192A     -0.678563
     193A     -0.653429   194A     -0.650664   195A     -0.650628
     196A     -0.649551   197A     -0.649547   198A     -0.649386
     199A     -0.640678   200A     -0.640630   201A     -0.639892
     202A     -0.638985   203A     -0.635790   204A     -0.635757
     205A     -0.628919   206A     -0.617713   207A     -0.615130
     208A     -0.615104   209A     -0.608600   210A     -0.608593
     211A     -0.599073   212A     -0.599034   213A     -0.598526
     214A     -0.598353   215A     -0.598333   216A     -0.597783
     217A     -0.594884   218A     -0.594869   219A     -0.594512
     220A     -0.593944   221A     -0.591726   222A     -0.591723
     223A     -0.587111   224A     -0.577654   225A     -0.577635
     226A     -0.575612   227A     -0.575606   228A     -0.573178
     229A     -0.569522   230A     -0.567897   231A     -0.567871
     232A     -0.566533   233A     -0.566524   234A     -0.560766
     235A     -0.558488   236A     -0.558442   237A     -0.558273
     238A     -0.554150   239A     -0.550469   240A     -0.547328
     241A     -0.544159   242A     -0.534922   243A     -0.534908
     244A     -0.533339   245A     -0.533326   246A     -0.527894
     247A     -0.527876   248A     -0.527517   249A     -0.516928
     250A     -0.516904   251A     -0.515239   252A     -0.515235
     253A     -0.509455   254A     -0.509444   255A     -0.497817
     256A     -0.496246   257A     -0.496201   258A     -0.493694
     259A     -0.493664   260A     -0.489353   261A     -0.481263
     262A     -0.477299   263A     -0.477293   264A     -0.473792
     265A     -0.469190   266A     -0.466292   267A     -0.466290
     268A     -0.458683   269A     -0.446391   270A     -0.446344
     271A     -0.440905   272A     -0.440661   273A     -0.440625
     274A     -0.434564   275A     -0.433784   276A     -0.407253
     277A     -0.407218   278A     -0.386235   279A     -0.386181
     280A     -0.385614   281A     -0.385611   282A     -0.383588
     283A     -0.354178   284A     -0.354161   285A     -0.350497
     286A     -0.337898   287A     -0.335388   288A     -0.335351
     289A     -0.332584   290A     -0.332573   291A     -0.306860
     292A     -0.301755   293A     -0.301704   294A     -0.300694
     295A     -0.285997   296A     -0.256370   297A     -0.253290
     298A     -0.253234   299A     -0.204085   300A     -0.204002

  @DF-RHF Final Energy: -3650.34469794646930

   => Energetics <=

    Nuclear Repulsion Energy =          15611.4211649754324753
    One-Electron Energy =              -36072.2622229429471190
    Two-Electron Energy =               16810.4963600210467121
    Total Energy =                      -3650.3446979464679316
 Dipole X            :         -0.0004197            0.0002112           -0.0002085
 Dipole Y            :          0.0002006           -0.0044281           -0.0042275
 Dipole Z            :        190.1841853         -190.1818020            0.0023833
 Magnitude           :                                                    0.0048575

    SAPT Results
  --------------------------------------------------------------------------------------------------------
    Electrostatics               -332.53411190 [mEh]    -208.66830557 [kcal/mol]    -873.06819052 [kJ/mol]
      Elst10,r                   -332.53411190 [mEh]    -208.66830557 [kcal/mol]    -873.06819052 [kJ/mol]

    Exchange                      902.24519760 [mEh]     566.16740916 [kcal/mol]    2368.84443995 [kJ/mol]
      Exch10                      902.24519760 [mEh]     566.16740916 [kcal/mol]    2368.84443995 [kJ/mol]
      Exch10(S^2)                 831.23600749 [mEh]     521.60846964 [kcal/mol]    2182.40983699 [kJ/mol]

    Induction                    -104.83161428 [mEh]     -65.78283111 [kcal/mol]    -275.23536538 [kJ/mol]
      Ind20,r                    -521.28598021 [mEh]    -327.11189113 [kcal/mol]   -1368.63615248 [kJ/mol]
      Exch-Ind20,r                387.66122487 [mEh]     243.26109122 [kcal/mol]    1017.80440567 [kJ/mol]
      delta HF,r (2)               28.79314105 [mEh]      18.06796879 [kcal/mol]      75.59638142 [kJ/mol]

    Dispersion                   -206.10356073 [mEh]    -129.33193694 [kcal/mol]    -541.12482414 [kJ/mol]
      Disp20                     -260.48207852 [mEh]    -163.45497202 [kcal/mol]    -683.89560293 [kJ/mol]
      Exch-Disp20                  54.37851779 [mEh]      34.12303509 [kcal/mol]     142.77077880 [kJ/mol]
      Disp20 (SS)                -130.24103926 [mEh]     -81.72748601 [kcal/mol]    -341.94780147 [kJ/mol]
      Disp20 (OS)                -130.24103926 [mEh]     -81.72748601 [kcal/mol]    -341.94780147 [kJ/mol]
      Exch-Disp20 (SS)             31.77116647 [mEh]      19.93670796 [kcal/mol]      83.41518609 [kJ/mol]
      Exch-Disp20 (OS)             22.60735132 [mEh]      14.18632713 [kcal/mol]      59.35559271 [kJ/mol]

  Total HF                        464.87947141 [mEh]     291.71627248 [kcal/mol]    1220.54088404 [kJ/mol]
  Total SAPT0                     258.77591069 [mEh]     162.38433554 [kcal/mol]     679.41605991 [kJ/mol]

  Special recipe for scaled SAPT0 (see Manual):
    Electrostatics sSAPT0        -332.53411190 [mEh]    -208.66830557 [kcal/mol]    -873.06819052 [kJ/mol]
    Exchange sSAPT0               902.24519760 [mEh]     566.16740916 [kcal/mol]    2368.84443995 [kJ/mol]
    Induction sSAPT0                3.24612820 [mEh]       2.03697620 [kcal/mol]       8.52270842 [kJ/mol]
    Dispersion sSAPT0            -190.94313955 [mEh]    -119.81862902 [kcal/mol]    -501.32114382 [kJ/mol]
  Total sSAPT0                    382.01407435 [mEh]     239.71745077 [kcal/mol]    1002.97781402 [kJ/mol]
  --------------------------------------------------------------------------------------------------------

*** Psi4 exiting successfully. Buy a developer a beer!
