                               Psi4 1.9 release

  ==> Input File <==

--------------------------------------------------------------------------
memory 32 GB # how much memory is available ! Depends on the nodes/cores !

molecule dimer {
# monomer A
+1 1    # Charge and multiplicity
C  0.680067 1.417258 -7.015929
C -0.680504 1.419286 -7.015545
N -1.085635 1.420284 -5.697221
C  0.000108 1.423560 -4.915820
C -2.477365 1.469690 -5.229242
N  1.085222 1.420284 -5.697221
H  1.385146 1.409430 -7.833368
H -1.385302 1.419096 -7.833214
H -0.000009 1.425307 -3.834731
C  2.478117 1.403392 -5.232123
H  2.490592 1.430737 -4.141870
H  2.967028 0.489946 -5.579299
H  3.001428 2.278875 -5.623595
H -2.857359 2.491761 -5.309201
H -3.082679 0.799606 -5.842306
H -2.518128 1.142706 -4.189294
--
# monomer B
0 1     # Charge and multiplicity
C   1.22531237526482      0.70753866091955      0.00613762728373
C   1.22532433589282     -0.70753852257020     -0.00619318228664
C   -0.00000567409046      1.41496628609039     -0.00672680580738
C   2.45644923379077      1.41832825917820      0.00902448468363
C   0.00001130712078     -1.41497612663474      0.00347275151708
C   -1.22530046906674      0.70754574598412      0.00838914760619
C   2.45643823516184     -1.41832293188077     -0.00843833914343
C   -0.00000085313587      2.83680140328112     -0.00913035594137
C   3.68182717731192      0.70931832800114     -0.00808954934571
C   2.45512052870677      2.83422403348893     -0.00819210630633
C   3.68182158506039     -0.70933346742900      0.00798293467272
C   -1.22531311884624     -0.70752714354401     -0.00512042085974
C   1.22670006104402      3.54346985599427      0.00816696660346
C   0.00000526469929     -2.83678176723568      0.00832091913869
C   -2.45643555300670      1.41831729028492      0.00842454345199
C   2.45512389762097     -2.83422965658853      0.00783102630520
C   -1.22671388474763      3.54346943575023      0.00827029982280
C   4.91451777504333      1.42717324448953     -0.00160886631602
C   3.69315067131765      3.54279566454522     -0.00155906667985
C   -2.45643712022637     -1.41831290883911     -0.00846337726810
C   1.22670532178455     -3.54347386990643     -0.00780316414624
C   -2.45512491866593      2.83421703463423     -0.00818572995999
C   4.91452486062398     -1.42718653794377      0.00136387641845
C   1.22142509354026      4.97013443726031      0.00150231067809
C   4.89300870916237      2.82518837202648     -0.00039219795739
C   -1.22669652864725     -3.54347062507680     -0.00753595973677
C   -3.68181849668397      0.70932533873199     -0.00807686886569
C   3.69314758099218     -3.54280096939050      0.00148176697923
C   -1.22143177215231      4.97012866986289      0.00168580605083
C   6.13477145276790      0.68054831910577     -0.00083909176631
C   3.65678936045204      4.97295361556775     -0.00065042889723
C   -2.45512642789169     -2.83421472106065      0.00758666850712
C   -3.68181869921921     -0.70932533146830      0.00810055625144
C   4.89301309775526     -2.82519973363176      0.00021895393805
C   -0.00000059327114      5.65044773803267      0.00045449734393
C   6.13477559217374     -0.68055448207492      0.00042622874941
C   2.47813196269732      5.65357712333155      0.00063835075260
C   1.22142288457925     -4.97012668293268     -0.00129718634452
C   -3.69316190412301      3.54279732619245     -0.00139355922051
C   -1.22142804110313     -4.97011793159564     -0.00140994817719
C   -4.91452132810043      1.42717581899491     -0.00153192130862
C   3.65678749952045     -4.97295485423912      0.00080007163680
C   -2.47813805026426      5.65357479452875      0.00092287576113
C   -3.69314125872231     -3.54278984697859      0.00136564082345
C   -4.91451200321153     -1.42718062802730      0.00139857359209
C   -0.00000552908399     -5.65043791501335      0.00005899322272
C   -4.89302000425900      2.82518897091939     -0.00040227981744
C   2.47812647313991     -5.65357317188818     -0.00029052915548
C   -3.65679823041642      4.97295655404175     -0.00047374852278
C   -4.89299899901461     -2.82519139505969      0.00006491824035
C   -2.47812801824129     -5.65356579800621     -0.00056571680280
C   -6.13477002348955      0.68054913825639     -0.00086464346868
C   -3.65678835334731     -4.97294365097028      0.00058578382008
C   -6.13476456307132     -0.68055354348201      0.00040575295444
H   5.83528897565761      3.36927626695423      0.00396712770529
H   7.07385965258860      1.22821762089947     -0.00037744837300
H   4.60066374401555      5.51238117445323     -0.00014522814529
H   5.83528386714679     -3.36930568472863     -0.00423551337640
H   -0.00001167146422      6.73853104613662     -0.00389474766392
H   7.07386165167227     -1.22822657074368     -0.00008250934481
H   2.47331421164041      6.74068466339473      0.00017162982210
H   4.60066897122302     -5.51237575717576      0.00039007446835
H   -2.47331820069565      6.74068209160650      0.00047297644710
H   -0.00000978838621     -6.73852780445195      0.00458867820736
H   -5.83530143450167      3.36927132229595      0.00410314985360
H   2.47330840367253     -6.74068500242887      0.00027980126949
H   -4.60067436136587      5.51237839860371      0.00002010017831
H   -5.83527902699321     -3.36928859177951     -0.00451481925734
H   -2.47329986759855     -6.74067870613986     -0.00016951527498
H   -7.07385728692578      1.22822084484047     -0.00046143985387
H   -4.60067330624313     -5.51236229778631      0.00021776644566
H   -7.07385645456741     -1.22822025997701     -0.00017736581114

    units angstrom      # Angstroms are the default
    no_reorient         # Geometry fixed, default
    symmetry c1         # C1 symmetry, default
}

set {
    scf_type DF         # Density fitting, faster than exact integrals
    freeze_core True    # Freeze core electrons
    basis jun-cc-pVDZ   # Jun-cc-pVDZ basis set, recommended for sSAPT0 in https://doi.org/10.1063/1.4867135
}

energy('ssapt0')        # Compute sSAPT0 energy, includes also SAPT0
--------------------------------------------------------------------------

  //              Dimer HF             //
    Molecular point group: c1
  Charge       = 1
  Multiplicity = 1
  Basis Set: JUN-CC-PVDZ
    Blend: JUN-CC-PVDZ
  Basis Set: (JUN-CC-PVDZ AUX)
    Blend: JUN-CC-PVDZ-JKFIT
  @DF-RHF Final Energy: -2359.20568762148469
    Total Energy =                      -2359.2056876214846852
 Dipole X            :         -0.0020562            0.0006313           -0.0014249
 Dipole Y            :         -5.7868644            7.4856329            1.6987685
 Dipole Z            :         20.3828747          -28.3467295           -7.9638548
 Magnitude           :                                                    8.1430215
  //            Monomer A HF           //
    Molecular point group: c1
  Multiplicity = 1
  Basis Set: JUN-CC-PVDZ
    Blend: JUN-CC-PVDZ
  Basis Set: (JUN-CC-PVDZ AUX)
    Blend: JUN-CC-PVDZ-JKFIT
  @DF-RHF Final Energy:  -303.29748292949688
    Total Energy =                       -303.2974829294968799
  //            Monomer B HF           //
    Molecular point group: c1

    Geometry (in Angstrom), charge = 0, multiplicity = 1:

       Center              X                  Y                   Z               Mass
    ------------   -----------------  -----------------  -----------------  -----------------
      Gh(C)           0.680066520158     1.235968212970    -6.278206857420    12.000000000000
      Gh(C)          -0.680504479842     1.237996212970    -6.277822857420    12.000000000000
      Gh(N)          -1.085635479842     1.238994212970    -4.959498857420    14.003074004430
      Gh(C)           0.000107520158     1.242270212970    -4.178097857420    12.000000000000
      Gh(C)          -2.477365479842     1.288400212970    -4.491519857420    12.000000000000
      Gh(N)           1.085221520158     1.238994212970    -4.959498857420    14.003074004430
      Gh(H)           1.385145520158     1.228140212970    -7.095645857420     1.007825032230
      Gh(H)          -1.385302479842     1.237806212970    -7.095491857420     1.007825032230
      Gh(H)          -0.000009479842     1.244017212970    -3.097008857420     1.007825032230
      Gh(C)           2.478116520158     1.222102212970    -4.494400857420    12.000000000000
      Gh(H)           2.490591520158     1.249447212970    -3.404147857420     1.007825032230
      Gh(H)           2.967027520158     0.308656212970    -4.841576857420     1.007825032230
      Gh(H)           3.001427520158     2.097585212970    -4.885872857420     1.007825032230
      Gh(H)          -2.857359479842     2.310471212970    -4.571478857420     1.007825032230
      Gh(H)          -3.082679479842     0.618316212970    -5.104583857420     1.007825032230
      Gh(H)          -2.518128479842     0.961416212970    -3.451571857420     1.007825032230
         C            1.225311895423     0.526248873889     0.743859769864    12.000000000000
         C            1.225323856051    -0.888828309601     0.731528960293    12.000000000000
         C           -0.000006153932     1.233676499060     0.730995336772    12.000000000000
         C            2.456448753949     1.237038472148     0.746746627263    12.000000000000
         C            0.000010827279    -1.596265913665     0.741194894097    12.000000000000
         C           -1.225300948908     0.526255958954     0.746111290186    12.000000000000
         C            2.456437755320    -1.599612718911     0.729283803436    12.000000000000
         C           -0.000001332978     2.655511616251     0.728591786638    12.000000000000
         C            3.681826697470     0.528028540971     0.729632593234    12.000000000000
         C            2.455120048865     2.652934246459     0.729530036273    12.000000000000
         C            3.681821105219    -0.890623254459     0.745705077253    12.000000000000
         C           -1.225313598688    -0.888816930574     0.732601721720    12.000000000000
         C            1.226699581202     3.362180068964     0.745889109183    12.000000000000
         C            0.000004784858    -3.018071554266     0.746043061718    12.000000000000
         C           -2.456436032848     1.237027503255     0.746146686032    12.000000000000
         C            2.455123417779    -3.015519443619     0.745553168885    12.000000000000
         C           -1.226714364589     3.362179648720     0.745992442403    12.000000000000
         C            4.914517295202     1.245883457459     0.736113276264    12.000000000000
         C            3.693150191476     3.361505877515     0.736163075900    12.000000000000
         C           -2.456437600068    -1.599602695869     0.729258765312    12.000000000000
         C            1.226704841943    -3.724763656937     0.729918978434    12.000000000000
         C           -2.455125398508     2.652927247604     0.729536412620    12.000000000000
         C            4.914524380782    -1.608476324974     0.739086018998    12.000000000000
         C            1.221424613699     4.788844650230     0.739224453258    12.000000000000
         C            4.893008229321     2.643898584996     0.737329944622    12.000000000000
         C           -1.226697008489    -3.724760412107     0.730186182843    12.000000000000
         C           -3.681818976526     0.528035551702     0.729645273714    12.000000000000
         C            3.693147101150    -3.724090756421     0.739203909559    12.000000000000
         C           -1.221432251994     4.788838882833     0.739407948631    12.000000000000
         C            6.134770972926     0.499258532075     0.736883050813    12.000000000000
         C            3.656788880610     4.791663828537     0.737071713683    12.000000000000
         C           -2.455126907733    -3.015504508091     0.745308811087    12.000000000000
         C           -3.681819179061    -0.890615118499     0.745822698831    12.000000000000
         C            4.893012617914    -3.006489520662     0.737941096518    12.000000000000
         C           -0.000001073113     5.469157951002     0.738176639924    12.000000000000
         C            6.134775112332    -0.861844269105     0.738148371329    12.000000000000
         C            2.478131482856     5.472287336301     0.738360493332    12.000000000000
         C            1.221422404738    -5.151416469963     0.736424956235    12.000000000000
         C           -3.693162383965     3.361507539162     0.736328583359    12.000000000000
         C           -1.221428520945    -5.151407718626     0.736312194403    12.000000000000
         C           -4.914521807942     1.245886031965     0.736190221271    12.000000000000
         C            3.656787019679    -5.154244641269     0.738522214217    12.000000000000
         C           -2.478138530106     5.472285007498     0.738645018341    12.000000000000
         C           -3.693141738564    -3.724079634009     0.739087783403    12.000000000000
         C           -4.914512483053    -1.608470415058     0.739120716172    12.000000000000
         C           -0.000006008926    -5.831727702044     0.737781135803    12.000000000000
         C           -4.893020484101     2.643899183889     0.737319862762    12.000000000000
         C            2.478125993298    -5.834862958919     0.737431613424    12.000000000000
         C           -3.656798710258     4.791666767011     0.737248394057    12.000000000000
         C           -4.892999478856    -3.006481182090     0.737787060820    12.000000000000
         C           -2.478128498083    -5.834855585037     0.737156425777    12.000000000000
         C           -6.134770503331     0.499259351226     0.736857499111    12.000000000000
         C           -3.656788833189    -5.154233438001     0.738307926400    12.000000000000
         C           -6.134765042913    -0.861843330512     0.738127895534    12.000000000000
         H            5.835288495816     3.187986479924     0.741689270285     1.007825032230
         H            7.073859172747     1.046927833869     0.737344694207     1.007825032230
         H            4.600663264174     5.331091387423     0.737576914435     1.007825032230
         H            5.835283387305    -3.550595471759     0.733486629203     1.007825032230
         H           -0.000012151306     6.557241259106     0.733827394916     1.007825032230
         H            7.073861171831    -1.409516357774     0.737639633235     1.007825032230
         H            2.473313731799     6.559394876364     0.737893772402     1.007825032230
         H            4.600668491381    -5.693665544206     0.738112217048     1.007825032230
         H           -2.473318680537     6.559392304576     0.738195119027     1.007825032230
         H           -0.000010268228    -6.919817591482     0.742310820787     1.007825032230
         H           -5.835301914343     3.187981535266     0.741825292433     1.007825032230
         H            2.473307923831    -6.921974789459     0.738001943849     1.007825032230
         H           -4.600674841208     5.331088611573     0.737742242758     1.007825032230
         H           -5.835279506835    -3.550578378810     0.733207323322     1.007825032230
         H           -2.473300347440    -6.921968493170     0.737552627305     1.007825032230
         H           -7.073857766768     1.046931057810     0.737260702726     1.007825032230
         H           -4.600673786085    -5.693652084817     0.737939909025     1.007825032230
         H           -7.073856934409    -1.409510047007     0.737544776769     1.007825032230

  Charge       = 0
  Multiplicity = 1
  Basis Set: JUN-CC-PVDZ
    Blend: JUN-CC-PVDZ
  Basis Set: (JUN-CC-PVDZ AUX)
    Blend: JUN-CC-PVDZ-JKFIT

    Orbital Energies [Eh]
    ---------------------

    Doubly Occupied:

       1A    -11.260584     2A    -11.260152     3A    -11.260116
       4A    -11.259434     5A    -11.259410     6A    -11.259246
       7A    -11.259038     8A    -11.258961     9A    -11.258953
      10A    -11.258635    11A    -11.258623    12A    -11.258553
      13A    -11.258491    14A    -11.258491    15A    -11.258483
      16A    -11.258455    17A    -11.258449    18A    -11.258430
      19A    -11.258422    20A    -11.258415    21A    -11.258410
      22A    -11.258325    23A    -11.258307    24A    -11.258019
      25A    -11.257346    26A    -11.257287    27A    -11.257282
      28A    -11.257150    29A    -11.257149    30A    -11.257066
      31A    -11.256441    32A    -11.256371    33A    -11.256369
      34A    -11.256263    35A    -11.256258    36A    -11.256213
      37A    -11.252318    38A    -11.252314    39A    -11.252289
      40A    -11.252288    41A    -11.252286    42A    -11.252284
      43A    -11.251436    44A    -11.251420    45A    -11.251418
      46A    -11.251409    47A    -11.251407    48A    -11.251391
      49A    -11.250879    50A    -11.250875    51A    -11.250851
      52A    -11.250850    53A    -11.250847    54A    -11.250845
      55A     -1.244091    56A     -1.219846    57A     -1.219832
      58A     -1.189568    59A     -1.189554    60A     -1.180974
      61A     -1.157579    62A     -1.149002    63A     -1.135525
      64A     -1.135507    65A     -1.113213    66A     -1.113209
      67A     -1.082453    68A     -1.082448    69A     -1.078628
      70A     -1.066001    71A     -1.065996    72A     -1.039418
      73A     -1.024300    74A     -1.021800    75A     -1.021747
      76A     -1.017746    77A     -1.012813    78A     -0.987048
      79A     -0.986996    80A     -0.961900    81A     -0.961849
      82A     -0.894310    83A     -0.894285    84A     -0.887960
      85A     -0.886208    86A     -0.886157    87A     -0.881418
      88A     -0.881371    89A     -0.861918    90A     -0.837425
      91A     -0.818228    92A     -0.816639    93A     -0.812156
      94A     -0.812151    95A     -0.794709    96A     -0.794695
      97A     -0.746643    98A     -0.744878    99A     -0.733438
     100A     -0.733437   101A     -0.732201   102A     -0.732177
     103A     -0.716520   104A     -0.698996   105A     -0.698975
     106A     -0.693611   107A     -0.693584   108A     -0.661249
     109A     -0.653140   110A     -0.651182   111A     -0.650272
     112A     -0.650265   113A     -0.639381   114A     -0.639368
     115A     -0.629735   116A     -0.627543   117A     -0.627530
     118A     -0.606470   119A     -0.605823   120A     -0.601680
     121A     -0.599764   122A     -0.599716   123A     -0.593649
     124A     -0.591249   125A     -0.591230   126A     -0.585293
     127A     -0.576425   128A     -0.576379   129A     -0.567341
     130A     -0.567323   131A     -0.565979   132A     -0.565964
     133A     -0.558749   134A     -0.554866   135A     -0.554865
     136A     -0.538610   137A     -0.538608   138A     -0.538225
     139A     -0.538223   140A     -0.529733   141A     -0.528168
     142A     -0.522894   143A     -0.522877   144A     -0.500520
     145A     -0.495636   146A     -0.493252   147A     -0.487870
     148A     -0.485088   149A     -0.481772   150A     -0.481769
     151A     -0.470363   152A     -0.470339   153A     -0.451042
     154A     -0.450969   155A     -0.439097   156A     -0.439088
     157A     -0.404767   158A     -0.404750   159A     -0.403389
     160A     -0.375449   161A     -0.375440   162A     -0.349143
     163A     -0.337618   164A     -0.336588   165A     -0.336504
     166A     -0.311120   167A     -0.298117   168A     -0.284369
     169A     -0.284314   170A     -0.224941   171A     -0.224873

  @DF-RHF Final Energy: -2055.89320864247293

   => Energetics <=

    Nuclear Repulsion Energy =           6452.5568002797781446
    One-Electron Energy =              -15636.4757940500639961
    Two-Electron Energy =                7128.0257851278138332
    Total Energy =                      -2055.8932086424729277
 Dipole X            :          0.0001919           -0.0000085            0.0001834
 Dipole Y            :        117.1691676         -117.1648546            0.0043130
 Dipole Z            :       -476.7703043          476.7782967            0.0079924
 Magnitude           :                                                    0.0090837

    SAPT Results
  --------------------------------------------------------------------------------------------------------
    Electrostatics                 -9.86087861 [mEh]      -6.18779475 [kcal/mol]     -25.88973321 [kJ/mol]
      Elst10,r                     -9.86087861 [mEh]      -6.18779475 [kcal/mol]     -25.88973321 [kJ/mol]

    Exchange                        0.09440336 [mEh]       0.05923900 [kcal/mol]       0.24785598 [kJ/mol]
      Exch10                        0.09440336 [mEh]       0.05923900 [kcal/mol]       0.24785598 [kJ/mol]
      Exch10(S^2)                   0.09439945 [mEh]       0.05923655 [kcal/mol]       0.24784572 [kJ/mol]

    Induction                      -5.22957427 [mEh]      -3.28160740 [kcal/mol]     -13.73024534 [kJ/mol]
      Ind20,r                      -5.01800009 [mEh]      -3.14884260 [kcal/mol]     -13.17475742 [kJ/mol]
      Exch-Ind20,r                  0.02063974 [mEh]       0.01295163 [kcal/mol]       0.05418963 [kJ/mol]
      delta HF,r (2)               -0.23221392 [mEh]      -0.14571643 [kcal/mol]      -0.60967755 [kJ/mol]

    Dispersion                     -4.14330213 [mEh]      -2.59996134 [kcal/mol]     -10.87823824 [kJ/mol]
      Disp20                       -4.15625077 [mEh]      -2.60808674 [kcal/mol]     -10.91223491 [kJ/mol]
      Exch-Disp20                   0.01294865 [mEh]       0.00812540 [kcal/mol]       0.03399667 [kJ/mol]
      Disp20 (SS)                  -2.07812539 [mEh]      -1.30404337 [kcal/mol]      -5.45611745 [kJ/mol]
      Disp20 (OS)                  -2.07812539 [mEh]      -1.30404337 [kcal/mol]      -5.45611745 [kJ/mol]
      Exch-Disp20 (SS)              0.00869796 [mEh]       0.00545805 [kcal/mol]       0.02283649 [kJ/mol]
      Exch-Disp20 (OS)              0.00425069 [mEh]       0.00266735 [kcal/mol]       0.01116018 [kJ/mol]

  Total HF                        -14.99604952 [mEh]      -9.41016314 [kcal/mol]     -39.37212258 [kJ/mol]
  Total SAPT0                     -19.13935164 [mEh]     -12.01012448 [kcal/mol]     -50.25036081 [kJ/mol]

  Special recipe for scaled SAPT0 (see Manual):
    Electrostatics sSAPT0          -9.86087861 [mEh]      -6.18779475 [kcal/mol]     -25.88973321 [kJ/mol]
    Exchange sSAPT0                 0.09440336 [mEh]       0.05923900 [kcal/mol]       0.24785598 [kJ/mol]
    Induction sSAPT0               -5.22957170 [mEh]      -3.28160579 [kcal/mol]     -13.73023861 [kJ/mol]
    Dispersion sSAPT0              -4.14330052 [mEh]      -2.59996033 [kcal/mol]     -10.87823401 [kJ/mol]
  Total sSAPT0                    -19.13934747 [mEh]     -12.01012186 [kcal/mol]     -50.25034986 [kJ/mol]
  --------------------------------------------------------------------------------------------------------

*** Psi4 exiting successfully. Buy a developer a beer!
