                               Psi4 1.9 release

  ==> Input File <==

--------------------------------------------------------------------------
memory 32 GB # how much memory is available ! Depends on the nodes/cores !

molecule dimer {
# monomer A
+1 1    # Charge and multiplicity
C  0.680067 -1.215929 5.208042
C -0.680504 -1.215545 5.206014
N -1.085635  0.102779 5.205016
C  0.000108  0.884180 5.201740
C -2.477365  0.570758 5.155610
N  1.085222  0.102779 5.205016
H  1.385146 -2.033368 5.215870
H -1.385302 -2.033214 5.206204
H -0.000009  1.965269 5.199993
C  2.478117  0.567877 5.221908
H  2.490592  1.658130 5.194563
H  2.967028  0.220701 6.135354
H  3.001428  0.176405 4.346425
H -2.857359  0.490799 4.133539
H -3.082679 -0.042306 5.825694
H -2.518128  1.610706 5.482594
--
# monomer B
0 1     # Charge and multiplicity
C   1.22531237526482      0.70753866091955      0.00613762728373
C   1.22532433589282     -0.70753852257020     -0.00619318228664
C   -0.00000567409046      1.41496628609039     -0.00672680580738
C   2.45644923379077      1.41832825917820      0.00902448468363
C   0.00001130712078     -1.41497612663474      0.00347275151708
C   -1.22530046906674      0.70754574598412      0.00838914760619
C   2.45643823516184     -1.41832293188077     -0.00843833914343
C   -0.00000085313587      2.83680140328112     -0.00913035594137
C   3.68182717731192      0.70931832800114     -0.00808954934571
C   2.45512052870677      2.83422403348893     -0.00819210630633
C   3.68182158506039     -0.70933346742900      0.00798293467272
C   -1.22531311884624     -0.70752714354401     -0.00512042085974
C   1.22670006104402      3.54346985599427      0.00816696660346
C   0.00000526469929     -2.83678176723568      0.00832091913869
C   -2.45643555300670      1.41831729028492      0.00842454345199
C   2.45512389762097     -2.83422965658853      0.00783102630520
C   -1.22671388474763      3.54346943575023      0.00827029982280
C   4.91451777504333      1.42717324448953     -0.00160886631602
C   3.69315067131765      3.54279566454522     -0.00155906667985
C   -2.45643712022637     -1.41831290883911     -0.00846337726810
C   1.22670532178455     -3.54347386990643     -0.00780316414624
C   -2.45512491866593      2.83421703463423     -0.00818572995999
C   4.91452486062398     -1.42718653794377      0.00136387641845
C   1.22142509354026      4.97013443726031      0.00150231067809
C   4.89300870916237      2.82518837202648     -0.00039219795739
C   -1.22669652864725     -3.54347062507680     -0.00753595973677
C   -3.68181849668397      0.70932533873199     -0.00807686886569
C   3.69314758099218     -3.54280096939050      0.00148176697923
C   -1.22143177215231      4.97012866986289      0.00168580605083
C   6.13477145276790      0.68054831910577     -0.00083909176631
C   3.65678936045204      4.97295361556775     -0.00065042889723
C   -2.45512642789169     -2.83421472106065      0.00758666850712
C   -3.68181869921921     -0.70932533146830      0.00810055625144
C   4.89301309775526     -2.82519973363176      0.00021895393805
C   -0.00000059327114      5.65044773803267      0.00045449734393
C   6.13477559217374     -0.68055448207492      0.00042622874941
C   2.47813196269732      5.65357712333155      0.00063835075260
C   1.22142288457925     -4.97012668293268     -0.00129718634452
C   -3.69316190412301      3.54279732619245     -0.00139355922051
C   -1.22142804110313     -4.97011793159564     -0.00140994817719
C   -4.91452132810043      1.42717581899491     -0.00153192130862
C   3.65678749952045     -4.97295485423912      0.00080007163680
C   -2.47813805026426      5.65357479452875      0.00092287576113
C   -3.69314125872231     -3.54278984697859      0.00136564082345
C   -4.91451200321153     -1.42718062802730      0.00139857359209
C   -0.00000552908399     -5.65043791501335      0.00005899322272
C   -4.89302000425900      2.82518897091939     -0.00040227981744
C   2.47812647313991     -5.65357317188818     -0.00029052915548
C   -3.65679823041642      4.97295655404175     -0.00047374852278
C   -4.89299899901461     -2.82519139505969      0.00006491824035
C   -2.47812801824129     -5.65356579800621     -0.00056571680280
C   -6.13477002348955      0.68054913825639     -0.00086464346868
C   -3.65678835334731     -4.97294365097028      0.00058578382008
C   -6.13476456307132     -0.68055354348201      0.00040575295444
H   5.83528897565761      3.36927626695423      0.00396712770529
H   7.07385965258860      1.22821762089947     -0.00037744837300
H   4.60066374401555      5.51238117445323     -0.00014522814529
H   5.83528386714679     -3.36930568472863     -0.00423551337640
H   -0.00001167146422      6.73853104613662     -0.00389474766392
H   7.07386165167227     -1.22822657074368     -0.00008250934481
H   2.47331421164041      6.74068466339473      0.00017162982210
H   4.60066897122302     -5.51237575717576      0.00039007446835
H   -2.47331820069565      6.74068209160650      0.00047297644710
H   -0.00000978838621     -6.73852780445195      0.00458867820736
H   -5.83530143450167      3.36927132229595      0.00410314985360
H   2.47330840367253     -6.74068500242887      0.00027980126949
H   -4.60067436136587      5.51237839860371      0.00002010017831
H   -5.83527902699321     -3.36928859177951     -0.00451481925734
H   -2.47329986759855     -6.74067870613986     -0.00016951527498
H   -7.07385728692578      1.22822084484047     -0.00046143985387
H   -4.60067330624313     -5.51236229778631      0.00021776644566
H   -7.07385645456741     -1.22822025997701     -0.00017736581114

    units angstrom      # Angstroms are the default
    no_reorient         # Geometry fixed, default
    symmetry c1         # C1 symmetry, default
}

set {
    scf_type DF         # Density fitting, faster than exact integrals
    freeze_core True    # Freeze core electrons
    basis jun-cc-pVDZ   # Jun-cc-pVDZ basis set, recommended for sSAPT0 in https://doi.org/10.1063/1.4867135
}

energy('ssapt0')        # Compute sSAPT0 energy, includes also SAPT0
--------------------------------------------------------------------------

  //              Dimer HF             //
    Molecular point group: c1
  Charge       = 1
  Multiplicity = 1
  Basis Set: JUN-CC-PVDZ
    Blend: JUN-CC-PVDZ
  Basis Set: (JUN-CC-PVDZ AUX)
    Blend: JUN-CC-PVDZ-JKFIT
  @DF-RHF Final Energy: -2359.20557350233321
    Total Energy =                      -2359.2055735023332090
 Dipole X            :          0.0036930            0.0006313            0.0043243
 Dipole Y            :         -1.5491716            1.8864948            0.3373232
 Dipole Z            :        -19.6002932           27.0500018            7.4497086
 Magnitude           :                                                    7.4573429
  //            Monomer A HF           //
    Molecular point group: c1
  Multiplicity = 1
  Basis Set: JUN-CC-PVDZ
    Blend: JUN-CC-PVDZ
  Basis Set: (JUN-CC-PVDZ AUX)
    Blend: JUN-CC-PVDZ-JKFIT
  @DF-RHF Final Energy:  -303.29770591023430
    Total Energy =                       -303.2977059102342992
  //            Monomer B HF           //
    Molecular point group: c1

    Geometry (in Angstrom), charge = 0, multiplicity = 1:

       Center              X                  Y                   Z               Mass
    ------------   -----------------  -----------------  -----------------  -----------------
      Gh(C)           0.680066520158    -1.215933861162     4.546636086235    12.000000000000
      Gh(C)          -0.680504479842    -1.215549861162     4.544608086235    12.000000000000
      Gh(N)          -1.085635479842     0.102774138838     4.543610086235    14.003074004430
      Gh(C)           0.000107520158     0.884175138838     4.540334086235    12.000000000000
      Gh(C)          -2.477365479842     0.570753138838     4.494204086235    12.000000000000
      Gh(N)           1.085221520158     0.102774138838     4.543610086235    14.003074004430
      Gh(H)           1.385145520158    -2.033372861162     4.554464086235     1.007825032230
      Gh(H)          -1.385302479842    -2.033218861162     4.544798086235     1.007825032230
      Gh(H)          -0.000009479842     1.965264138838     4.538587086235     1.007825032230
      Gh(C)           2.478116520158     0.567872138838     4.560502086235    12.000000000000
      Gh(H)           2.490591520158     1.658125138838     4.533157086235     1.007825032230
      Gh(H)           2.967027520158     0.220696138838     5.473948086235     1.007825032230
      Gh(H)           3.001427520158     0.176400138838     3.685019086235     1.007825032230
      Gh(H)          -2.857359479842     0.490794138838     3.472133086235     1.007825032230
      Gh(H)          -3.082679479842    -0.042310861162     5.164288086235     1.007825032230
      Gh(H)          -2.518128479842     1.610701138838     4.821188086235     1.007825032230
         C            1.225311895423     0.707533799757    -0.655268286482    12.000000000000
         C            1.225323856051    -0.707543383733    -0.667599096052    12.000000000000
         C           -0.000006153932     1.414961424928    -0.668132719573    12.000000000000
         C            2.456448753949     1.418323398016    -0.652381429082    12.000000000000
         C            0.000010827279    -1.414980987797    -0.657933162248    12.000000000000
         C           -1.225300948908     0.707540884822    -0.653016766159    12.000000000000
         C            2.456437755320    -1.418327793043    -0.669844252909    12.000000000000
         C           -0.000001332978     2.836796542119    -0.670536269707    12.000000000000
         C            3.681826697470     0.709313466839    -0.669495463111    12.000000000000
         C            2.455120048865     2.834219172327    -0.669598020072    12.000000000000
         C            3.681821105219    -0.709338328591    -0.653422979093    12.000000000000
         C           -1.225313598688    -0.707532004706    -0.666526334625    12.000000000000
         C            1.226699581202     3.543464994832    -0.653238947162    12.000000000000
         C            0.000004784858    -2.836786628398    -0.653084994627    12.000000000000
         C           -2.456436032848     1.418312429123    -0.652981370313    12.000000000000
         C            2.455123417779    -2.834234517751    -0.653574887460    12.000000000000
         C           -1.226714364589     3.543464574588    -0.653135613943    12.000000000000
         C            4.914517295202     1.427168383327    -0.663014780081    12.000000000000
         C            3.693150191476     3.542790803383    -0.662964980445    12.000000000000
         C           -2.456437600068    -1.418317770001    -0.669869291033    12.000000000000
         C            1.226704841943    -3.543478731069    -0.669209077912    12.000000000000
         C           -2.455125398508     2.834212173472    -0.669591643725    12.000000000000
         C            4.914524380782    -1.427191399106    -0.660042037347    12.000000000000
         C            1.221424613699     4.970129576098    -0.659903603087    12.000000000000
         C            4.893008229321     2.825183510864    -0.661798111723    12.000000000000
         C           -1.226697008489    -3.543475486239    -0.668941873502    12.000000000000
         C           -3.681818976526     0.709320477570    -0.669482782631    12.000000000000
         C            3.693147101150    -3.542805830553    -0.659924146786    12.000000000000
         C           -1.221432251994     4.970123808701    -0.659720107715    12.000000000000
         C            6.134770972926     0.680543457943    -0.662245005532    12.000000000000
         C            3.656788880610     4.972948754405    -0.662056342663    12.000000000000
         C           -2.455126907733    -2.834219582223    -0.653819245258    12.000000000000
         C           -3.681819179061    -0.709330192631    -0.653305357514    12.000000000000
         C            4.893012617914    -2.825204594794    -0.661186959827    12.000000000000
         C           -0.000001073113     5.650442876870    -0.660951416421    12.000000000000
         C            6.134775112332    -0.680559343237    -0.660979685016    12.000000000000
         C            2.478131482856     5.653572262169    -0.660767563013    12.000000000000
         C            1.221422404738    -4.970131544095    -0.662703100110    12.000000000000
         C           -3.693162383965     3.542792465030    -0.662799472986    12.000000000000
         C           -1.221428520945    -4.970122792758    -0.662815861943    12.000000000000
         C           -4.914521807942     1.427170957833    -0.662937835074    12.000000000000
         C            3.656787019679    -4.972959715401    -0.660605842129    12.000000000000
         C           -2.478138530106     5.653569933366    -0.660483038004    12.000000000000
         C           -3.693141738564    -3.542794708141    -0.660040272942    12.000000000000
         C           -4.914512483053    -1.427185489190    -0.660007340173    12.000000000000
         C           -0.000006008926    -5.650442776176    -0.661346920543    12.000000000000
         C           -4.893020484101     2.825184109757    -0.661808193583    12.000000000000
         C            2.478125993298    -5.653578033051    -0.661696442921    12.000000000000
         C           -3.656798710258     4.972951692879    -0.661879662288    12.000000000000
         C           -4.892999478856    -2.825196256222    -0.661340995525    12.000000000000
         C           -2.478128498083    -5.653570659169    -0.661971630568    12.000000000000
         C           -6.134770503331     0.680544277094    -0.662270557234    12.000000000000
         C           -3.656788833189    -4.972948512133    -0.660820129945    12.000000000000
         C           -6.134765042913    -0.680558404644    -0.661000160811    12.000000000000
         H            5.835288495816     3.369271405792    -0.657438786060     1.007825032230
         H            7.073859172747     1.228212759737    -0.661783362138     1.007825032230
         H            4.600663264174     5.512376313291    -0.661551141911     1.007825032230
         H            5.835283387305    -3.369310545891    -0.665641427142     1.007825032230
         H           -0.000012151306     6.738526184974    -0.665300661429     1.007825032230
         H            7.073861171831    -1.228231431906    -0.661488423110     1.007825032230
         H            2.473313731799     6.740679802232    -0.661234283943     1.007825032230
         H            4.600668491381    -5.512380618338    -0.661015839297     1.007825032230
         H           -2.473318680537     6.740677230444    -0.660932937318     1.007825032230
         H           -0.000010268228    -6.738532665614    -0.656817235558     1.007825032230
         H           -5.835301914343     3.369266461134    -0.657302763912     1.007825032230
         H            2.473307923831    -6.740689863591    -0.661126112496     1.007825032230
         H           -4.600674841208     5.512373537441    -0.661385813587     1.007825032230
         H           -5.835279506835    -3.369293452942    -0.665920733023     1.007825032230
         H           -2.473300347440    -6.740683567302    -0.661575429040     1.007825032230
         H           -7.073857766768     1.228215983678    -0.661867353619     1.007825032230
         H           -4.600673786085    -5.512367158949    -0.661188147320     1.007825032230
         H           -7.073856934409    -1.228225121139    -0.661583279576     1.007825032230

  Charge       = 0
  Multiplicity = 1
  Basis Set: JUN-CC-PVDZ
    Blend: JUN-CC-PVDZ
  Basis Set: (JUN-CC-PVDZ AUX)
    Blend: JUN-CC-PVDZ-JKFIT

    Orbital Energies [Eh]
    ---------------------

    Doubly Occupied:

       1A    -11.260561     2A    -11.260119     3A    -11.260113
       4A    -11.259404     5A    -11.259401     6A    -11.259230
       7A    -11.259017     8A    -11.258940     9A    -11.258939
      10A    -11.258611    11A    -11.258609    12A    -11.258535
      13A    -11.258473    14A    -11.258469    15A    -11.258464
      16A    -11.258436    17A    -11.258429    18A    -11.258412
      19A    -11.258404    20A    -11.258395    21A    -11.258390
      22A    -11.258298    23A    -11.258296    24A    -11.258004
      25A    -11.257331    26A    -11.257272    27A    -11.257267
      28A    -11.257137    29A    -11.257132    30A    -11.257050
      31A    -11.256427    32A    -11.256360    33A    -11.256353
      34A    -11.256250    35A    -11.256243    36A    -11.256199
      37A    -11.252291    38A    -11.252288    39A    -11.252286
      40A    -11.252285    41A    -11.252282    42A    -11.252277
      43A    -11.251402    44A    -11.251399    45A    -11.251396
      46A    -11.251391    47A    -11.251390    48A    -11.251385
      49A    -11.250852    50A    -11.250849    51A    -11.250848
      52A    -11.250846    53A    -11.250843    54A    -11.250839
      55A     -1.244058    56A     -1.219816    57A     -1.219806
      58A     -1.189542    59A     -1.189532    60A     -1.180947
      61A     -1.157560    62A     -1.148978    63A     -1.135499
      64A     -1.135484    65A     -1.113194    66A     -1.113190
      67A     -1.082429    68A     -1.082421    69A     -1.078602
      70A     -1.065984    71A     -1.065978    72A     -1.039394
      73A     -1.024269    74A     -1.021769    75A     -1.021719
      76A     -1.017727    77A     -1.012797    78A     -0.987018
      79A     -0.986971    80A     -0.961880    81A     -0.961830
      82A     -0.894290    83A     -0.894262    84A     -0.887927
      85A     -0.886180    86A     -0.886127    87A     -0.881389
      88A     -0.881341    89A     -0.861897    90A     -0.837412
      91A     -0.818203    92A     -0.816610    93A     -0.812128
      94A     -0.812124    95A     -0.794690    96A     -0.794677
      97A     -0.746610    98A     -0.744853    99A     -0.733411
     100A     -0.733406   101A     -0.732180   102A     -0.732155
     103A     -0.716493   104A     -0.698973   105A     -0.698955
     106A     -0.693584   107A     -0.693561   108A     -0.661229
     109A     -0.653113   110A     -0.651151   111A     -0.650253
     112A     -0.650249   113A     -0.639357   114A     -0.639348
     115A     -0.629709   116A     -0.627516   117A     -0.627502
     118A     -0.606472   119A     -0.605813   120A     -0.601652
     121A     -0.599735   122A     -0.599694   123A     -0.593624
     124A     -0.591215   125A     -0.591197   126A     -0.585279
     127A     -0.576425   128A     -0.576391   129A     -0.567323
     130A     -0.567309   131A     -0.565953   132A     -0.565937
     133A     -0.558720   134A     -0.554848   135A     -0.554842
     136A     -0.538590   137A     -0.538590   138A     -0.538230
     139A     -0.538215   140A     -0.529709   141A     -0.528166
     142A     -0.522871   143A     -0.522857   144A     -0.500501
     145A     -0.495622   146A     -0.493230   147A     -0.487840
     148A     -0.485060   149A     -0.481749   150A     -0.481742
     151A     -0.470350   152A     -0.470343   153A     -0.451010
     154A     -0.450935   155A     -0.439079   156A     -0.439072
     157A     -0.404765   158A     -0.404736   159A     -0.403384
     160A     -0.375433   161A     -0.375427   162A     -0.349137
     163A     -0.337588   164A     -0.336548   165A     -0.336521
     166A     -0.311103   167A     -0.298105   168A     -0.284348
     169A     -0.284299   170A     -0.224920   171A     -0.224859

  @DF-RHF Final Energy: -2055.89344120024452

   => Energetics <=

    Nuclear Repulsion Energy =           6452.5568002797772351
    One-Electron Energy =              -15636.4829680333350552
    Two-Electron Energy =                7128.0327265533132959
    Total Energy =                      -2055.8934412002445242
 Dipole X            :         -0.0001466           -0.0000085           -0.0001551
 Dipole Y            :          0.0030654           -0.0028843            0.0001811
 Dipole Z            :        427.4480649         -427.4590469           -0.0109820
 Magnitude           :                                                    0.0109846

    SAPT Results
  --------------------------------------------------------------------------------------------------------
    Electrostatics                -10.18249804 [mEh]      -6.38961399 [kcal/mol]     -26.73414492 [kJ/mol]
      Elst10,r                    -10.18249804 [mEh]      -6.38961399 [kcal/mol]     -26.73414492 [kJ/mol]

    Exchange                        0.05228710 [mEh]       0.03281065 [kcal/mol]       0.13727975 [kJ/mol]
      Exch10                        0.05228710 [mEh]       0.03281065 [kcal/mol]       0.13727975 [kJ/mol]
      Exch10(S^2)                   0.05228676 [mEh]       0.03281044 [kcal/mol]       0.13727888 [kJ/mol]

    Induction                      -4.29618091 [mEh]      -2.69589422 [kcal/mol]     -11.27962142 [kJ/mol]
      Ind20,r                      -4.17337223 [mEh]      -2.61883061 [kcal/mol]     -10.95718729 [kJ/mol]
      Exch-Ind20,r                  0.01209748 [mEh]       0.00759129 [kcal/mol]       0.03176194 [kJ/mol]
      delta HF,r (2)               -0.13490616 [mEh]      -0.08465489 [kcal/mol]      -0.35419607 [kJ/mol]

    Dispersion                     -5.04500771 [mEh]      -3.16579013 [kcal/mol]     -13.24566591 [kJ/mol]
      Disp20                       -5.05794371 [mEh]      -3.17390760 [kcal/mol]     -13.27962938 [kJ/mol]
      Exch-Disp20                   0.01293600 [mEh]       0.00811746 [kcal/mol]       0.03396347 [kJ/mol]
      Disp20 (SS)                  -2.52897186 [mEh]      -1.58695380 [kcal/mol]      -6.63981469 [kJ/mol]
      Disp20 (OS)                  -2.52897186 [mEh]      -1.58695380 [kcal/mol]      -6.63981469 [kJ/mol]
      Exch-Disp20 (SS)              0.00885800 [mEh]       0.00555848 [kcal/mol]       0.02325668 [kJ/mol]
      Exch-Disp20 (OS)              0.00407800 [mEh]       0.00255898 [kcal/mol]       0.01070679 [kJ/mol]

  Total HF                        -14.42639185 [mEh]      -9.05269756 [kcal/mol]     -37.87648660 [kJ/mol]
  Total SAPT0                     -19.47139956 [mEh]     -12.21848769 [kcal/mol]     -51.12215251 [kJ/mol]

  Special recipe for scaled SAPT0 (see Manual):
    Electrostatics sSAPT0         -10.18249804 [mEh]      -6.38961399 [kcal/mol]     -26.73414492 [kJ/mol]
    Exchange sSAPT0                 0.05228710 [mEh]       0.03281065 [kcal/mol]       0.13727975 [kJ/mol]
    Induction sSAPT0               -4.29618068 [mEh]      -2.69589408 [kcal/mol]     -11.27962082 [kJ/mol]
    Dispersion sSAPT0              -5.04500746 [mEh]      -3.16578998 [kcal/mol]     -13.24566526 [kJ/mol]
  Total sSAPT0                    -19.47139909 [mEh]     -12.21848739 [kcal/mol]     -51.12215125 [kJ/mol]
  --------------------------------------------------------------------------------------------------------

*** Psi4 exiting successfully. Buy a developer a beer!
