                               Psi4 1.9 release

  ==> Input File <==

--------------------------------------------------------------------------
memory 47 GB # how much memory is available ! Depends on the nodes/cores !

molecule dimer {
# monomer A
-1 1    # Charge and multiplicity
B -0.000046  0.000337 2.599994
F -1.153597  0.000048 3.415641
F  1.153661 -0.000581 3.415641
F -0.000019 -1.153637 1.784360
F -0.000019  1.153978 1.784360
--
# monomer B
0 1     # Charge and multiplicity
C   -3.66844126402057      7.80375217008252      0.00190004133558
C   -4.84759871934653      7.13124183134024     -0.00046653359696
C   -4.89495929917518      5.69633040353158     -0.00103944469517
C   -3.65374067877320      4.98073034095895      0.00662099703436
C   -2.40942512149445      7.11398103667468      0.00209438359570
C   -2.42547734410473      5.68112195090346     -0.00491050527438
C   -1.19474401643570      7.78614419430947      0.00356656413763
C   0.03795902893699      7.09942164575698      0.00139585983271
C   0.03033258741920      5.66948955970466     -0.00408752508301
C   -1.20098450790502      4.96927034791531      0.00488220885047
C   1.27795782581485      7.77285944319479      0.00277170839332
C   2.48535808472416      7.08769688523756      0.00049722048857
C   2.48612868491717      5.65477081024076     -0.00644052849921
C   1.25408291964399      4.95607811366431      0.00518741308898
C   3.75171459140595      7.76391215098033      0.00062407186893
C   4.92356605618520      7.07878077698995     -0.00143240883900
C   4.95560727132542      5.64344746336949     -0.00159282164606
C   3.70680153420475      4.94121020833308      0.00349873852374
H   -3.65852113775815      8.89082741913536      0.00358502958574
H   -1.18921332975660      8.87412108735996      0.00753844057883
H   1.28429423888630      8.86083343548850      0.00693053253426
H   3.75354208679975      8.85103527897216      0.00214659618464
H   5.86995870320703      7.61379483465560     -0.00235777588134
H   -5.78823170750226      7.67630221293400     -0.00202638095293
C   -6.09197395869619      4.99326001364347     -0.00291168518608
C   -6.12866148031747      3.58258016879823     -0.00171050815740
C   -3.66457974004527      3.56418217974434     -0.00463560277484
C   -4.89429820469869      2.86108077590057      0.00453338221034
C   -2.43733499489796      2.84761165708481      0.00719617576166
C   -1.20922785759670      3.54788693497833     -0.00648285103018
C   1.24714157216223      3.53468075142962     -0.00729145743546
C   0.01517603956900      2.83311183930540      0.00439272578912
C   2.46764517244071      2.82128997725533      0.00449278391269
C   3.70254947457969      3.52466015442405     -0.00899517692985
C   6.14498038638375      4.92757236613191     -0.00282626685777
C   6.16658835886151      3.51658447594213     -0.00065971342101
C   4.92460995845939      2.80840792535402      0.00587903281610
H   7.08990550964105      5.46688776622306     -0.00658814770723
H   -7.03104175110130      5.54268795285765     -0.00714490013730
C   -7.33969804112295      2.85841153457957     -0.00333767559888
C   -7.36488195805880      1.47032337158330     -0.00157213747140
C   -4.90350460894690      1.44442681216000     -0.00628840166334
C   -6.13225715261081      0.73993935705394      0.00600164231964
C   -3.67687480051673      0.72669714267312      0.00433931473643
C   -2.44565658606518      1.42964113326212     -0.00597039546461
C   -1.22360068130162      0.71532450163492      0.00545886906656
C   0.00763786931376      1.41738314923765      0.00392452278437
C   1.23121980774686      0.70211669058719     -0.01490206287210
C   2.46082110053113      1.40329203612573      0.00460244601878
C   3.68443025419614      0.68719842821222      0.00377365974158
C   4.91870890153864      1.39173456118907     -0.00862816189375
C   7.36980207796101      2.77948220318441     -0.00242013321349
C   7.38016266612146      1.39121750785509     -0.00087345036788
C   6.13979953912259      0.67411862320065      0.00545489144369
H   -8.27919079934664      3.40711804112415     -0.00763522772059
H   8.31511347147953      3.31811809662368     -0.00663070901292
C   -8.59175593758115      0.72483255304480     -0.00123170985383
C   -8.59902460370342     -0.63263980622873      0.00089141472904
C   -6.13981313911873     -0.67413663715361     -0.00609792660607
C   -7.38018411213749     -1.39126618958160      0.00131813493501
C   -4.91868448025621     -1.39175501803000      0.00624257154343
C   -3.68443829568458     -0.68723731573599     -0.00478966852105
C   -2.46081704024768     -1.40334517882457      0.00575341766833
C   -1.23116201232071     -0.70217386488055     -0.00636696112346
C   -0.00756962538737     -1.41741884941102      0.00108956317991
C   1.22364771588843     -0.71527537726392      0.01109518512883
C   2.44567064933149     -1.42964328900682     -0.00065482763106
C   3.67686670284649     -0.72670743155550     -0.00479541202602
C   6.13224884641929     -0.73997883984993     -0.00632338623858
C   4.90351914550401     -1.44445752054090      0.00751768830159
C   8.59901484869081      0.63260386666793     -0.00101133422380
C   8.59174548810050     -0.72485086719319      0.00072504603735
C   7.36486276438985     -1.47033266560598      0.00049486934466
H   -9.52830597181814      1.27684744919284     -0.00270163681798
H   9.54141097460619      1.17457248844457     -0.00206336648518
C   -7.36983790976868     -2.77954514593389      0.00312634335708
C   -4.92459910905015     -2.80843725734101     -0.00460528907921
C   -6.16662249566744     -3.51665219282533      0.00169655107992
C   -3.70251035970491     -3.52468154912026      0.00571878010666
C   -2.46764698511392     -2.82132596280400     -0.00632585824990
C   -0.01513347410770     -2.83314164539971     -0.00604426974092
C   -1.24712184122656     -3.53473217556300      0.00551968366725
C   1.20924506964357     -3.54791467864352      0.00805871345849
C   2.43733602215464     -2.84764173817541     -0.00608104485234
C   4.89430234377080     -2.86112296828604     -0.00526030478103
C   3.66461525504104     -3.56421984553201      0.00761911515957
C   6.12863901474565     -3.58258405771778      0.00096495711699
C   7.33967266469532     -2.85841330737039      0.00248018319869
H   -9.54144911125902     -1.17456346666430      0.00226083090216
H   9.52826186807155     -1.27691907390448      0.00197485379837
H   -8.31516504384864     -3.31814985321231      0.00729857188773
H   8.27915514249207     -3.40714078989363      0.00681973918158
C   -6.14499418870218     -4.92764727278338      0.00302254913999
C   -3.70678334799751     -4.94126171411716     -0.00679841894792
C   -4.95559005800169     -5.64349397349412      0.00116871569699
C   -2.48612132622665     -5.65478557440947      0.00614125209662
C   -1.25405833548005     -4.95612205000132     -0.00503435388927
C   1.20101257386816     -4.96928038819302     -0.00385322963129
C   -0.03033667441341     -5.66952030313900      0.00398997003238
C   3.65375010132847     -4.98074377541453     -0.00309522988330
C   2.42549269587528     -5.68117463552727      0.00628170066869
C   6.09196561781097     -4.99325796338655      0.00325918379042
C   4.89497644461045     -5.69634842095790      0.00202298796027
H   -7.08989238804069     -5.46699984223871      0.00742531082125
H   7.03105520920009     -5.54265853633254      0.00683896355417
C   -4.92354532219813     -7.07882109967734      0.00061394679214
C   -2.48534208823777     -7.08772807792913     -0.00189594564379
C   -3.75168589177895     -7.76394715763627     -0.00170126671874
C   -0.03794895698805     -7.09946487446944     -0.00168022049625
C   -1.27795610040136     -7.77290438466689     -0.00366491325785
C   2.40944432072629     -7.11402201200282     -0.00081701968533
C   1.19474993715296     -7.78618536556242     -0.00296931056689
C   4.84762105249800     -7.13126211057943      0.00168979497423
C   3.66847160587561     -7.80378799294376     -0.00065863938960
H   -5.86994035041618     -7.61383059804164      0.00215798365757
H   5.78824962538815     -7.67633218931421      0.00281691445618
H   -3.75352693944918     -8.85107156923607     -0.00353718114765
H   -1.28430440589466     -8.86087539249706     -0.00809229711623
H   1.18922157469537     -8.87416062058945     -0.00706194725726
H   3.65854661482387     -8.89086063405326     -0.00231318081200

    units angstrom      # Angstroms are the default
    no_reorient         # Geometry fixed, default
    symmetry c1         # C1 symmetry, default
}

set {
    scf_type DF         # Density fitting, faster than exact integrals
    freeze_core True    # Freeze core electrons
    basis jun-cc-pVDZ   # Jun-cc-pVDZ basis set, recommended for sSAPT0 in https://doi.org/10.1063/1.4867135
}

energy('ssapt0')        # Compute sSAPT0 energy, includes also SAPT0
--------------------------------------------------------------------------

  //              Dimer HF             //
    Molecular point group: c1
  Charge       = -1
  Multiplicity = 1
  Basis Set: JUN-CC-PVDZ
    Blend: JUN-CC-PVDZ
  Basis Set: (JUN-CC-PVDZ AUX)
    Blend: JUN-CC-PVDZ-JKFIT
  @DF-RHF Final Energy: -4072.92675433163413
    Total Energy =                      -4072.9267543316345837
 Dipole X            :          0.0017891           -0.0001188            0.0016703
 Dipole Y            :         -0.0001055           -0.0002727           -0.0003782
 Dipole Z            :         13.0987621          -15.4733560           -2.3745939
 Magnitude           :                                                    2.3745945
  //            Monomer A HF           //
    Molecular point group: c1
  Multiplicity = 1
  Basis Set: JUN-CC-PVDZ
    Blend: JUN-CC-PVDZ
  Basis Set: (JUN-CC-PVDZ AUX)
    Blend: JUN-CC-PVDZ-JKFIT
  @DF-RHF Final Energy:  -422.77722257795682
    Total Energy =                       -422.7772225779568203
  //            Monomer B HF           //
    Molecular point group: c1

    Geometry (in Angstrom), charge = 0, multiplicity = 1:

       Center              X                  Y                   Z               Mass
    ------------   -----------------  -----------------  -----------------  -----------------
      Gh(B)          -0.000050191042     0.000351518223     2.420914545552    11.009305360000
      Gh(F)          -1.153601191042     0.000062518223     3.236561545552    18.998403162730
      Gh(F)           1.153656808958    -0.000566481777     3.236561545552    18.998403162730
      Gh(F)          -0.000023191042    -1.153622481777     1.605280545552    18.998403162730
      Gh(F)          -0.000023191042     1.153992518223     1.605280545552    18.998403162730
         C           -3.668445455062     7.803766688305    -0.177179413112    12.000000000000
         C           -4.847602910388     7.131256349563    -0.179545988045    12.000000000000
         C           -4.894963490217     5.696344921754    -0.180118899143    12.000000000000
         C           -3.653744869815     4.980744859182    -0.172458457413    12.000000000000
         C           -2.409429312536     7.113995554897    -0.176985070852    12.000000000000
         C           -2.425481535146     5.681136469126    -0.183989959722    12.000000000000
         C           -1.194748207477     7.786158712532    -0.175512890310    12.000000000000
         C            0.037954837895     7.099436163980    -0.177683594615    12.000000000000
         C            0.030328396378     5.669504077927    -0.183166979531    12.000000000000
         C           -1.200988698947     4.969284866138    -0.174197245597    12.000000000000
         C            1.277953634773     7.772873961417    -0.176307746054    12.000000000000
         C            2.485353893683     7.087711403460    -0.178582233959    12.000000000000
         C            2.486124493876     5.654785328463    -0.185519982947    12.000000000000
         C            1.254078728602     4.956092631887    -0.173892041359    12.000000000000
         C            3.751710400364     7.763926669203    -0.178455382579    12.000000000000
         C            4.923561865144     7.078795295213    -0.180511863287    12.000000000000
         C            4.955603080284     5.643461981592    -0.180672276094    12.000000000000
         C            3.706797343163     4.941224726556    -0.175580715924    12.000000000000
         H           -3.658525328800     8.890841937358    -0.175494424862     1.007825032230
         H           -1.189217520798     8.874135605583    -0.171541013869     1.007825032230
         H            1.284290047845     8.860847953711    -0.172148921913     1.007825032230
         H            3.753537895758     8.851049797195    -0.176932858263     1.007825032230
         H            5.869954512165     7.613809352878    -0.181437230329     1.007825032230
         H           -5.788235898544     7.676316731157    -0.181105835401     1.007825032230
         C           -6.091978149738     4.993274531866    -0.181991139634    12.000000000000
         C           -6.128665671359     3.582594687021    -0.180789962605    12.000000000000
         C           -3.664583931087     3.564196697967    -0.183715057223    12.000000000000
         C           -4.894302395740     2.861095294123    -0.174546072237    12.000000000000
         C           -2.437339185940     2.847626175307    -0.171883278686    12.000000000000
         C           -1.209232048638     3.547901453201    -0.185562305478    12.000000000000
         C            1.247137381121     3.534695269652    -0.186370911883    12.000000000000
         C            0.015171848527     2.833126357528    -0.174686728659    12.000000000000
         C            2.467640981399     2.821304495478    -0.174586670535    12.000000000000
         C            3.702545283538     3.524674672647    -0.188074631378    12.000000000000
         C            6.144976195342     4.927586884354    -0.181905721305    12.000000000000
         C            6.166584167820     3.516598994165    -0.179739167869    12.000000000000
         C            4.924605767418     2.808422443577    -0.173200421632    12.000000000000
         H            7.089901318599     5.466902284446    -0.185667602155     1.007825032230
         H           -7.031045942143     5.542702471080    -0.186224354585     1.007825032230
         C           -7.339702232165     2.858426052802    -0.182417130047    12.000000000000
         C           -7.364886149100     1.470337889806    -0.180651591919    12.000000000000
         C           -4.903508799989     1.444441330383    -0.185367856111    12.000000000000
         C           -6.132261343652     0.739953875277    -0.173077812128    12.000000000000
         C           -3.676878991558     0.726711660896    -0.174740139711    12.000000000000
         C           -2.445660777107     1.429655651485    -0.185049849912    12.000000000000
         C           -1.223604872343     0.715339019858    -0.173620585381    12.000000000000
         C            0.007633678272     1.417397667460    -0.175154931663    12.000000000000
         C            1.231215616705     0.702131208810    -0.193981517320    12.000000000000
         C            2.460816909489     1.403306554348    -0.174477008429    12.000000000000
         C            3.684426063155     0.687212946435    -0.175305794706    12.000000000000
         C            4.918704710497     1.391749079412    -0.187707616341    12.000000000000
         C            7.369797886919     2.779496721407    -0.181499587661    12.000000000000
         C            7.380158475080     1.391232026078    -0.179952904816    12.000000000000
         C            6.139795348081     0.674133141423    -0.173624563004    12.000000000000
         H           -8.279194990388     3.407132559347    -0.186714682168     1.007825032230
         H            8.315109280438     3.318132614846    -0.185710163461     1.007825032230
         C           -8.591760128623     0.724847071267    -0.180311164301    12.000000000000
         C           -8.599028794745    -0.632625288006    -0.178188039719    12.000000000000
         C           -6.139817330160    -0.674122118931    -0.185177381054    12.000000000000
         C           -7.380188303179    -1.391251671359    -0.177761319513    12.000000000000
         C           -4.918688671298    -1.391740499807    -0.172836882904    12.000000000000
         C           -3.684442486726    -0.687222797513    -0.183869122969    12.000000000000
         C           -2.460821231289    -1.403330660602    -0.173326036779    12.000000000000
         C           -1.231166203362    -0.702159346658    -0.185446415571    12.000000000000
         C           -0.007573816429    -1.417404331188    -0.177989891268    12.000000000000
         C            1.223643524847    -0.715260859041    -0.167984269319    12.000000000000
         C            2.445666458290    -1.429628770784    -0.179734282079    12.000000000000
         C            3.676862511805    -0.726692913333    -0.183874866474    12.000000000000
         C            6.132244655378    -0.739964321627    -0.185402840686    12.000000000000
         C            4.903514954462    -1.444443002318    -0.171561766146    12.000000000000
         C            8.599010657649     0.632618384891    -0.180090788671    12.000000000000
         C            8.591741297059    -0.724836348971    -0.178354408410    12.000000000000
         C            7.364858573348    -1.470318147383    -0.178584585103    12.000000000000
         H           -9.528310162860     1.276861967415    -0.181781091266     1.007825032230
         H            9.541406783565     1.174587006667    -0.181142820933     1.007825032230
         C           -7.369842100810    -2.779530627711    -0.175953111091    12.000000000000
         C           -4.924603300092    -2.808422739118    -0.183684743527    12.000000000000
         C           -6.166626686709    -3.516637674603    -0.177382903368    12.000000000000
         C           -3.702514550747    -3.524667030898    -0.173360674341    12.000000000000
         C           -2.467651176156    -2.821311444581    -0.185405312698    12.000000000000
         C           -0.015137665149    -2.833127127177    -0.185123724189    12.000000000000
         C           -1.247126032268    -3.534717657340    -0.173559770780    12.000000000000
         C            1.209240878602    -3.547900160421    -0.171020740989    12.000000000000
         C            2.437331831113    -2.847627219953    -0.185160499300    12.000000000000
         C            4.894298152729    -2.861108450063    -0.184339759229    12.000000000000
         C            3.664611063999    -3.564205327309    -0.171460339288    12.000000000000
         C            6.128634823704    -3.582569539495    -0.178114497331    12.000000000000
         C            7.339668473654    -2.858398789148    -0.176599271249    12.000000000000
         H           -9.541453302301    -1.174548948442    -0.176818623546     1.007825032230
         H            9.528257677030    -1.276904555682    -0.177104600649     1.007825032230
         H           -8.315169234890    -3.318135334990    -0.171780882560     1.007825032230
         H            8.279150951450    -3.407126271671    -0.172259715266     1.007825032230
         C           -6.144998379744    -4.927632754561    -0.176056905308    12.000000000000
         C           -3.706787539039    -4.941247195895    -0.185877873396    12.000000000000
         C           -4.955594249043    -5.643479455272    -0.177910738751    12.000000000000
         C           -2.486125517268    -5.654771056187    -0.172938202351    12.000000000000
         C           -1.254062526522    -4.956107531779    -0.184113808337    12.000000000000
         C            1.201008382827    -4.969265869970    -0.182932684079    12.000000000000
         C           -0.030340865455    -5.669505784916    -0.175089484415    12.000000000000
         C            3.653745910287    -4.980729257192    -0.182174684331    12.000000000000
         C            2.425488504834    -5.681160117305    -0.172797753779    12.000000000000
         C            6.091961426769    -4.993243445164    -0.175820270657    12.000000000000
         C            4.894972253569    -5.696333902735    -0.177056466487    12.000000000000
         H           -7.089896579082    -5.466985324016    -0.171654143626     1.007825032230
         H            7.031051018158    -5.542644018110    -0.172240490893     1.007825032230
         C           -4.923549513240    -7.078806581455    -0.178465507656    12.000000000000
         C           -2.485346279279    -7.087713559707    -0.180975400091    12.000000000000
         C           -3.751690082821    -7.763932639414    -0.180780721166    12.000000000000
         C           -0.037953148030    -7.099450356247    -0.180759674944    12.000000000000
         C           -1.277960291443    -7.772889866444    -0.182744367706    12.000000000000
         C            2.409440129685    -7.114007493780    -0.179896474133    12.000000000000
         C            1.194745746111    -7.786170847340    -0.182048765015    12.000000000000
         C            4.847616861456    -7.131247592357    -0.177389659473    12.000000000000
         C            3.668467414834    -7.803773474721    -0.179738093837    12.000000000000
         H           -5.869944541458    -7.613816079819    -0.176921470790     1.007825032230
         H            5.788245434347    -7.676317671092    -0.176262539991     1.007825032230
         H           -3.753531130491    -8.851057051013    -0.182616635595     1.007825032230
         H           -1.284308596936    -8.860860874274    -0.187171751564     1.007825032230
         H            1.189217383654    -8.874146102367    -0.186141401705     1.007825032230
         H            3.658542423782    -8.890846115831    -0.181392635260     1.007825032230

  Charge       = 0
  Multiplicity = 1
  Basis Set: JUN-CC-PVDZ
    Blend: JUN-CC-PVDZ
  Basis Set: (JUN-CC-PVDZ AUX)
    Blend: JUN-CC-PVDZ-JKFIT

    Orbital Energies [Eh]
    ---------------------

    Doubly Occupied:

       1A    -11.264108     2A    -11.263806     3A    -11.263648
       4A    -11.263309     5A    -11.263237     6A    -11.263231
       7A    -11.263119     8A    -11.263083     9A    -11.263059
      10A    -11.262833    11A    -11.262744    12A    -11.262692
      13A    -11.262249    14A    -11.262241    15A    -11.262202
      16A    -11.262186    17A    -11.262091    18A    -11.262081
      19A    -11.262045    20A    -11.262012    21A    -11.261993
      22A    -11.261925    23A    -11.261875    24A    -11.261742
      25A    -11.261741    26A    -11.261724    27A    -11.261702
      28A    -11.261677    29A    -11.261657    30A    -11.261563
      31A    -11.261550    32A    -11.261546    33A    -11.261534
      34A    -11.261507    35A    -11.261504    36A    -11.261485
      37A    -11.261327    38A    -11.261320    39A    -11.261313
      40A    -11.261308    41A    -11.261303    42A    -11.261300
      43A    -11.261276    44A    -11.261257    45A    -11.261254
      46A    -11.261231    47A    -11.261226    48A    -11.261222
      49A    -11.261022    50A    -11.260994    51A    -11.260977
      52A    -11.260909    53A    -11.260901    54A    -11.260849
      55A    -11.259906    56A    -11.259894    57A    -11.259889
      58A    -11.259862    59A    -11.259857    60A    -11.259842
      61A    -11.259274    62A    -11.259251    63A    -11.259243
      64A    -11.259195    65A    -11.259187    66A    -11.259160
      67A    -11.258909    68A    -11.258891    69A    -11.258887
      70A    -11.258861    71A    -11.258855    72A    -11.258845
      73A    -11.254530    74A    -11.254528    75A    -11.254522
      76A    -11.254521    77A    -11.254521    78A    -11.254520
      79A    -11.253651    80A    -11.253649    81A    -11.253647
      82A    -11.253645    83A    -11.253643    84A    -11.253642
      85A    -11.253566    86A    -11.253564    87A    -11.253562
      88A    -11.253560    89A    -11.253559    90A    -11.253558
      91A    -11.253057    92A    -11.253055    93A    -11.253050
      94A    -11.253049    95A    -11.253048    96A    -11.253048
      97A     -1.253872    98A     -1.238968    99A     -1.238952
     100A     -1.220447   101A     -1.220437   102A     -1.215374
     103A     -1.201032   104A     -1.195591   105A     -1.188089
     106A     -1.188075   107A     -1.173758   108A     -1.173751
     109A     -1.155587   110A     -1.155583   111A     -1.152657
     112A     -1.144716   113A     -1.144713   114A     -1.128542
     115A     -1.114674   116A     -1.113154   117A     -1.112422
     118A     -1.112416   119A     -1.111615   120A     -1.088402
     121A     -1.088380   122A     -1.076954   123A     -1.076952
     124A     -1.067579   125A     -1.067549   126A     -1.064923
     127A     -1.046783   128A     -1.046773   129A     -1.040454
     130A     -1.038728   131A     -1.038727   132A     -1.025189
     133A     -1.021317   134A     -1.021272   135A     -1.007164
     136A     -1.006793   137A     -1.003773   138A     -1.000448
     139A     -1.000396   140A     -0.991069   141A     -0.970953
     142A     -0.970911   143A     -0.955867   144A     -0.955811
     145A     -0.905545   146A     -0.905532   147A     -0.905506
     148A     -0.905499   149A     -0.904272   150A     -0.892317
     151A     -0.892262   152A     -0.890318   153A     -0.890261
     154A     -0.889424   155A     -0.872205   156A     -0.869056
     157A     -0.851523   158A     -0.847829   159A     -0.847806
     160A     -0.845552   161A     -0.842988   162A     -0.834543
     163A     -0.834528   164A     -0.828103   165A     -0.828103
     166A     -0.784524   167A     -0.784517   168A     -0.783619
     169A     -0.783594   170A     -0.782257   171A     -0.782239
     172A     -0.781996   173A     -0.766975   174A     -0.760747
     175A     -0.750519   176A     -0.733472   177A     -0.727048
     178A     -0.727037   179A     -0.725052   180A     -0.724520
     181A     -0.724507   182A     -0.718429   183A     -0.713728
     184A     -0.713722   185A     -0.699548   186A     -0.699541
     187A     -0.686066   188A     -0.685945   189A     -0.685941
     190A     -0.682162   191A     -0.682146   192A     -0.678726
     193A     -0.653595   194A     -0.650842   195A     -0.650813
     196A     -0.649762   197A     -0.649752   198A     -0.649553
     199A     -0.640870   200A     -0.640852   201A     -0.640075
     202A     -0.639154   203A     -0.635976   204A     -0.635953
     205A     -0.629119   206A     -0.617714   207A     -0.615291
     208A     -0.615273   209A     -0.608782   210A     -0.608775
     211A     -0.599108   212A     -0.599066   213A     -0.598711
     214A     -0.598578   215A     -0.598549   216A     -0.597976
     217A     -0.595052   218A     -0.595041   219A     -0.594693
     220A     -0.594176   221A     -0.591919   222A     -0.591914
     223A     -0.587333   224A     -0.577790   225A     -0.577781
     226A     -0.575640   227A     -0.575633   228A     -0.573365
     229A     -0.569592   230A     -0.568085   231A     -0.568068
     232A     -0.566724   233A     -0.566707   234A     -0.560906
     235A     -0.558678   236A     -0.558659   237A     -0.558418
     238A     -0.554339   239A     -0.550534   240A     -0.547468
     241A     -0.544245   242A     -0.535034   243A     -0.534958
     244A     -0.533509   245A     -0.533485   246A     -0.528059
     247A     -0.528045   248A     -0.527737   249A     -0.517110
     250A     -0.517080   251A     -0.515336   252A     -0.515330
     253A     -0.509627   254A     -0.509609   255A     -0.498007
     256A     -0.496422   257A     -0.496395   258A     -0.493762
     259A     -0.493719   260A     -0.489429   261A     -0.481434
     262A     -0.477405   263A     -0.477400   264A     -0.473974
     265A     -0.469409   266A     -0.466494   267A     -0.466489
     268A     -0.458758   269A     -0.446628   270A     -0.446567
     271A     -0.441004   272A     -0.440758   273A     -0.440736
     274A     -0.434673   275A     -0.433895   276A     -0.407344
     277A     -0.407327   278A     -0.386362   279A     -0.386303
     280A     -0.385726   281A     -0.385720   282A     -0.383704
     283A     -0.354299   284A     -0.354296   285A     -0.350618
     286A     -0.338022   287A     -0.335540   288A     -0.335457
     289A     -0.332699   290A     -0.332695   291A     -0.307008
     292A     -0.301869   293A     -0.301812   294A     -0.300827
     295A     -0.286139   296A     -0.256479   297A     -0.253430
     298A     -0.253379   299A     -0.204225   300A     -0.204132

  @DF-RHF Final Energy: -3650.34072162708480

   => Energetics <=

    Nuclear Repulsion Energy =          15611.4211649754324753
    One-Electron Energy =              -36072.1633493881599861
    Two-Electron Energy =               16810.4014627856413426
    Total Energy =                      -3650.3407216270861682
 Dipole X            :          0.0002379            0.0001983            0.0004362
 Dipole Y            :          0.0011807           -0.0013163           -0.0001356
 Dipole Z            :        203.0451244         -203.0432823            0.0018422
 Magnitude           :                                                    0.0018980

    SAPT Results
  --------------------------------------------------------------------------------------------------------
    Electrostatics               -192.59917575 [mEh]    -120.85780743 [kcal/mol]    -505.66906627 [kJ/mol]
      Elst10,r                   -192.59917575 [mEh]    -120.85780743 [kcal/mol]    -505.66906627 [kJ/mol]

    Exchange                      461.08911978 [mEh]     289.33779092 [kcal/mol]    1210.58931720 [kJ/mol]
      Exch10                      461.08911978 [mEh]     289.33779092 [kcal/mol]    1210.58931720 [kJ/mol]
      Exch10(S^2)                 432.76101827 [mEh]     271.56163885 [kcal/mol]    1136.21389693 [kJ/mol]

    Induction                     -77.30007062 [mEh]     -48.50652664 [kcal/mol]    -202.95130746 [kJ/mol]
      Ind20,r                    -310.13319681 [mEh]    -194.61151913 [kcal/mol]    -814.25459603 [kJ/mol]
      Exch-Ind20,r                235.82885960 [mEh]     147.98484359 [kcal/mol]     619.16858557 [kJ/mol]
      delta HF,r (2)               -2.99573342 [mEh]      -1.87985110 [kcal/mol]      -7.86529700 [kJ/mol]

    Dispersion                    -55.98250614 [mEh]     -35.12955297 [kcal/mol]    -146.98204961 [kJ/mol]
      Disp20                      -85.84399256 [mEh]     -53.86791860 [kcal/mol]    -225.38337140 [kJ/mol]
      Exch-Disp20                  29.86148642 [mEh]      18.73836563 [kcal/mol]      78.40132180 [kJ/mol]
      Disp20 (SS)                 -42.92199628 [mEh]     -26.93395930 [kcal/mol]    -112.69168570 [kJ/mol]
      Disp20 (OS)                 -42.92199628 [mEh]     -26.93395930 [kcal/mol]    -112.69168570 [kJ/mol]
      Exch-Disp20 (SS)             14.73001728 [mEh]       9.24322539 [kcal/mol]      38.67365504 [kJ/mol]
      Exch-Disp20 (OS)             15.13146914 [mEh]       9.49514024 [kcal/mol]      39.72766675 [kJ/mol]

  Total HF                        191.18987341 [mEh]     119.97345685 [kcal/mol]     501.96894348 [kJ/mol]
  Total SAPT0                     135.20736727 [mEh]      84.84390389 [kcal/mol]     354.98689387 [kJ/mol]

  Special recipe for scaled SAPT0 (see Manual):
    Electrostatics sSAPT0        -192.59917575 [mEh]    -120.85780743 [kcal/mol]    -505.66906627 [kJ/mol]
    Exchange sSAPT0               461.08911978 [mEh]     289.33779092 [kcal/mol]    1210.58931720 [kJ/mol]
    Induction sSAPT0              -27.89106854 [mEh]     -17.50190974 [kcal/mol]     -73.22799037 [kJ/mol]
    Dispersion sSAPT0             -49.72616309 [mEh]     -31.20363844 [kcal/mol]    -130.55602322 [kJ/mol]
  Total sSAPT0                    190.87271239 [mEh]     119.77443531 [kcal/mol]     501.13623735 [kJ/mol]
  --------------------------------------------------------------------------------------------------------

*** Psi4 exiting successfully. Buy a developer a beer!
