                               Psi4 1.9 release

  ==> Input File <==

--------------------------------------------------------------------------
memory 80 GB # how much memory is available ! Depends on the nodes/cores !

molecule dimer {
# monomer A
-1 1    # Charge and multiplicity
B -0.000046  0.000337 2.899994
F -1.153597  0.000048 3.715641
F  1.153661 -0.000581 3.715641
F -0.000019 -1.153637 2.084360
F -0.000019  1.153978 2.084360
--
# monomer B
0 1     # Charge and multiplicity
C   -3.66844126402057      7.80375217008252      0.00190004133558
C   -4.84759871934653      7.13124183134024     -0.00046653359696
C   -4.89495929917518      5.69633040353158     -0.00103944469517
C   -3.65374067877320      4.98073034095895      0.00662099703436
C   -2.40942512149445      7.11398103667468      0.00209438359570
C   -2.42547734410473      5.68112195090346     -0.00491050527438
C   -1.19474401643570      7.78614419430947      0.00356656413763
C   0.03795902893699      7.09942164575698      0.00139585983271
C   0.03033258741920      5.66948955970466     -0.00408752508301
C   -1.20098450790502      4.96927034791531      0.00488220885047
C   1.27795782581485      7.77285944319479      0.00277170839332
C   2.48535808472416      7.08769688523756      0.00049722048857
C   2.48612868491717      5.65477081024076     -0.00644052849921
C   1.25408291964399      4.95607811366431      0.00518741308898
C   3.75171459140595      7.76391215098033      0.00062407186893
C   4.92356605618520      7.07878077698995     -0.00143240883900
C   4.95560727132542      5.64344746336949     -0.00159282164606
C   3.70680153420475      4.94121020833308      0.00349873852374
H   -3.65852113775815      8.89082741913536      0.00358502958574
H   -1.18921332975660      8.87412108735996      0.00753844057883
H   1.28429423888630      8.86083343548850      0.00693053253426
H   3.75354208679975      8.85103527897216      0.00214659618464
H   5.86995870320703      7.61379483465560     -0.00235777588134
H   -5.78823170750226      7.67630221293400     -0.00202638095293
C   -6.09197395869619      4.99326001364347     -0.00291168518608
C   -6.12866148031747      3.58258016879823     -0.00171050815740
C   -3.66457974004527      3.56418217974434     -0.00463560277484
C   -4.89429820469869      2.86108077590057      0.00453338221034
C   -2.43733499489796      2.84761165708481      0.00719617576166
C   -1.20922785759670      3.54788693497833     -0.00648285103018
C   1.24714157216223      3.53468075142962     -0.00729145743546
C   0.01517603956900      2.83311183930540      0.00439272578912
C   2.46764517244071      2.82128997725533      0.00449278391269
C   3.70254947457969      3.52466015442405     -0.00899517692985
C   6.14498038638375      4.92757236613191     -0.00282626685777
C   6.16658835886151      3.51658447594213     -0.00065971342101
C   4.92460995845939      2.80840792535402      0.00587903281610
H   7.08990550964105      5.46688776622306     -0.00658814770723
H   -7.03104175110130      5.54268795285765     -0.00714490013730
C   -7.33969804112295      2.85841153457957     -0.00333767559888
C   -7.36488195805880      1.47032337158330     -0.00157213747140
C   -4.90350460894690      1.44442681216000     -0.00628840166334
C   -6.13225715261081      0.73993935705394      0.00600164231964
C   -3.67687480051673      0.72669714267312      0.00433931473643
C   -2.44565658606518      1.42964113326212     -0.00597039546461
C   -1.22360068130162      0.71532450163492      0.00545886906656
C   0.00763786931376      1.41738314923765      0.00392452278437
C   1.23121980774686      0.70211669058719     -0.01490206287210
C   2.46082110053113      1.40329203612573      0.00460244601878
C   3.68443025419614      0.68719842821222      0.00377365974158
C   4.91870890153864      1.39173456118907     -0.00862816189375
C   7.36980207796101      2.77948220318441     -0.00242013321349
C   7.38016266612146      1.39121750785509     -0.00087345036788
C   6.13979953912259      0.67411862320065      0.00545489144369
H   -8.27919079934664      3.40711804112415     -0.00763522772059
H   8.31511347147953      3.31811809662368     -0.00663070901292
C   -8.59175593758115      0.72483255304480     -0.00123170985383
C   -8.59902460370342     -0.63263980622873      0.00089141472904
C   -6.13981313911873     -0.67413663715361     -0.00609792660607
C   -7.38018411213749     -1.39126618958160      0.00131813493501
C   -4.91868448025621     -1.39175501803000      0.00624257154343
C   -3.68443829568458     -0.68723731573599     -0.00478966852105
C   -2.46081704024768     -1.40334517882457      0.00575341766833
C   -1.23116201232071     -0.70217386488055     -0.00636696112346
C   -0.00756962538737     -1.41741884941102      0.00108956317991
C   1.22364771588843     -0.71527537726392      0.01109518512883
C   2.44567064933149     -1.42964328900682     -0.00065482763106
C   3.67686670284649     -0.72670743155550     -0.00479541202602
C   6.13224884641929     -0.73997883984993     -0.00632338623858
C   4.90351914550401     -1.44445752054090      0.00751768830159
C   8.59901484869081      0.63260386666793     -0.00101133422380
C   8.59174548810050     -0.72485086719319      0.00072504603735
C   7.36486276438985     -1.47033266560598      0.00049486934466
H   -9.52830597181814      1.27684744919284     -0.00270163681798
H   9.54141097460619      1.17457248844457     -0.00206336648518
C   -7.36983790976868     -2.77954514593389      0.00312634335708
C   -4.92459910905015     -2.80843725734101     -0.00460528907921
C   -6.16662249566744     -3.51665219282533      0.00169655107992
C   -3.70251035970491     -3.52468154912026      0.00571878010666
C   -2.46764698511392     -2.82132596280400     -0.00632585824990
C   -0.01513347410770     -2.83314164539971     -0.00604426974092
C   -1.24712184122656     -3.53473217556300      0.00551968366725
C   1.20924506964357     -3.54791467864352      0.00805871345849
C   2.43733602215464     -2.84764173817541     -0.00608104485234
C   4.89430234377080     -2.86112296828604     -0.00526030478103
C   3.66461525504104     -3.56421984553201      0.00761911515957
C   6.12863901474565     -3.58258405771778      0.00096495711699
C   7.33967266469532     -2.85841330737039      0.00248018319869
H   -9.54144911125902     -1.17456346666430      0.00226083090216
H   9.52826186807155     -1.27691907390448      0.00197485379837
H   -8.31516504384864     -3.31814985321231      0.00729857188773
H   8.27915514249207     -3.40714078989363      0.00681973918158
C   -6.14499418870218     -4.92764727278338      0.00302254913999
C   -3.70678334799751     -4.94126171411716     -0.00679841894792
C   -4.95559005800169     -5.64349397349412      0.00116871569699
C   -2.48612132622665     -5.65478557440947      0.00614125209662
C   -1.25405833548005     -4.95612205000132     -0.00503435388927
C   1.20101257386816     -4.96928038819302     -0.00385322963129
C   -0.03033667441341     -5.66952030313900      0.00398997003238
C   3.65375010132847     -4.98074377541453     -0.00309522988330
C   2.42549269587528     -5.68117463552727      0.00628170066869
C   6.09196561781097     -4.99325796338655      0.00325918379042
C   4.89497644461045     -5.69634842095790      0.00202298796027
H   -7.08989238804069     -5.46699984223871      0.00742531082125
H   7.03105520920009     -5.54265853633254      0.00683896355417
C   -4.92354532219813     -7.07882109967734      0.00061394679214
C   -2.48534208823777     -7.08772807792913     -0.00189594564379
C   -3.75168589177895     -7.76394715763627     -0.00170126671874
C   -0.03794895698805     -7.09946487446944     -0.00168022049625
C   -1.27795610040136     -7.77290438466689     -0.00366491325785
C   2.40944432072629     -7.11402201200282     -0.00081701968533
C   1.19474993715296     -7.78618536556242     -0.00296931056689
C   4.84762105249800     -7.13126211057943      0.00168979497423
C   3.66847160587561     -7.80378799294376     -0.00065863938960
H   -5.86994035041618     -7.61383059804164      0.00215798365757
H   5.78824962538815     -7.67633218931421      0.00281691445618
H   -3.75352693944918     -8.85107156923607     -0.00353718114765
H   -1.28430440589466     -8.86087539249706     -0.00809229711623
H   1.18922157469537     -8.87416062058945     -0.00706194725726
H   3.65854661482387     -8.89086063405326     -0.00231318081200

    units angstrom      # Angstroms are the default
    no_reorient         # Geometry fixed, default
    symmetry c1         # C1 symmetry, default
}

set {
    scf_type DF         # Density fitting, faster than exact integrals
    freeze_core True    # Freeze core electrons
    basis jun-cc-pVDZ   # Jun-cc-pVDZ basis set, recommended for sSAPT0 in https://doi.org/10.1063/1.4867135
}

energy('ssapt0')        # Compute sSAPT0 energy, includes also SAPT0
--------------------------------------------------------------------------

  //              Dimer HF             //
    Molecular point group: c1
  Charge       = -1
  Multiplicity = 1
  Basis Set: JUN-CC-PVDZ
    Blend: JUN-CC-PVDZ
  Basis Set: (JUN-CC-PVDZ AUX)
    Blend: JUN-CC-PVDZ-JKFIT
  @DF-RHF Final Energy: -4073.04430898565806
    Total Energy =                      -4073.0443089856598817
 Dipole X            :          0.0017176           -0.0001188            0.0015988
 Dipole Y            :          0.0011201           -0.0002727            0.0008474
 Dipole Z            :         14.0415096          -17.2586985           -3.2171889
 Magnitude           :                                                    3.2171894
  //            Monomer A HF           //
    Molecular point group: c1
  Multiplicity = 1
  Basis Set: JUN-CC-PVDZ
    Blend: JUN-CC-PVDZ
  Basis Set: (JUN-CC-PVDZ AUX)
    Blend: JUN-CC-PVDZ-JKFIT
  @DF-RHF Final Energy:  -422.77587564137428
    Total Energy =                       -422.7758756413742844
  //            Monomer B HF           //
    Molecular point group: c1

    Geometry (in Angstrom), charge = 0, multiplicity = 1:

       Center              X                  Y                   Z               Mass
    ------------   -----------------  -----------------  -----------------  -----------------
      Gh(B)          -0.000050191042     0.000351518223     2.700251889458    11.009305360000
      Gh(F)          -1.153601191042     0.000062518223     3.515898889458    18.998403162730
      Gh(F)           1.153656808958    -0.000566481777     3.515898889458    18.998403162730
      Gh(F)          -0.000023191042    -1.153622481777     1.884617889458    18.998403162730
      Gh(F)          -0.000023191042     1.153992518223     1.884617889458    18.998403162730
         C           -3.668445455062     7.803766688305    -0.197842069206    12.000000000000
         C           -4.847602910388     7.131256349563    -0.200208644139    12.000000000000
         C           -4.894963490217     5.696344921754    -0.200781555237    12.000000000000
         C           -3.653744869815     4.980744859182    -0.193121113507    12.000000000000
         C           -2.409429312536     7.113995554897    -0.197647726946    12.000000000000
         C           -2.425481535146     5.681136469126    -0.204652615816    12.000000000000
         C           -1.194748207477     7.786158712532    -0.196175546404    12.000000000000
         C            0.037954837895     7.099436163980    -0.198346250709    12.000000000000
         C            0.030328396378     5.669504077927    -0.203829635625    12.000000000000
         C           -1.200988698947     4.969284866138    -0.194859901691    12.000000000000
         C            1.277953634773     7.772873961417    -0.196970402148    12.000000000000
         C            2.485353893683     7.087711403460    -0.199244890053    12.000000000000
         C            2.486124493876     5.654785328463    -0.206182639041    12.000000000000
         C            1.254078728602     4.956092631887    -0.194554697453    12.000000000000
         C            3.751710400364     7.763926669203    -0.199118038673    12.000000000000
         C            4.923561865144     7.078795295213    -0.201174519381    12.000000000000
         C            4.955603080284     5.643461981592    -0.201334932188    12.000000000000
         C            3.706797343163     4.941224726556    -0.196243372018    12.000000000000
         H           -3.658525328800     8.890841937358    -0.196157080956     1.007825032230
         H           -1.189217520798     8.874135605583    -0.192203669963     1.007825032230
         H            1.284290047845     8.860847953711    -0.192811578007     1.007825032230
         H            3.753537895758     8.851049797195    -0.197595514357     1.007825032230
         H            5.869954512165     7.613809352878    -0.202099886423     1.007825032230
         H           -5.788235898544     7.676316731157    -0.201768491495     1.007825032230
         C           -6.091978149738     4.993274531866    -0.202653795728    12.000000000000
         C           -6.128665671359     3.582594687021    -0.201452618699    12.000000000000
         C           -3.664583931087     3.564196697967    -0.204377713316    12.000000000000
         C           -4.894302395740     2.861095294123    -0.195208728331    12.000000000000
         C           -2.437339185940     2.847626175307    -0.192545934780    12.000000000000
         C           -1.209232048638     3.547901453201    -0.206224961572    12.000000000000
         C            1.247137381121     3.534695269652    -0.207033567977    12.000000000000
         C            0.015171848527     2.833126357528    -0.195349384752    12.000000000000
         C            2.467640981399     2.821304495478    -0.195249326629    12.000000000000
         C            3.702545283538     3.524674672647    -0.208737287471    12.000000000000
         C            6.144976195342     4.927586884354    -0.202568377399    12.000000000000
         C            6.166584167820     3.516598994165    -0.200401823963    12.000000000000
         C            4.924605767418     2.808422443577    -0.193863077725    12.000000000000
         H            7.089901318599     5.466902284446    -0.206330258249     1.007825032230
         H           -7.031045942143     5.542702471080    -0.206887010679     1.007825032230
         C           -7.339702232165     2.858426052802    -0.203079786140    12.000000000000
         C           -7.364886149100     1.470337889806    -0.201314248013    12.000000000000
         C           -4.903508799989     1.444441330383    -0.206030512205    12.000000000000
         C           -6.132261343652     0.739953875277    -0.193740468222    12.000000000000
         C           -3.676878991558     0.726711660896    -0.195402795805    12.000000000000
         C           -2.445660777107     1.429655651485    -0.205712506006    12.000000000000
         C           -1.223604872343     0.715339019858    -0.194283241475    12.000000000000
         C            0.007633678272     1.417397667460    -0.195817587757    12.000000000000
         C            1.231215616705     0.702131208810    -0.214644173414    12.000000000000
         C            2.460816909489     1.403306554348    -0.195139664523    12.000000000000
         C            3.684426063155     0.687212946435    -0.195968450800    12.000000000000
         C            4.918704710497     1.391749079412    -0.208370272435    12.000000000000
         C            7.369797886919     2.779496721407    -0.202162243755    12.000000000000
         C            7.380158475080     1.391232026078    -0.200615560909    12.000000000000
         C            6.139795348081     0.674133141423    -0.194287219098    12.000000000000
         H           -8.279194990388     3.407132559347    -0.207377338262     1.007825032230
         H            8.315109280438     3.318132614846    -0.206372819555     1.007825032230
         C           -8.591760128623     0.724847071267    -0.200973820395    12.000000000000
         C           -8.599028794745    -0.632625288006    -0.198850695813    12.000000000000
         C           -6.139817330160    -0.674122118931    -0.205840037148    12.000000000000
         C           -7.380188303179    -1.391251671359    -0.198423975607    12.000000000000
         C           -4.918688671298    -1.391740499807    -0.193499538998    12.000000000000
         C           -3.684442486726    -0.687222797513    -0.204531779063    12.000000000000
         C           -2.460821231289    -1.403330660602    -0.193988692873    12.000000000000
         C           -1.231166203362    -0.702159346658    -0.206109071665    12.000000000000
         C           -0.007573816429    -1.417404331188    -0.198652547362    12.000000000000
         C            1.223643524847    -0.715260859041    -0.188646925413    12.000000000000
         C            2.445666458290    -1.429628770784    -0.200396938173    12.000000000000
         C            3.676862511805    -0.726692913333    -0.204537522568    12.000000000000
         C            6.132244655378    -0.739964321627    -0.206065496780    12.000000000000
         C            4.903514954462    -1.444443002318    -0.192224422240    12.000000000000
         C            8.599010657649     0.632618384891    -0.200753444765    12.000000000000
         C            8.591741297059    -0.724836348971    -0.199017064504    12.000000000000
         C            7.364858573348    -1.470318147383    -0.199247241197    12.000000000000
         H           -9.528310162860     1.276861967415    -0.202443747360     1.007825032230
         H            9.541406783565     1.174587006667    -0.201805477027     1.007825032230
         C           -7.369842100810    -2.779530627711    -0.196615767185    12.000000000000
         C           -4.924603300092    -2.808422739118    -0.204347399621    12.000000000000
         C           -6.166626686709    -3.516637674603    -0.198045559462    12.000000000000
         C           -3.702514550747    -3.524667030898    -0.194023330435    12.000000000000
         C           -2.467651176156    -2.821311444581    -0.206067968791    12.000000000000
         C           -0.015137665149    -2.833127127177    -0.205786380283    12.000000000000
         C           -1.247126032268    -3.534717657340    -0.194222426874    12.000000000000
         C            1.209240878602    -3.547900160421    -0.191683397083    12.000000000000
         C            2.437331831113    -2.847627219953    -0.205823155394    12.000000000000
         C            4.894298152729    -2.861108450063    -0.205002415323    12.000000000000
         C            3.664611063999    -3.564205327309    -0.192122995382    12.000000000000
         C            6.128634823704    -3.582569539495    -0.198777153425    12.000000000000
         C            7.339668473654    -2.858398789148    -0.197261927343    12.000000000000
         H           -9.541453302301    -1.174548948442    -0.197481279639     1.007825032230
         H            9.528257677030    -1.276904555682    -0.197767256743     1.007825032230
         H           -8.315169234890    -3.318135334990    -0.192443538654     1.007825032230
         H            8.279150951450    -3.407126271671    -0.192922371360     1.007825032230
         C           -6.144998379744    -4.927632754561    -0.196719561402    12.000000000000
         C           -3.706787539039    -4.941247195895    -0.206540529490    12.000000000000
         C           -4.955594249043    -5.643479455272    -0.198573394845    12.000000000000
         C           -2.486125517268    -5.654771056187    -0.193600858445    12.000000000000
         C           -1.254062526522    -4.956107531779    -0.204776464431    12.000000000000
         C            1.201008382827    -4.969265869970    -0.203595340173    12.000000000000
         C           -0.030340865455    -5.669505784916    -0.195752140509    12.000000000000
         C            3.653745910287    -4.980729257192    -0.202837340425    12.000000000000
         C            2.425488504834    -5.681160117305    -0.193460409873    12.000000000000
         C            6.091961426769    -4.993243445164    -0.196482926751    12.000000000000
         C            4.894972253569    -5.696333902735    -0.197719122581    12.000000000000
         H           -7.089896579082    -5.466985324016    -0.192316799720     1.007825032230
         H            7.031051018158    -5.542644018110    -0.192903146987     1.007825032230
         C           -4.923549513240    -7.078806581455    -0.199128163749    12.000000000000
         C           -2.485346279279    -7.087713559707    -0.201638056185    12.000000000000
         C           -3.751690082821    -7.763932639414    -0.201443377260    12.000000000000
         C           -0.037953148030    -7.099450356247    -0.201422331038    12.000000000000
         C           -1.277960291443    -7.772889866444    -0.203407023799    12.000000000000
         C            2.409440129685    -7.114007493780    -0.200559130227    12.000000000000
         C            1.194745746111    -7.786170847340    -0.202711421108    12.000000000000
         C            4.847616861456    -7.131247592357    -0.198052315567    12.000000000000
         C            3.668467414834    -7.803773474721    -0.200400749931    12.000000000000
         H           -5.869944541458    -7.613816079819    -0.197584126884     1.007825032230
         H            5.788245434347    -7.676317671092    -0.196925196085     1.007825032230
         H           -3.753531130491    -8.851057051013    -0.203279291689     1.007825032230
         H           -1.284308596936    -8.860860874274    -0.207834407658     1.007825032230
         H            1.189217383654    -8.874146102367    -0.206804057799     1.007825032230
         H            3.658542423782    -8.890846115831    -0.202055291354     1.007825032230

  Charge       = 0
  Multiplicity = 1
  Basis Set: JUN-CC-PVDZ
    Blend: JUN-CC-PVDZ
  Basis Set: (JUN-CC-PVDZ AUX)
    Blend: JUN-CC-PVDZ-JKFIT

    Orbital Energies [Eh]
    ---------------------

    Doubly Occupied:

       1A    -11.264130     2A    -11.263824     3A    -11.263671
       4A    -11.263317     5A    -11.263258     6A    -11.263247
       7A    -11.263140     8A    -11.263095     9A    -11.263075
      10A    -11.262849    11A    -11.262757    12A    -11.262715
      13A    -11.262269    14A    -11.262250    15A    -11.262222
      16A    -11.262201    17A    -11.262105    18A    -11.262096
      19A    -11.262055    20A    -11.262023    21A    -11.262005
      22A    -11.261938    23A    -11.261889    24A    -11.261753
      25A    -11.261752    26A    -11.261733    27A    -11.261712
      28A    -11.261687    29A    -11.261666    30A    -11.261573
      31A    -11.261567    32A    -11.261554    33A    -11.261547
      34A    -11.261520    35A    -11.261515    36A    -11.261496
      37A    -11.261334    38A    -11.261328    39A    -11.261320
      40A    -11.261316    41A    -11.261310    42A    -11.261307
      43A    -11.261285    44A    -11.261266    45A    -11.261264
      46A    -11.261239    47A    -11.261237    48A    -11.261231
      49A    -11.261036    50A    -11.261004    51A    -11.260996
      52A    -11.260926    53A    -11.260914    54A    -11.260864
      55A    -11.259915    56A    -11.259902    57A    -11.259899
      58A    -11.259870    59A    -11.259867    60A    -11.259852
      61A    -11.259284    62A    -11.259258    63A    -11.259255
      64A    -11.259202    65A    -11.259200    66A    -11.259170
      67A    -11.258918    68A    -11.258900    69A    -11.258897
      70A    -11.258869    71A    -11.258866    72A    -11.258855
      73A    -11.254536    74A    -11.254534    75A    -11.254527
      76A    -11.254527    77A    -11.254526    78A    -11.254525
      79A    -11.253658    80A    -11.253657    81A    -11.253654
      82A    -11.253652    83A    -11.253649    84A    -11.253649
      85A    -11.253574    86A    -11.253573    87A    -11.253570
      88A    -11.253568    89A    -11.253565    90A    -11.253564
      91A    -11.253063    92A    -11.253062    93A    -11.253055
      94A    -11.253055    95A    -11.253054    96A    -11.253054
      97A     -1.253893    98A     -1.238981    99A     -1.238972
     100A     -1.220458   101A     -1.220451   102A     -1.215394
     103A     -1.201042   104A     -1.195602   105A     -1.188104
     106A     -1.188096   107A     -1.173767   108A     -1.173761
     109A     -1.155604   110A     -1.155601   111A     -1.152676
     112A     -1.144725   113A     -1.144722   114A     -1.128556
     115A     -1.114691   116A     -1.113163   117A     -1.112441
     118A     -1.112432   119A     -1.111623   120A     -1.088416
     121A     -1.088394   122A     -1.076963   123A     -1.076961
     124A     -1.067594   125A     -1.067564   126A     -1.064940
     127A     -1.046794   128A     -1.046786   129A     -1.040469
     130A     -1.038736   131A     -1.038735   132A     -1.025207
     133A     -1.021340   134A     -1.021292   135A     -1.007175
     136A     -1.006805   137A     -1.003785   138A     -1.000464
     139A     -1.000412   140A     -0.991077   141A     -0.970970
     142A     -0.970924   143A     -0.955878   144A     -0.955820
     145A     -0.905553   146A     -0.905552   147A     -0.905516
     148A     -0.905514   149A     -0.904291   150A     -0.892337
     151A     -0.892281   152A     -0.890335   153A     -0.890276
     154A     -0.889439   155A     -0.872215   156A     -0.869062
     157A     -0.851534   158A     -0.847845   159A     -0.847824
     160A     -0.845568   161A     -0.843004   162A     -0.834554
     163A     -0.834540   164A     -0.828113   165A     -0.828111
     166A     -0.784537   167A     -0.784528   168A     -0.783634
     169A     -0.783610   170A     -0.782271   171A     -0.782253
     172A     -0.782011   173A     -0.766986   174A     -0.760765
     175A     -0.750537   176A     -0.733482   177A     -0.727062
     178A     -0.727049   179A     -0.725067   180A     -0.724533
     181A     -0.724518   182A     -0.718447   183A     -0.713745
     184A     -0.713738   185A     -0.699562   186A     -0.699554
     187A     -0.686085   188A     -0.685955   189A     -0.685952
     190A     -0.682172   191A     -0.682157   192A     -0.678741
     193A     -0.653608   194A     -0.650855   195A     -0.650826
     196A     -0.649779   197A     -0.649768   198A     -0.649563
     199A     -0.640890   200A     -0.640870   201A     -0.640085
     202A     -0.639163   203A     -0.635993   204A     -0.635967
     205A     -0.629132   206A     -0.617706   207A     -0.615301
     208A     -0.615282   209A     -0.608794   210A     -0.608787
     211A     -0.599115   212A     -0.599069   213A     -0.598725
     214A     -0.598591   215A     -0.598566   216A     -0.597994
     217A     -0.595063   218A     -0.595051   219A     -0.594706
     220A     -0.594195   221A     -0.591934   222A     -0.591929
     223A     -0.587353   224A     -0.577797   225A     -0.577787
     226A     -0.575647   227A     -0.575640   228A     -0.573376
     229A     -0.569583   230A     -0.568103   231A     -0.568085
     232A     -0.566737   233A     -0.566722   234A     -0.560913
     235A     -0.558694   236A     -0.558673   237A     -0.558426
     238A     -0.554352   239A     -0.550541   240A     -0.547476
     241A     -0.544251   242A     -0.535033   243A     -0.534958
     244A     -0.533519   245A     -0.533497   246A     -0.528069
     247A     -0.528055   248A     -0.527756   249A     -0.517125
     250A     -0.517093   251A     -0.515342   252A     -0.515337
     253A     -0.509637   254A     -0.509620   255A     -0.498018
     256A     -0.496435   257A     -0.496406   258A     -0.493766
     259A     -0.493730   260A     -0.489428   261A     -0.481444
     262A     -0.477412   263A     -0.477406   264A     -0.473985
     265A     -0.469423   266A     -0.466507   267A     -0.466502
     268A     -0.458769   269A     -0.446644   270A     -0.446584
     271A     -0.441005   272A     -0.440758   273A     -0.440737
     274A     -0.434680   275A     -0.433901   276A     -0.407353
     277A     -0.407331   278A     -0.386374   279A     -0.386309
     280A     -0.385731   281A     -0.385724   282A     -0.383712
     283A     -0.354304   284A     -0.354302   285A     -0.350632
     286A     -0.338022   287A     -0.335543   288A     -0.335470
     289A     -0.332705   290A     -0.332703   291A     -0.307021
     292A     -0.301879   293A     -0.301820   294A     -0.300835
     295A     -0.286146   296A     -0.256485   297A     -0.253439
     298A     -0.253394   299A     -0.204236   300A     -0.204141

  @DF-RHF Final Energy: -3650.34031070603305

   => Energetics <=

    Nuclear Repulsion Energy =          15611.4211649754324753
    One-Electron Energy =              -36072.1556870308413636
    Two-Electron Energy =               16810.3942113493758370
    Total Energy =                      -3650.3403107060330512
 Dipole X            :          0.0002691            0.0001983            0.0004675
 Dipole Y            :          0.0013468           -0.0013163            0.0000305
 Dipole Z            :        226.4718727         -226.4713389            0.0005338
 Magnitude           :                                                    0.0007102

    SAPT Results
  --------------------------------------------------------------------------------------------------------
    Electrostatics                -66.93693314 [mEh]     -42.00355969 [kcal/mol]    -175.74289375 [kJ/mol]
      Elst10,r                    -66.93693314 [mEh]     -42.00355969 [kcal/mol]    -175.74289375 [kJ/mol]

    Exchange                      182.12537963 [mEh]     114.28540113 [kcal/mol]     478.17011833 [kJ/mol]
      Exch10                      182.12537963 [mEh]     114.28540113 [kcal/mol]     478.17011833 [kJ/mol]
      Exch10(S^2)                 177.15189989 [mEh]     111.16449548 [kcal/mol]     465.11224908 [kJ/mol]

    Induction                     -43.31108474 [mEh]     -27.17811599 [kcal/mol]    -113.71323731 [kJ/mol]
      Ind20,r                    -119.78885027 [mEh]     -75.16863840 [kcal/mol]    -314.50558305 [kJ/mol]
      Exch-Ind20,r                 86.63918360 [mEh]      54.36690851 [kcal/mol]     227.47114520 [kJ/mol]
      delta HF,r (2)              -10.16141806 [mEh]      -6.37638610 [kcal/mol]     -26.67879945 [kJ/mol]

    Dispersion                    -34.07123471 [mEh]     -21.38002256 [kcal/mol]     -89.45401440 [kJ/mol]
      Disp20                      -48.44866685 [mEh]     -30.40199744 [kcal/mol]    -127.20195730 [kJ/mol]
      Exch-Disp20                  14.37743215 [mEh]       9.02197488 [kcal/mol]      37.74794290 [kJ/mol]
      Disp20 (SS)                 -24.22433343 [mEh]     -15.20099872 [kcal/mol]     -63.60097865 [kJ/mol]
      Disp20 (OS)                 -24.22433343 [mEh]     -15.20099872 [kcal/mol]     -63.60097865 [kJ/mol]
      Exch-Disp20 (SS)              7.50669984 [mEh]       4.71052526 [kcal/mol]      19.70883771 [kJ/mol]
      Exch-Disp20 (OS)              6.87073231 [mEh]       4.31144962 [kcal/mol]      18.03910520 [kJ/mol]

  Total HF                         71.87736175 [mEh]      45.10372545 [kcal/mol]     188.71398727 [kJ/mol]
  Total SAPT0                      37.80612704 [mEh]      23.72370289 [kcal/mol]      99.25997287 [kJ/mol]

  Special recipe for scaled SAPT0 (see Manual):
    Electrostatics sSAPT0         -66.93693314 [mEh]     -42.00355969 [kcal/mol]    -175.74289375 [kJ/mol]
    Exchange sSAPT0               182.12537963 [mEh]     114.28540113 [kcal/mol]     478.17011833 [kJ/mol]
    Induction sSAPT0              -35.80720661 [mEh]     -22.46936138 [kcal/mol]     -94.01180801 [kJ/mol]
    Dispersion sSAPT0             -32.82599561 [mEh]     -20.59862323 [kcal/mol]     -86.18463960 [kJ/mol]
  Total sSAPT0                     46.55524426 [mEh]      29.21385683 [kcal/mol]     122.23077697 [kJ/mol]
  --------------------------------------------------------------------------------------------------------

*** Psi4 exiting successfully. Buy a developer a beer!
