                               Psi4 1.9 release

  ==> Input File <==

--------------------------------------------------------------------------
memory 32 GB # how much memory is available ! Depends on the nodes/cores !

molecule dimer {
# monomer A
-1 1    # Charge and multiplicity
B -1.977592e-04  2.742729e-04 3.100034
F  1.123153e-16  1.430594e-17 4.512819
F  1.147860e+00  6.757812e-01 2.628893
F  1.191806e-02 -1.332011e+00 2.629095
F -1.159666e+00  6.560735e-01 2.629174
--
# monomer B
0 1     # Charge and multiplicity
C   1.22531237526482      0.70753866091955      0.00613762728373
C   1.22532433589282     -0.70753852257020     -0.00619318228664
C   -0.00000567409046      1.41496628609039     -0.00672680580738
C   2.45644923379077      1.41832825917820      0.00902448468363
C   0.00001130712078     -1.41497612663474      0.00347275151708
C   -1.22530046906674      0.70754574598412      0.00838914760619
C   2.45643823516184     -1.41832293188077     -0.00843833914343
C   -0.00000085313587      2.83680140328112     -0.00913035594137
C   3.68182717731192      0.70931832800114     -0.00808954934571
C   2.45512052870677      2.83422403348893     -0.00819210630633
C   3.68182158506039     -0.70933346742900      0.00798293467272
C   -1.22531311884624     -0.70752714354401     -0.00512042085974
C   1.22670006104402      3.54346985599427      0.00816696660346
C   0.00000526469929     -2.83678176723568      0.00832091913869
C   -2.45643555300670      1.41831729028492      0.00842454345199
C   2.45512389762097     -2.83422965658853      0.00783102630520
C   -1.22671388474763      3.54346943575023      0.00827029982280
C   4.91451777504333      1.42717324448953     -0.00160886631602
C   3.69315067131765      3.54279566454522     -0.00155906667985
C   -2.45643712022637     -1.41831290883911     -0.00846337726810
C   1.22670532178455     -3.54347386990643     -0.00780316414624
C   -2.45512491866593      2.83421703463423     -0.00818572995999
C   4.91452486062398     -1.42718653794377      0.00136387641845
C   1.22142509354026      4.97013443726031      0.00150231067809
C   4.89300870916237      2.82518837202648     -0.00039219795739
C   -1.22669652864725     -3.54347062507680     -0.00753595973677
C   -3.68181849668397      0.70932533873199     -0.00807686886569
C   3.69314758099218     -3.54280096939050      0.00148176697923
C   -1.22143177215231      4.97012866986289      0.00168580605083
C   6.13477145276790      0.68054831910577     -0.00083909176631
C   3.65678936045204      4.97295361556775     -0.00065042889723
C   -2.45512642789169     -2.83421472106065      0.00758666850712
C   -3.68181869921921     -0.70932533146830      0.00810055625144
C   4.89301309775526     -2.82519973363176      0.00021895393805
C   -0.00000059327114      5.65044773803267      0.00045449734393
C   6.13477559217374     -0.68055448207492      0.00042622874941
C   2.47813196269732      5.65357712333155      0.00063835075260
C   1.22142288457925     -4.97012668293268     -0.00129718634452
C   -3.69316190412301      3.54279732619245     -0.00139355922051
C   -1.22142804110313     -4.97011793159564     -0.00140994817719
C   -4.91452132810043      1.42717581899491     -0.00153192130862
C   3.65678749952045     -4.97295485423912      0.00080007163680
C   -2.47813805026426      5.65357479452875      0.00092287576113
C   -3.69314125872231     -3.54278984697859      0.00136564082345
C   -4.91451200321153     -1.42718062802730      0.00139857359209
C   -0.00000552908399     -5.65043791501335      0.00005899322272
C   -4.89302000425900      2.82518897091939     -0.00040227981744
C   2.47812647313991     -5.65357317188818     -0.00029052915548
C   -3.65679823041642      4.97295655404175     -0.00047374852278
C   -4.89299899901461     -2.82519139505969      0.00006491824035
C   -2.47812801824129     -5.65356579800621     -0.00056571680280
C   -6.13477002348955      0.68054913825639     -0.00086464346868
C   -3.65678835334731     -4.97294365097028      0.00058578382008
C   -6.13476456307132     -0.68055354348201      0.00040575295444
H   5.83528897565761      3.36927626695423      0.00396712770529
H   7.07385965258860      1.22821762089947     -0.00037744837300
H   4.60066374401555      5.51238117445323     -0.00014522814529
H   5.83528386714679     -3.36930568472863     -0.00423551337640
H   -0.00001167146422      6.73853104613662     -0.00389474766392
H   7.07386165167227     -1.22822657074368     -0.00008250934481
H   2.47331421164041      6.74068466339473      0.00017162982210
H   4.60066897122302     -5.51237575717576      0.00039007446835
H   -2.47331820069565      6.74068209160650      0.00047297644710
H   -0.00000978838621     -6.73852780445195      0.00458867820736
H   -5.83530143450167      3.36927132229595      0.00410314985360
H   2.47330840367253     -6.74068500242887      0.00027980126949
H   -4.60067436136587      5.51237839860371      0.00002010017831
H   -5.83527902699321     -3.36928859177951     -0.00451481925734
H   -2.47329986759855     -6.74067870613986     -0.00016951527498
H   -7.07385728692578      1.22822084484047     -0.00046143985387
H   -4.60067330624313     -5.51236229778631      0.00021776644566
H   -7.07385645456741     -1.22822025997701     -0.00017736581114

    units angstrom      # Angstroms are the default
    no_reorient         # Geometry fixed, default
    symmetry c1         # C1 symmetry, default
}

set {
    scf_type DF         # Density fitting, faster than exact integrals
    freeze_core True    # Freeze core electrons
    basis jun-cc-pVDZ   # Jun-cc-pVDZ basis set, recommended for sSAPT0 in https://doi.org/10.1063/1.4867135
}

energy('ssapt0')        # Compute sSAPT0 energy, includes also SAPT0
--------------------------------------------------------------------------

  //              Dimer HF             //
    Molecular point group: c1
  Charge       = -1
  Multiplicity = 1
  Basis Set: JUN-CC-PVDZ
    Blend: JUN-CC-PVDZ
  Basis Set: (JUN-CC-PVDZ AUX)
    Blend: JUN-CC-PVDZ-JKFIT
  @DF-RHF Final Energy: -2478.64940730258058
    Total Energy =                      -2478.6494073025805847
 Dipole X            :         -0.0006327            0.0000481           -0.0005846
 Dipole Y            :          0.0012369           -0.0001453            0.0010916
 Dipole Z            :         15.4120004          -19.0038784           -3.5918781
 Magnitude           :                                                    3.5918783
  //            Monomer A HF           //
    Molecular point group: c1
  Multiplicity = 1
  Basis Set: JUN-CC-PVDZ
    Blend: JUN-CC-PVDZ
  Basis Set: (JUN-CC-PVDZ AUX)
    Blend: JUN-CC-PVDZ-JKFIT
  @DF-RHF Final Energy:  -422.77436796857251
    Total Energy =                       -422.7743679685725056
  //            Monomer B HF           //
    Molecular point group: c1

    Geometry (in Angstrom), charge = 0, multiplicity = 1:

       Center              X                  Y                   Z               Mass
    ------------   -----------------  -----------------  -----------------  -----------------
      Gh(B)          -0.000198161052     0.000273808717     2.741925240779    11.009305360000
      Gh(F)          -0.000000401852    -0.000000464183     4.154710240779    18.998403162730
      Gh(F)           1.147859598148     0.675780735817     2.270784240779    18.998403162730
      Gh(F)           0.011917658148    -1.332011464183     2.270986240779    18.998403162730
      Gh(F)          -1.159666401852     0.656073035817     2.271065240779    18.998403162730
         C            1.225311973413     0.707538196736    -0.351971131937    12.000000000000
         C            1.225323934041    -0.707538986754    -0.364301941508    12.000000000000
         C           -0.000006075942     1.414965821907    -0.364835565029    12.000000000000
         C            2.456448831939     1.418327794995    -0.349084274538    12.000000000000
         C            0.000010905269    -1.414976590818    -0.354636007704    12.000000000000
         C           -1.225300870919     0.707545281801    -0.349719611615    12.000000000000
         C            2.456437833310    -1.418323396064    -0.366547098365    12.000000000000
         C           -0.000001254988     2.836800939098    -0.367239115163    12.000000000000
         C            3.681826775460     0.709317863818    -0.366198308567    12.000000000000
         C            2.455120126855     2.834223569306    -0.366300865528    12.000000000000
         C            3.681821183209    -0.709333931612    -0.350125824548    12.000000000000
         C           -1.225313520698    -0.707527607727    -0.363229180081    12.000000000000
         C            1.226699659192     3.543469391811    -0.349941792618    12.000000000000
         C            0.000004862847    -2.836782231419    -0.349787840083    12.000000000000
         C           -2.456435954859     1.418316826102    -0.349684215769    12.000000000000
         C            2.455123495769    -2.834230120772    -0.350277732916    12.000000000000
         C           -1.226714286599     3.543468971567    -0.349838459398    12.000000000000
         C            4.914517373191     1.427172780306    -0.359717625537    12.000000000000
         C            3.693150269466     3.542795200362    -0.359667825901    12.000000000000
         C           -2.456437522078    -1.418313373022    -0.366572136489    12.000000000000
         C            1.226704919933    -3.543474334090    -0.365911923367    12.000000000000
         C           -2.455125320518     2.834216570451    -0.366294489181    12.000000000000
         C            4.914524458772    -1.427187002127    -0.356744882803    12.000000000000
         C            1.221424691688     4.970133973077    -0.356606448543    12.000000000000
         C            4.893008307311     2.825187907843    -0.358500957179    12.000000000000
         C           -1.226696930499    -3.543471089260    -0.365644718958    12.000000000000
         C           -3.681818898536     0.709324874549    -0.366185628087    12.000000000000
         C            3.693147179140    -3.542801433574    -0.356626992242    12.000000000000
         C           -1.221432174004     4.970128205680    -0.356422953170    12.000000000000
         C            6.134771050916     0.680547854922    -0.358947850988    12.000000000000
         C            3.656788958600     4.972953151384    -0.358759188118    12.000000000000
         C           -2.455126829744    -2.834215185244    -0.350522090714    12.000000000000
         C           -3.681819101071    -0.709325795652    -0.350008202970    12.000000000000
         C            4.893012695903    -2.825200197815    -0.357889805283    12.000000000000
         C           -0.000000995123     5.650447273849    -0.357654261877    12.000000000000
         C            6.134775190322    -0.680554946258    -0.357682530472    12.000000000000
         C            2.478131560845     5.653576659148    -0.357470408469    12.000000000000
         C            1.221422482727    -4.970127147116    -0.359405945566    12.000000000000
         C           -3.693162305975     3.542796862009    -0.359502318442    12.000000000000
         C           -1.221428442955    -4.970118395779    -0.359518707398    12.000000000000
         C           -4.914521729952     1.427175354812    -0.359640680530    12.000000000000
         C            3.656787097669    -4.972955318422    -0.357308687584    12.000000000000
         C           -2.478138452116     5.653574330345    -0.357185883460    12.000000000000
         C           -3.693141660574    -3.542790311162    -0.356743118398    12.000000000000
         C           -4.914512405063    -1.427181092211    -0.356710185629    12.000000000000
         C           -0.000005930936    -5.650438379197    -0.358049765998    12.000000000000
         C           -4.893020406111     2.825188506736    -0.358511039039    12.000000000000
         C            2.478126071288    -5.653573636072    -0.358399288377    12.000000000000
         C           -3.656798632268     4.972956089858    -0.358582507744    12.000000000000
         C           -4.892999400866    -2.825191859243    -0.358043840981    12.000000000000
         C           -2.478128420093    -5.653566262190    -0.358674476024    12.000000000000
         C           -6.134770425341     0.680548674073    -0.358973402690    12.000000000000
         C           -3.656788755199    -4.972944115154    -0.357522975401    12.000000000000
         C           -6.134764964923    -0.680554007665    -0.357703006267    12.000000000000
         H            5.835288573806     3.369275802771    -0.354141631516     1.007825032230
         H            7.073859250737     1.228217156716    -0.358486207594     1.007825032230
         H            4.600663342164     5.512380710270    -0.358253987366     1.007825032230
         H            5.835283465295    -3.369306148912    -0.362344272598     1.007825032230
         H           -0.000012073316     6.738530581953    -0.362003506885     1.007825032230
         H            7.073861249820    -1.228227034927    -0.358191268566     1.007825032230
         H            2.473313809789     6.740684199211    -0.357937129399     1.007825032230
         H            4.600668569371    -5.512376221359    -0.357718684753     1.007825032230
         H           -2.473318602548     6.740681627423    -0.357635782774     1.007825032230
         H           -0.000010190238    -6.738528268635    -0.353520081014     1.007825032230
         H           -5.835301836354     3.369270858113    -0.354005609368     1.007825032230
         H            2.473308001821    -6.740685466612    -0.357828957952     1.007825032230
         H           -4.600674763218     5.512377934420    -0.358088659043     1.007825032230
         H           -5.835279428845    -3.369289055963    -0.362623578479     1.007825032230
         H           -2.473300269450    -6.740679170323    -0.358278274496     1.007825032230
         H           -7.073857688778     1.228220380657    -0.358570199075     1.007825032230
         H           -4.600673708095    -5.512362761970    -0.357890992776     1.007825032230
         H           -7.073856856419    -1.228220724160    -0.358286125032     1.007825032230

  Charge       = 0
  Multiplicity = 1
  Basis Set: JUN-CC-PVDZ
    Blend: JUN-CC-PVDZ
  Basis Set: (JUN-CC-PVDZ AUX)
    Blend: JUN-CC-PVDZ-JKFIT

    Orbital Energies [Eh]
    ---------------------

    Doubly Occupied:

       1A    -11.260673     2A    -11.260222     3A    -11.260222
       4A    -11.259470     5A    -11.259470     6A    -11.259285
       7A    -11.259042     8A    -11.258970     9A    -11.258969
      10A    -11.258636    11A    -11.258633    12A    -11.258520
      13A    -11.258465    14A    -11.258461    15A    -11.258460
      16A    -11.258421    17A    -11.258414    18A    -11.258396
      19A    -11.258396    20A    -11.258395    21A    -11.258391
      22A    -11.258325    23A    -11.258320    24A    -11.258090
      25A    -11.257317    26A    -11.257258    27A    -11.257258
      28A    -11.257128    29A    -11.257127    30A    -11.257046
      31A    -11.256413    32A    -11.256345    33A    -11.256344
      34A    -11.256238    35A    -11.256237    36A    -11.256191
      37A    -11.252272    38A    -11.252271    39A    -11.252270
      40A    -11.252268    41A    -11.252266    42A    -11.252265
      43A    -11.251368    44A    -11.251365    45A    -11.251365
      46A    -11.251358    47A    -11.251358    48A    -11.251354
      49A    -11.250834    50A    -11.250832    51A    -11.250831
      52A    -11.250829    53A    -11.250827    54A    -11.250826
      55A     -1.243995    56A     -1.219770    57A     -1.219769
      58A     -1.189508    59A     -1.189500    60A     -1.180875
      61A     -1.157535    62A     -1.148945    63A     -1.135435
      64A     -1.135428    65A     -1.113168    66A     -1.113163
      67A     -1.082390    68A     -1.082383    69A     -1.078546
      70A     -1.065959    71A     -1.065955    72A     -1.039370
      73A     -1.024219    74A     -1.021697    75A     -1.021654
      76A     -1.017708    77A     -1.012778    78A     -0.986977
      79A     -0.986931    80A     -0.961851    81A     -0.961802
      82A     -0.894267    83A     -0.894240    84A     -0.887868
      85A     -0.886120    86A     -0.886062    87A     -0.881347
      88A     -0.881300    89A     -0.861874    90A     -0.837401
      91A     -0.818175    92A     -0.816556    93A     -0.812088
      94A     -0.812078    95A     -0.794666    96A     -0.794656
      97A     -0.746569    98A     -0.744811    99A     -0.733354
     100A     -0.733345   101A     -0.732155   102A     -0.732132
     103A     -0.716451   104A     -0.698947   105A     -0.698936
     106A     -0.693541   107A     -0.693526   108A     -0.661203
     109A     -0.653040   110A     -0.651094   111A     -0.650229
     112A     -0.650223   113A     -0.639334   114A     -0.639332
     115A     -0.629667   116A     -0.627473   117A     -0.627457
     118A     -0.606444   119A     -0.605802   120A     -0.601613
     121A     -0.599702   122A     -0.599671   123A     -0.593599
     124A     -0.591142   125A     -0.591131   126A     -0.585265
     127A     -0.576396   128A     -0.576390   129A     -0.567305
     130A     -0.567291   131A     -0.565900   132A     -0.565881
     133A     -0.558662   134A     -0.554813   135A     -0.554806
     136A     -0.538568   137A     -0.538566   138A     -0.538194
     139A     -0.538188   140A     -0.529687   141A     -0.528174
     142A     -0.522837   143A     -0.522831   144A     -0.500479
     145A     -0.495586   146A     -0.493207   147A     -0.487829
     148A     -0.485030   149A     -0.481715   150A     -0.481707
     151A     -0.470344   152A     -0.470326   153A     -0.450952
     154A     -0.450874   155A     -0.439058   156A     -0.439049
     157A     -0.404723   158A     -0.404700   159A     -0.403357
     160A     -0.375407   161A     -0.375404   162A     -0.349117
     163A     -0.337594   164A     -0.336533   165A     -0.336475
     166A     -0.311045   167A     -0.298107   168A     -0.284316
     169A     -0.284262   170A     -0.224879   171A     -0.224813

  @DF-RHF Final Energy: -2055.89424962964040

   => Energetics <=

    Nuclear Repulsion Energy =           6452.5568002797781446
    One-Electron Energy =              -15636.4923051190780825
    Two-Electron Energy =                7128.0412552096604486
    Total Energy =                      -2055.8942496296403988
 Dipole X            :          0.0000069            0.0000419            0.0000488
 Dipole Y            :          0.0000719           -0.0000426            0.0000293
 Dipole Z            :        231.4447216         -231.4422405            0.0024811
 Magnitude           :                                                    0.0024818

    SAPT Results
  --------------------------------------------------------------------------------------------------------
    Electrostatics                 -6.42379672 [mEh]      -4.03099330 [kcal/mol]     -16.86567597 [kJ/mol]
      Elst10,r                     -6.42379672 [mEh]      -4.03099330 [kcal/mol]     -16.86567597 [kJ/mol]

    Exchange                       49.29523650 [mEh]      30.93322792 [kcal/mol]     129.42462560 [kJ/mol]
      Exch10                       49.29523650 [mEh]      30.93322792 [kcal/mol]     129.42462560 [kJ/mol]
      Exch10(S^2)                  49.01156250 [mEh]      30.75521980 [kcal/mol]     128.67983963 [kJ/mol]

    Induction                     -23.66114415 [mEh]     -14.84759211 [kcal/mol]     -62.12232540 [kJ/mol]
      Ind20,r                     -39.51244191 [mEh]     -24.79443163 [kcal/mol]    -103.73990194 [kJ/mol]
      Exch-Ind20,r                 19.68681153 [mEh]      12.35366074 [kcal/mol]      51.68771654 [kJ/mol]
      delta HF,r (2)               -3.83551376 [mEh]      -2.40682122 [kcal/mol]     -10.07013999 [kJ/mol]

    Dispersion                    -20.28493953 [mEh]     -12.72899173 [kcal/mol]     -53.25810139 [kJ/mol]
      Disp20                      -25.56046815 [mEh]     -16.03943592 [kcal/mol]     -67.10899989 [kJ/mol]
      Exch-Disp20                   5.27552862 [mEh]       3.31044419 [kcal/mol]      13.85089850 [kJ/mol]
      Disp20 (SS)                 -12.78023408 [mEh]      -8.01971796 [kcal/mol]     -33.55449994 [kJ/mol]
      Disp20 (OS)                 -12.78023408 [mEh]      -8.01971796 [kcal/mol]     -33.55449994 [kJ/mol]
      Exch-Disp20 (SS)              2.94612379 [mEh]       1.84872059 [kcal/mol]       7.73504694 [kJ/mol]
      Exch-Disp20 (OS)              2.32940484 [mEh]       1.46172360 [kcal/mol]       6.11585156 [kJ/mol]

  Total HF                         19.21029563 [mEh]      12.05464250 [kcal/mol]      50.43662423 [kJ/mol]
  Total SAPT0                      -1.07464389 [mEh]      -0.67434922 [kcal/mol]      -2.82147716 [kJ/mol]

  Special recipe for scaled SAPT0 (see Manual):
    Electrostatics sSAPT0          -6.42379672 [mEh]      -4.03099330 [kcal/mol]     -16.86567597 [kJ/mol]
    Exchange sSAPT0                49.29523650 [mEh]      30.93322792 [kcal/mol]     129.42462560 [kJ/mol]
    Induction sSAPT0              -23.31732596 [mEh]     -14.63184294 [kcal/mol]     -61.21963088 [kJ/mol]
    Dispersion sSAPT0             -20.19280563 [mEh]     -12.67117683 [kcal/mol]     -53.01620388 [kJ/mol]
  Total sSAPT0                     -0.63869181 [mEh]      -0.40078516 [kcal/mol]      -1.67688512 [kJ/mol]
  --------------------------------------------------------------------------------------------------------

*** Psi4 exiting successfully. Buy a developer a beer!
