                               Psi4 1.9 release

  ==> Input File <==

--------------------------------------------------------------------------
memory 48 GB # how much memory is available ! Depends on the nodes/cores !

molecule dimer {
# monomer A
-1 1    # Charge and multiplicity
B -0.000046  0.000337 2.899994
F -1.153597  0.000048 3.715641
F  1.153661 -0.000581 3.715641
F -0.000019 -1.153637 2.084360
F -0.000019  1.153978 2.084360
--
# monomer B
0 1     # Charge and multiplicity
C   1.22531237526482      0.70753866091955      0.00613762728373
C   1.22532433589282     -0.70753852257020     -0.00619318228664
C   -0.00000567409046      1.41496628609039     -0.00672680580738
C   2.45644923379077      1.41832825917820      0.00902448468363
C   0.00001130712078     -1.41497612663474      0.00347275151708
C   -1.22530046906674      0.70754574598412      0.00838914760619
C   2.45643823516184     -1.41832293188077     -0.00843833914343
C   -0.00000085313587      2.83680140328112     -0.00913035594137
C   3.68182717731192      0.70931832800114     -0.00808954934571
C   2.45512052870677      2.83422403348893     -0.00819210630633
C   3.68182158506039     -0.70933346742900      0.00798293467272
C   -1.22531311884624     -0.70752714354401     -0.00512042085974
C   1.22670006104402      3.54346985599427      0.00816696660346
C   0.00000526469929     -2.83678176723568      0.00832091913869
C   -2.45643555300670      1.41831729028492      0.00842454345199
C   2.45512389762097     -2.83422965658853      0.00783102630520
C   -1.22671388474763      3.54346943575023      0.00827029982280
C   4.91451777504333      1.42717324448953     -0.00160886631602
C   3.69315067131765      3.54279566454522     -0.00155906667985
C   -2.45643712022637     -1.41831290883911     -0.00846337726810
C   1.22670532178455     -3.54347386990643     -0.00780316414624
C   -2.45512491866593      2.83421703463423     -0.00818572995999
C   4.91452486062398     -1.42718653794377      0.00136387641845
C   1.22142509354026      4.97013443726031      0.00150231067809
C   4.89300870916237      2.82518837202648     -0.00039219795739
C   -1.22669652864725     -3.54347062507680     -0.00753595973677
C   -3.68181849668397      0.70932533873199     -0.00807686886569
C   3.69314758099218     -3.54280096939050      0.00148176697923
C   -1.22143177215231      4.97012866986289      0.00168580605083
C   6.13477145276790      0.68054831910577     -0.00083909176631
C   3.65678936045204      4.97295361556775     -0.00065042889723
C   -2.45512642789169     -2.83421472106065      0.00758666850712
C   -3.68181869921921     -0.70932533146830      0.00810055625144
C   4.89301309775526     -2.82519973363176      0.00021895393805
C   -0.00000059327114      5.65044773803267      0.00045449734393
C   6.13477559217374     -0.68055448207492      0.00042622874941
C   2.47813196269732      5.65357712333155      0.00063835075260
C   1.22142288457925     -4.97012668293268     -0.00129718634452
C   -3.69316190412301      3.54279732619245     -0.00139355922051
C   -1.22142804110313     -4.97011793159564     -0.00140994817719
C   -4.91452132810043      1.42717581899491     -0.00153192130862
C   3.65678749952045     -4.97295485423912      0.00080007163680
C   -2.47813805026426      5.65357479452875      0.00092287576113
C   -3.69314125872231     -3.54278984697859      0.00136564082345
C   -4.91451200321153     -1.42718062802730      0.00139857359209
C   -0.00000552908399     -5.65043791501335      0.00005899322272
C   -4.89302000425900      2.82518897091939     -0.00040227981744
C   2.47812647313991     -5.65357317188818     -0.00029052915548
C   -3.65679823041642      4.97295655404175     -0.00047374852278
C   -4.89299899901461     -2.82519139505969      0.00006491824035
C   -2.47812801824129     -5.65356579800621     -0.00056571680280
C   -6.13477002348955      0.68054913825639     -0.00086464346868
C   -3.65678835334731     -4.97294365097028      0.00058578382008
C   -6.13476456307132     -0.68055354348201      0.00040575295444
H   5.83528897565761      3.36927626695423      0.00396712770529
H   7.07385965258860      1.22821762089947     -0.00037744837300
H   4.60066374401555      5.51238117445323     -0.00014522814529
H   5.83528386714679     -3.36930568472863     -0.00423551337640
H   -0.00001167146422      6.73853104613662     -0.00389474766392
H   7.07386165167227     -1.22822657074368     -0.00008250934481
H   2.47331421164041      6.74068466339473      0.00017162982210
H   4.60066897122302     -5.51237575717576      0.00039007446835
H   -2.47331820069565      6.74068209160650      0.00047297644710
H   -0.00000978838621     -6.73852780445195      0.00458867820736
H   -5.83530143450167      3.36927132229595      0.00410314985360
H   2.47330840367253     -6.74068500242887      0.00027980126949
H   -4.60067436136587      5.51237839860371      0.00002010017831
H   -5.83527902699321     -3.36928859177951     -0.00451481925734
H   -2.47329986759855     -6.74067870613986     -0.00016951527498
H   -7.07385728692578      1.22822084484047     -0.00046143985387
H   -4.60067330624313     -5.51236229778631      0.00021776644566
H   -7.07385645456741     -1.22822025997701     -0.00017736581114

    units angstrom      # Angstroms are the default
    no_reorient         # Geometry fixed, default
    symmetry c1         # C1 symmetry, default
}

set {
    scf_type DF         # Density fitting, faster than exact integrals
    freeze_core True    # Freeze core electrons
    basis jun-cc-pVDZ   # Jun-cc-pVDZ basis set, recommended for sSAPT0 in https://doi.org/10.1063/1.4867135
}

energy('ssapt0')        # Compute sSAPT0 energy, includes also SAPT0
--------------------------------------------------------------------------

  //              Dimer HF             //
    Molecular point group: c1
  Charge       = -1
  Multiplicity = 1
  Basis Set: JUN-CC-PVDZ
    Blend: JUN-CC-PVDZ
  Basis Set: (JUN-CC-PVDZ AUX)
    Blend: JUN-CC-PVDZ-JKFIT
  @DF-RHF Final Energy: -2478.59002531043916
    Total Energy =                      -2478.5900253104391595
 Dipole X            :         -0.0001950           -0.0000160           -0.0002111
 Dipole Y            :         -0.0019699           -0.0001716           -0.0021415
 Dipole Z            :         14.6909516          -17.7777927           -3.0868411
 Magnitude           :                                                    3.0868419
  //            Monomer A HF           //
    Molecular point group: c1
  Multiplicity = 1
  Basis Set: JUN-CC-PVDZ
    Blend: JUN-CC-PVDZ
  Basis Set: (JUN-CC-PVDZ AUX)
    Blend: JUN-CC-PVDZ-JKFIT
  @DF-RHF Final Energy:  -422.77545642548307
    Total Energy =                       -422.7754564254830711
  //            Monomer B HF           //
    Molecular point group: c1

    Geometry (in Angstrom), charge = 0, multiplicity = 1:

       Center              X                  Y                   Z               Mass
    ------------   -----------------  -----------------  -----------------  -----------------
      Gh(B)          -0.000046449334     0.000336519434     2.564989229331    11.009305360000
      Gh(F)          -1.153597449334     0.000047519434     3.380636229331    18.998403162730
      Gh(F)           1.153660550666    -0.000581480566     3.380636229331    18.998403162730
      Gh(F)          -0.000019449334    -1.153637480566     1.749355229331    18.998403162730
      Gh(F)          -0.000019449334     1.153977519434     1.749355229331    18.998403162730
         C            1.225311925931     0.707538180353    -0.328867143385    12.000000000000
         C            1.225323886559    -0.707539003137    -0.341197952955    12.000000000000
         C           -0.000006123424     1.414965805524    -0.341731576476    12.000000000000
         C            2.456448784457     1.418327778612    -0.325980285985    12.000000000000
         C            0.000010857787    -1.414976607201    -0.331532019152    12.000000000000
         C           -1.225300918401     0.707545265418    -0.326615623062    12.000000000000
         C            2.456437785828    -1.418323412447    -0.343443109812    12.000000000000
         C           -0.000001302470     2.836800922715    -0.344135126610    12.000000000000
         C            3.681826727978     0.709317847435    -0.343094320014    12.000000000000
         C            2.455120079373     2.834223552923    -0.343196876975    12.000000000000
         C            3.681821135726    -0.709333947995    -0.327021835996    12.000000000000
         C           -1.225313568180    -0.707527624110    -0.340125191528    12.000000000000
         C            1.226699611710     3.543469375428    -0.326837804065    12.000000000000
         C            0.000004815365    -2.836782247802    -0.326683851530    12.000000000000
         C           -2.456436002341     1.418316809719    -0.326580227217    12.000000000000
         C            2.455123448287    -2.834230137155    -0.327173744363    12.000000000000
         C           -1.226714334082     3.543468955184    -0.326734470846    12.000000000000
         C            4.914517325709     1.427172763923    -0.336613636985    12.000000000000
         C            3.693150221984     3.542795183979    -0.336563837349    12.000000000000
         C           -2.456437569560    -1.418313389406    -0.343468147937    12.000000000000
         C            1.226704872451    -3.543474350473    -0.342807934815    12.000000000000
         C           -2.455125368000     2.834216554068    -0.343190500629    12.000000000000
         C            4.914524411290    -1.427187018510    -0.333640894250    12.000000000000
         C            1.221424644206     4.970133956694    -0.333502459991    12.000000000000
         C            4.893008259828     2.825187891460    -0.335396968626    12.000000000000
         C           -1.226696977981    -3.543471105643    -0.342540730405    12.000000000000
         C           -3.681818946018     0.709324858166    -0.343081639534    12.000000000000
         C            3.693147131658    -3.542801449957    -0.333523003689    12.000000000000
         C           -1.221432221486     4.970128189296    -0.333318964618    12.000000000000
         C            6.134771003434     0.680547838539    -0.335843862435    12.000000000000
         C            3.656788911118     4.972953135001    -0.335655199566    12.000000000000
         C           -2.455126877226    -2.834215201627    -0.327418102162    12.000000000000
         C           -3.681819148553    -0.709325812035    -0.326904214417    12.000000000000
         C            4.893012648421    -2.825200214198    -0.334785816731    12.000000000000
         C           -0.000001042605     5.650447257466    -0.334550273325    12.000000000000
         C            6.134775142840    -0.680554962641    -0.334578541919    12.000000000000
         C            2.478131513363     5.653576642765    -0.334366419916    12.000000000000
         C            1.221422435245    -4.970127163499    -0.336301957013    12.000000000000
         C           -3.693162353457     3.542796845626    -0.336398329889    12.000000000000
         C           -1.221428490437    -4.970118412162    -0.336414718846    12.000000000000
         C           -4.914521777434     1.427175338429    -0.336536691977    12.000000000000
         C            3.656787050187    -4.972955334806    -0.334204699032    12.000000000000
         C           -2.478138499598     5.653574313962    -0.334081894908    12.000000000000
         C           -3.693141708056    -3.542790327545    -0.333639129845    12.000000000000
         C           -4.914512452545    -1.427181108594    -0.333606197077    12.000000000000
         C           -0.000005978418    -5.650438395580    -0.334945777446    12.000000000000
         C           -4.893020453593     2.825188490353    -0.335407050486    12.000000000000
         C            2.478126023806    -5.653573652455    -0.335295299824    12.000000000000
         C           -3.656798679750     4.972956073475    -0.335478519191    12.000000000000
         C           -4.892999448349    -2.825191875626    -0.334939852428    12.000000000000
         C           -2.478128467575    -5.653566278573    -0.335570487471    12.000000000000
         C           -6.134770472823     0.680548657690    -0.335869414137    12.000000000000
         C           -3.656788802681    -4.972944131537    -0.334418986849    12.000000000000
         C           -6.134765012405    -0.680554024048    -0.334599017714    12.000000000000
         H            5.835288526324     3.369275786388    -0.331037642963     1.007825032230
         H            7.073859203255     1.228217140333    -0.335382219042     1.007825032230
         H            4.600663294682     5.512380693887    -0.335149998814     1.007825032230
         H            5.835283417813    -3.369306165295    -0.339240284045     1.007825032230
         H           -0.000012120798     6.738530565570    -0.338899518333     1.007825032230
         H            7.073861202338    -1.228227051310    -0.335087280013     1.007825032230
         H            2.473313762307     6.740684182828    -0.334833140847     1.007825032230
         H            4.600668521889    -5.512376237742    -0.334614696200     1.007825032230
         H           -2.473318650030     6.740681611040    -0.334531794222     1.007825032230
         H           -0.000010237720    -6.738528285018    -0.330416092461     1.007825032230
         H           -5.835301883836     3.369270841730    -0.330901620815     1.007825032230
         H            2.473307954339    -6.740685482995    -0.334724969399     1.007825032230
         H           -4.600674810700     5.512377918037    -0.334984670490     1.007825032230
         H           -5.835279476327    -3.369289072346    -0.339519589926     1.007825032230
         H           -2.473300316932    -6.740679186706    -0.335174285944     1.007825032230
         H           -7.073857736260     1.228220364274    -0.335466210523     1.007825032230
         H           -4.600673755577    -5.512362778353    -0.334787004223     1.007825032230
         H           -7.073856903901    -1.228220740543    -0.335182136480     1.007825032230

  Charge       = 0
  Multiplicity = 1
  Basis Set: JUN-CC-PVDZ
    Blend: JUN-CC-PVDZ
  Basis Set: (JUN-CC-PVDZ AUX)
    Blend: JUN-CC-PVDZ-JKFIT

    Orbital Energies [Eh]
    ---------------------

    Doubly Occupied:

       1A    -11.260745     2A    -11.260378     3A    -11.260181
       4A    -11.259538     5A    -11.259414     6A    -11.259261
       7A    -11.259011     8A    -11.258968     9A    -11.258910
      10A    -11.258670    11A    -11.258603    12A    -11.258498
      13A    -11.258453    14A    -11.258451    15A    -11.258439
      16A    -11.258410    17A    -11.258396    18A    -11.258381
      19A    -11.258381    20A    -11.258377    21A    -11.258367
      22A    -11.258336    23A    -11.258295    24A    -11.258111
      25A    -11.257273    26A    -11.257221    27A    -11.257205
      28A    -11.257082    29A    -11.257079    30A    -11.256998
      31A    -11.256363    32A    -11.256300    33A    -11.256288
      34A    -11.256190    35A    -11.256183    36A    -11.256140
      37A    -11.252276    38A    -11.252275    39A    -11.252269
      40A    -11.252267    41A    -11.252266    42A    -11.252264
      43A    -11.251365    44A    -11.251364    45A    -11.251359
      46A    -11.251356    47A    -11.251332    48A    -11.251331
      49A    -11.250838    50A    -11.250837    51A    -11.250830
      52A    -11.250828    53A    -11.250827    54A    -11.250825
      55A     -1.243963    56A     -1.219758    57A     -1.219732
      58A     -1.189497    59A     -1.189482    60A     -1.180863
      61A     -1.157531    62A     -1.148933    63A     -1.135412
      64A     -1.135399    65A     -1.113164    66A     -1.113153
      67A     -1.082358    68A     -1.082357    69A     -1.078530
      70A     -1.065955    71A     -1.065951    72A     -1.039354
      73A     -1.024184    74A     -1.021674    75A     -1.021641
      76A     -1.017705    77A     -1.012772    78A     -0.986956
      79A     -0.986906    80A     -0.961841    81A     -0.961796
      82A     -0.894254    83A     -0.894229    84A     -0.887849
      85A     -0.886096    86A     -0.886033    87A     -0.881332
      88A     -0.881287    89A     -0.861857    90A     -0.837399
      91A     -0.818164    92A     -0.816526    93A     -0.812076
      94A     -0.812062    95A     -0.794654    96A     -0.794646
      97A     -0.746554    98A     -0.744787    99A     -0.733335
     100A     -0.733325   101A     -0.732147   102A     -0.732121
     103A     -0.716435   104A     -0.698930   105A     -0.698929
     106A     -0.693527   107A     -0.693519   108A     -0.661189
     109A     -0.653014   110A     -0.651066   111A     -0.650223
     112A     -0.650219   113A     -0.639328   114A     -0.639324
     115A     -0.629654   116A     -0.627463   117A     -0.627437
     118A     -0.606474   119A     -0.605804   120A     -0.601596
     121A     -0.599685   122A     -0.599664   123A     -0.593587
     124A     -0.591119   125A     -0.591115   126A     -0.585263
     127A     -0.576387   128A     -0.576359   129A     -0.567300
     130A     -0.567287   131A     -0.565884   132A     -0.565857
     133A     -0.558642   134A     -0.554802   135A     -0.554798
     136A     -0.538561   137A     -0.538558   138A     -0.538163
     139A     -0.538148   140A     -0.529675   141A     -0.528192
     142A     -0.522824   143A     -0.522822   144A     -0.500469
     145A     -0.495575   146A     -0.493198   147A     -0.487812
     148A     -0.485018   149A     -0.481702   150A     -0.481695
     151A     -0.470376   152A     -0.470313   153A     -0.450934
     154A     -0.450850   155A     -0.439053   156A     -0.439045
     157A     -0.404710   158A     -0.404666   159A     -0.403336
     160A     -0.375414   161A     -0.375406   162A     -0.349108
     163A     -0.337518   164A     -0.336521   165A     -0.336463
     166A     -0.311044   167A     -0.298103   168A     -0.284270
     169A     -0.284220   170A     -0.224867   171A     -0.224808

  @DF-RHF Final Energy: -2055.89437204663136

   => Energetics <=

    Nuclear Repulsion Energy =           6452.5568002797781446
    One-Electron Energy =              -15636.4972575104657153
    Two-Electron Energy =                7128.0460851840571195
    Total Energy =                      -2055.8943720466313607
 Dipole X            :          0.0000491            0.0000112            0.0000603
 Dipole Y            :          0.0001691           -0.0000531            0.0001160
 Dipole Z            :        216.5126973         -216.5104484            0.0022489
 Magnitude           :                                                    0.0022527

    SAPT Results
  --------------------------------------------------------------------------------------------------------
    Electrostatics                -65.97133987 [mEh]     -41.39764077 [kcal/mol]    -173.20772897 [kJ/mol]
      Elst10,r                    -65.97133987 [mEh]     -41.39764077 [kcal/mol]    -173.20772897 [kJ/mol]

    Exchange                      183.52898899 [mEh]     115.16617930 [kcal/mol]     481.85529420 [kJ/mol]
      Exch10                      183.52898899 [mEh]     115.16617930 [kcal/mol]     481.85529420 [kJ/mol]
      Exch10(S^2)                 178.47912259 [mEh]     111.99734030 [kcal/mol]     468.59687181 [kJ/mol]

    Induction                     -37.75448744 [mEh]     -23.69129855 [kcal/mol]     -99.12439312 [kJ/mol]
      Ind20,r                    -116.96587699 [mEh]     -73.39719592 [kcal/mol]    -307.09386772 [kJ/mol]
      Exch-Ind20,r                 88.02944477 [mEh]      55.23931057 [kcal/mol]     231.12127541 [kJ/mol]
      delta HF,r (2)               -8.81805523 [mEh]      -5.53341320 [kcal/mol]     -23.15180081 [kJ/mol]

    Dispersion                    -33.32009602 [mEh]     -20.90867592 [kcal/mol]     -87.48190005 [kJ/mol]
      Disp20                      -47.68877362 [mEh]     -29.92515724 [kcal/mol]    -125.20685788 [kJ/mol]
      Exch-Disp20                  14.36867759 [mEh]       9.01648132 [kcal/mol]      37.72495783 [kJ/mol]
      Disp20 (SS)                 -23.84438681 [mEh]     -14.96257862 [kcal/mol]     -62.60342894 [kJ/mol]
      Disp20 (OS)                 -23.84438681 [mEh]     -14.96257862 [kcal/mol]     -62.60342894 [kJ/mol]
      Exch-Disp20 (SS)              7.47900795 [mEh]       4.69314834 [kcal/mol]      19.63613266 [kJ/mol]
      Exch-Disp20 (OS)              6.88966965 [mEh]       4.32333297 [kcal/mol]      18.08882517 [kJ/mol]

  Total HF                         79.80316168 [mEh]      50.07723999 [kcal/mol]     209.52317211 [kJ/mol]
  Total SAPT0                      46.48306565 [mEh]      29.16856407 [kcal/mol]     122.04127206 [kJ/mol]

  Special recipe for scaled SAPT0 (see Manual):
    Electrostatics sSAPT0         -65.97133987 [mEh]     -41.39764077 [kcal/mol]    -173.20772897 [kJ/mol]
    Exchange sSAPT0               183.52898899 [mEh]     115.16617930 [kcal/mol]     481.85529420 [kJ/mol]
    Induction sSAPT0              -30.06899641 [mEh]     -18.86858011 [kcal/mol]     -78.94613919 [kJ/mol]
    Dispersion sSAPT0             -32.06562551 [mEh]     -20.12148379 [kcal/mol]     -84.18828817 [kJ/mol]
  Total sSAPT0                     55.42302720 [mEh]      34.77847464 [kcal/mol]     145.51313788 [kJ/mol]
  --------------------------------------------------------------------------------------------------------

*** Psi4 exiting successfully. Buy a developer a beer!
