                               Psi4 1.9 release

  ==> Input File <==

--------------------------------------------------------------------------
memory 48 GB # how much memory is available ! Depends on the nodes/cores !

molecule dimer {
# monomer A
+1 1    # Charge and multiplicity
C  0.680067 -1.215929 2.908042
C -0.680504 -1.215545 2.906014
N -1.085635  0.102779 2.905016
C  0.000108  0.884180 2.901740
C -2.477365  0.570758 2.855610
N  1.085222  0.102779 2.905016
H  1.385146 -2.033368 2.915870
H -1.385302 -2.033214 2.906204
H -0.000009  1.965269 2.899993
C  2.478117  0.567877 2.921908
H  2.490592  1.658130 2.894563
H  2.967028  0.220701 3.835354
H  3.001428  0.176405 2.046425
H -2.857359  0.490799 1.833539
H -3.082679 -0.042306 3.525694
H -2.518128  1.610706 3.182594
--
# monomer B
0 1     # Charge and multiplicity
C   1.22531237526482      0.70753866091955      0.00613762728373
C   1.22532433589282     -0.70753852257020     -0.00619318228664
C   -0.00000567409046      1.41496628609039     -0.00672680580738
C   2.45644923379077      1.41832825917820      0.00902448468363
C   0.00001130712078     -1.41497612663474      0.00347275151708
C   -1.22530046906674      0.70754574598412      0.00838914760619
C   2.45643823516184     -1.41832293188077     -0.00843833914343
C   -0.00000085313587      2.83680140328112     -0.00913035594137
C   3.68182717731192      0.70931832800114     -0.00808954934571
C   2.45512052870677      2.83422403348893     -0.00819210630633
C   3.68182158506039     -0.70933346742900      0.00798293467272
C   -1.22531311884624     -0.70752714354401     -0.00512042085974
C   1.22670006104402      3.54346985599427      0.00816696660346
C   0.00000526469929     -2.83678176723568      0.00832091913869
C   -2.45643555300670      1.41831729028492      0.00842454345199
C   2.45512389762097     -2.83422965658853      0.00783102630520
C   -1.22671388474763      3.54346943575023      0.00827029982280
C   4.91451777504333      1.42717324448953     -0.00160886631602
C   3.69315067131765      3.54279566454522     -0.00155906667985
C   -2.45643712022637     -1.41831290883911     -0.00846337726810
C   1.22670532178455     -3.54347386990643     -0.00780316414624
C   -2.45512491866593      2.83421703463423     -0.00818572995999
C   4.91452486062398     -1.42718653794377      0.00136387641845
C   1.22142509354026      4.97013443726031      0.00150231067809
C   4.89300870916237      2.82518837202648     -0.00039219795739
C   -1.22669652864725     -3.54347062507680     -0.00753595973677
C   -3.68181849668397      0.70932533873199     -0.00807686886569
C   3.69314758099218     -3.54280096939050      0.00148176697923
C   -1.22143177215231      4.97012866986289      0.00168580605083
C   6.13477145276790      0.68054831910577     -0.00083909176631
C   3.65678936045204      4.97295361556775     -0.00065042889723
C   -2.45512642789169     -2.83421472106065      0.00758666850712
C   -3.68181869921921     -0.70932533146830      0.00810055625144
C   4.89301309775526     -2.82519973363176      0.00021895393805
C   -0.00000059327114      5.65044773803267      0.00045449734393
C   6.13477559217374     -0.68055448207492      0.00042622874941
C   2.47813196269732      5.65357712333155      0.00063835075260
C   1.22142288457925     -4.97012668293268     -0.00129718634452
C   -3.69316190412301      3.54279732619245     -0.00139355922051
C   -1.22142804110313     -4.97011793159564     -0.00140994817719
C   -4.91452132810043      1.42717581899491     -0.00153192130862
C   3.65678749952045     -4.97295485423912      0.00080007163680
C   -2.47813805026426      5.65357479452875      0.00092287576113
C   -3.69314125872231     -3.54278984697859      0.00136564082345
C   -4.91451200321153     -1.42718062802730      0.00139857359209
C   -0.00000552908399     -5.65043791501335      0.00005899322272
C   -4.89302000425900      2.82518897091939     -0.00040227981744
C   2.47812647313991     -5.65357317188818     -0.00029052915548
C   -3.65679823041642      4.97295655404175     -0.00047374852278
C   -4.89299899901461     -2.82519139505969      0.00006491824035
C   -2.47812801824129     -5.65356579800621     -0.00056571680280
C   -6.13477002348955      0.68054913825639     -0.00086464346868
C   -3.65678835334731     -4.97294365097028      0.00058578382008
C   -6.13476456307132     -0.68055354348201      0.00040575295444
H   5.83528897565761      3.36927626695423      0.00396712770529
H   7.07385965258860      1.22821762089947     -0.00037744837300
H   4.60066374401555      5.51238117445323     -0.00014522814529
H   5.83528386714679     -3.36930568472863     -0.00423551337640
H   -0.00001167146422      6.73853104613662     -0.00389474766392
H   7.07386165167227     -1.22822657074368     -0.00008250934481
H   2.47331421164041      6.74068466339473      0.00017162982210
H   4.60066897122302     -5.51237575717576      0.00039007446835
H   -2.47331820069565      6.74068209160650      0.00047297644710
H   -0.00000978838621     -6.73852780445195      0.00458867820736
H   -5.83530143450167      3.36927132229595      0.00410314985360
H   2.47330840367253     -6.74068500242887      0.00027980126949
H   -4.60067436136587      5.51237839860371      0.00002010017831
H   -5.83527902699321     -3.36928859177951     -0.00451481925734
H   -2.47329986759855     -6.74067870613986     -0.00016951527498
H   -7.07385728692578      1.22822084484047     -0.00046143985387
H   -4.60067330624313     -5.51236229778631      0.00021776644566
H   -7.07385645456741     -1.22822025997701     -0.00017736581114

    units angstrom      # Angstroms are the default
    no_reorient         # Geometry fixed, default
    symmetry c1         # C1 symmetry, default
}

set {
    scf_type DF         # Density fitting, faster than exact integrals
    freeze_core True    # Freeze core electrons
    basis jun-cc-pVDZ   # Jun-cc-pVDZ basis set, recommended for sSAPT0 in https://doi.org/10.1063/1.4867135
}

energy('ssapt0')        # Compute sSAPT0 energy, includes also SAPT0
--------------------------------------------------------------------------

  //              Dimer HF             //
    Molecular point group: c1
  Charge       = 1
  Multiplicity = 1
  Basis Set: JUN-CC-PVDZ
    Blend: JUN-CC-PVDZ
  Basis Set: (JUN-CC-PVDZ AUX)
    Blend: JUN-CC-PVDZ-JKFIT
  @DF-RHF Final Energy: -2359.15580892237631
    Total Energy =                      -2359.1558089223763091
 Dipole X            :          0.0038090            0.0006313            0.0044403
 Dipole Y            :         -1.6546229            1.8864948            0.2318719
 Dipole Z            :        -12.0628885           15.0608716            2.9979831
 Magnitude           :                                                    3.0069398
  //            Monomer A HF           //
    Molecular point group: c1
  Multiplicity = 1
  Basis Set: JUN-CC-PVDZ
    Blend: JUN-CC-PVDZ
  Basis Set: (JUN-CC-PVDZ AUX)
    Blend: JUN-CC-PVDZ-JKFIT
  @DF-RHF Final Energy:  -303.29985558167687
    Total Energy =                       -303.2998555816768658
  //            Monomer B HF           //
    Molecular point group: c1

    Geometry (in Angstrom), charge = 0, multiplicity = 1:

       Center              X                  Y                   Z               Mass
    ------------   -----------------  -----------------  -----------------  -----------------
      Gh(C)           0.680066520158    -1.215933861162     2.539181973687    12.000000000000
      Gh(C)          -0.680504479842    -1.215549861162     2.537153973687    12.000000000000
      Gh(N)          -1.085635479842     0.102774138838     2.536155973687    14.003074004430
      Gh(C)           0.000107520158     0.884175138838     2.532879973687    12.000000000000
      Gh(C)          -2.477365479842     0.570753138838     2.486749973687    12.000000000000
      Gh(N)           1.085221520158     0.102774138838     2.536155973687    14.003074004430
      Gh(H)           1.385145520158    -2.033372861162     2.547009973687     1.007825032230
      Gh(H)          -1.385302479842    -2.033218861162     2.537343973687     1.007825032230
      Gh(H)          -0.000009479842     1.965264138838     2.531132973687     1.007825032230
      Gh(C)           2.478116520158     0.567872138838     2.553047973687    12.000000000000
      Gh(H)           2.490591520158     1.658125138838     2.525702973687     1.007825032230
      Gh(H)           2.967027520158     0.220696138838     3.466493973687     1.007825032230
      Gh(H)           3.001427520158     0.176400138838     1.677564973687     1.007825032230
      Gh(H)          -2.857359479842     0.490794138838     1.464678973687     1.007825032230
      Gh(H)          -3.082679479842    -0.042310861162     3.156833973687     1.007825032230
      Gh(H)          -2.518128479842     1.610701138838     2.813733973687     1.007825032230
         C            1.225311895423     0.707533799757    -0.362722399030    12.000000000000
         C            1.225323856051    -0.707543383733    -0.375053208600    12.000000000000
         C           -0.000006153932     1.414961424928    -0.375586832121    12.000000000000
         C            2.456448753949     1.418323398016    -0.359835541630    12.000000000000
         C            0.000010827279    -1.414980987797    -0.365387274796    12.000000000000
         C           -1.225300948908     0.707540884822    -0.360470878707    12.000000000000
         C            2.456437755320    -1.418327793043    -0.377298365457    12.000000000000
         C           -0.000001332978     2.836796542119    -0.377990382255    12.000000000000
         C            3.681826697470     0.709313466839    -0.376949575659    12.000000000000
         C            2.455120048865     2.834219172327    -0.377052132620    12.000000000000
         C            3.681821105219    -0.709338328591    -0.360877091641    12.000000000000
         C           -1.225313598688    -0.707532004706    -0.373980447173    12.000000000000
         C            1.226699581202     3.543464994832    -0.360693059710    12.000000000000
         C            0.000004784858    -2.836786628398    -0.360539107175    12.000000000000
         C           -2.456436032848     1.418312429123    -0.360435482861    12.000000000000
         C            2.455123417779    -2.834234517751    -0.361029000008    12.000000000000
         C           -1.226714364589     3.543464574588    -0.360589726491    12.000000000000
         C            4.914517295202     1.427168383327    -0.370468892629    12.000000000000
         C            3.693150191476     3.542790803383    -0.370419092993    12.000000000000
         C           -2.456437600068    -1.418317770001    -0.377323403581    12.000000000000
         C            1.226704841943    -3.543478731069    -0.376663190460    12.000000000000
         C           -2.455125398508     2.834212173472    -0.377045756273    12.000000000000
         C            4.914524380782    -1.427191399106    -0.367496149895    12.000000000000
         C            1.221424613699     4.970129576098    -0.367357715635    12.000000000000
         C            4.893008229321     2.825183510864    -0.369252224271    12.000000000000
         C           -1.226697008489    -3.543475486239    -0.376395986050    12.000000000000
         C           -3.681818976526     0.709320477570    -0.376936895179    12.000000000000
         C            3.693147101150    -3.542805830553    -0.367378259334    12.000000000000
         C           -1.221432251994     4.970123808701    -0.367174220263    12.000000000000
         C            6.134770972926     0.680543457943    -0.369699118080    12.000000000000
         C            3.656788880610     4.972948754405    -0.369510455211    12.000000000000
         C           -2.455126907733    -2.834219582223    -0.361273357806    12.000000000000
         C           -3.681819179061    -0.709330192631    -0.360759470062    12.000000000000
         C            4.893012617914    -2.825204594794    -0.368641072375    12.000000000000
         C           -0.000001073113     5.650442876870    -0.368405528969    12.000000000000
         C            6.134775112332    -0.680559343237    -0.368433797564    12.000000000000
         C            2.478131482856     5.653572262169    -0.368221675561    12.000000000000
         C            1.221422404738    -4.970131544095    -0.370157212658    12.000000000000
         C           -3.693162383965     3.542792465030    -0.370253585534    12.000000000000
         C           -1.221428520945    -4.970122792758    -0.370269974491    12.000000000000
         C           -4.914521807942     1.427170957833    -0.370391947622    12.000000000000
         C            3.656787019679    -4.972959715401    -0.368059954677    12.000000000000
         C           -2.478138530106     5.653569933366    -0.367937150552    12.000000000000
         C           -3.693141738564    -3.542794708141    -0.367494385490    12.000000000000
         C           -4.914512483053    -1.427185489190    -0.367461452721    12.000000000000
         C           -0.000006008926    -5.650442776176    -0.368801033091    12.000000000000
         C           -4.893020484101     2.825184109757    -0.369262306131    12.000000000000
         C            2.478125993298    -5.653578033051    -0.369150555469    12.000000000000
         C           -3.656798710258     4.972951692879    -0.369333774836    12.000000000000
         C           -4.892999478856    -2.825196256222    -0.368795108073    12.000000000000
         C           -2.478128498083    -5.653570659169    -0.369425743116    12.000000000000
         C           -6.134770503331     0.680544277094    -0.369724669782    12.000000000000
         C           -3.656788833189    -4.972948512133    -0.368274242493    12.000000000000
         C           -6.134765042913    -0.680558404644    -0.368454273359    12.000000000000
         H            5.835288495816     3.369271405792    -0.364892898608     1.007825032230
         H            7.073859172747     1.228212759737    -0.369237474686     1.007825032230
         H            4.600663264174     5.512376313291    -0.369005254459     1.007825032230
         H            5.835283387305    -3.369310545891    -0.373095539690     1.007825032230
         H           -0.000012151306     6.738526184974    -0.372754773977     1.007825032230
         H            7.073861171831    -1.228231431906    -0.368942535658     1.007825032230
         H            2.473313731799     6.740679802232    -0.368688396491     1.007825032230
         H            4.600668491381    -5.512380618338    -0.368469951845     1.007825032230
         H           -2.473318680537     6.740677230444    -0.368387049866     1.007825032230
         H           -0.000010268228    -6.738532665614    -0.364271348106     1.007825032230
         H           -5.835301914343     3.369266461134    -0.364756876460     1.007825032230
         H            2.473307923831    -6.740689863591    -0.368580225044     1.007825032230
         H           -4.600674841208     5.512373537441    -0.368839926135     1.007825032230
         H           -5.835279506835    -3.369293452942    -0.373374845571     1.007825032230
         H           -2.473300347440    -6.740683567302    -0.369029541588     1.007825032230
         H           -7.073857766768     1.228215983678    -0.369321466167     1.007825032230
         H           -4.600673786085    -5.512367158949    -0.368642259868     1.007825032230
         H           -7.073856934409    -1.228225121139    -0.369037392124     1.007825032230

  Charge       = 0
  Multiplicity = 1
  Basis Set: JUN-CC-PVDZ
    Blend: JUN-CC-PVDZ
  Basis Set: (JUN-CC-PVDZ AUX)
    Blend: JUN-CC-PVDZ-JKFIT

    Orbital Energies [Eh]
    ---------------------

    Doubly Occupied:

       1A    -11.260682     2A    -11.260245     3A    -11.260207
       4A    -11.259480     5A    -11.259441     6A    -11.259266
       7A    -11.258998     8A    -11.258946     9A    -11.258899
      10A    -11.258586    11A    -11.258568    12A    -11.258392
      13A    -11.258347    14A    -11.258333    15A    -11.258327
      16A    -11.258297    17A    -11.258290    18A    -11.258269
      19A    -11.258265    20A    -11.258260    21A    -11.258246
      22A    -11.258229    23A    -11.258220    24A    -11.258070
      25A    -11.257242    26A    -11.257209    27A    -11.257144
      28A    -11.257063    29A    -11.257026    30A    -11.256955
      31A    -11.256354    32A    -11.256314    33A    -11.256237
      34A    -11.256178    35A    -11.256142    36A    -11.256085
      37A    -11.252136    38A    -11.252132    39A    -11.252106
      40A    -11.252104    41A    -11.252101    42A    -11.252092
      43A    -11.251208    44A    -11.251197    45A    -11.251193
      46A    -11.251189    47A    -11.251181    48A    -11.251168
      49A    -11.250697    50A    -11.250693    51A    -11.250668
      52A    -11.250665    53A    -11.250662    54A    -11.250653
      55A     -1.243779    56A     -1.219542    57A     -1.219521
      58A     -1.189277    59A     -1.189258    60A     -1.180682
      61A     -1.157308    62A     -1.148708    63A     -1.135231
      64A     -1.135208    65A     -1.112943    66A     -1.112936
      67A     -1.082157    68A     -1.082145    69A     -1.078338
      70A     -1.065740    71A     -1.065729    72A     -1.039139
      73A     -1.023970    74A     -1.021492    75A     -1.021437
      76A     -1.017476    77A     -1.012565    78A     -0.986748
      79A     -0.986684    80A     -0.961632    81A     -0.961579
      82A     -0.894031    83A     -0.894011    84A     -0.887631
      85A     -0.885872    86A     -0.885833    87A     -0.881097
      88A     -0.881049    89A     -0.861646    90A     -0.837186
      91A     -0.817927    92A     -0.816308    93A     -0.811846
      94A     -0.811843    95A     -0.794443    96A     -0.794431
      97A     -0.746303    98A     -0.744568    99A     -0.733125
     100A     -0.733111   101A     -0.731925   102A     -0.731904
     103A     -0.716225   104A     -0.698718   105A     -0.698682
     106A     -0.693313   107A     -0.693268   108A     -0.660975
     109A     -0.652832   110A     -0.650845   111A     -0.650010
     112A     -0.650004   113A     -0.639099   114A     -0.639079
     115A     -0.629426   116A     -0.627232   117A     -0.627221
     118A     -0.606458   119A     -0.605611   120A     -0.601356
     121A     -0.599480   122A     -0.599412   123A     -0.593333
     124A     -0.590907   125A     -0.590875   126A     -0.585051
     127A     -0.576395   128A     -0.576321   129A     -0.567086
     130A     -0.567066   131A     -0.565665   132A     -0.565658
     133A     -0.558428   134A     -0.554598   135A     -0.554588
     136A     -0.538342   137A     -0.538338   138A     -0.538133
     139A     -0.538123   140A     -0.529441   141A     -0.528096
     142A     -0.522613   143A     -0.522578   144A     -0.500251
     145A     -0.495494   146A     -0.492971   147A     -0.487719
     148A     -0.484770   149A     -0.481467   150A     -0.481467
     151A     -0.470247   152A     -0.470240   153A     -0.450696
     154A     -0.450629   155A     -0.438928   156A     -0.438921
     157A     -0.404592   158A     -0.404587   159A     -0.403230
     160A     -0.375264   161A     -0.375256   162A     -0.348957
     163A     -0.337495   164A     -0.336449   165A     -0.336422
     166A     -0.310900   167A     -0.297941   168A     -0.284184
     169A     -0.284141   170A     -0.224746   171A     -0.224689

  @DF-RHF Final Energy: -2055.89697898520353

   => Energetics <=

    Nuclear Repulsion Energy =           6452.5568002797781446
    One-Electron Energy =              -15636.5565072331301053
    Two-Electron Energy =                7128.1027279681493383
    Total Energy =                      -2055.8969789852035319
 Dipole X            :         -0.0004722           -0.0000085           -0.0004807
 Dipole Y            :          0.0006970           -0.0028843           -0.0021872
 Dipole Z            :        238.3938817         -238.3906375            0.0032442
 Magnitude           :                                                    0.0039421

    SAPT Results
  --------------------------------------------------------------------------------------------------------
    Electrostatics                -55.70952699 [mEh]     -34.95825597 [kcal/mol]    -146.26534297 [kJ/mol]
      Elst10,r                    -55.70952699 [mEh]     -34.95825597 [kcal/mol]    -146.26534297 [kJ/mol]

    Exchange                      124.17955109 [mEh]      77.92384476 [kcal/mol]     326.03336646 [kJ/mol]
      Exch10                      124.17955109 [mEh]      77.92384476 [kcal/mol]     326.03336646 [kJ/mol]
      Exch10(S^2)                 122.47177037 [mEh]      76.85219618 [kcal/mol]     321.54958880 [kJ/mol]

    Induction                     -27.44437959 [mEh]     -17.22160820 [kcal/mol]     -72.05520869 [kJ/mol]
      Ind20,r                     -65.26172878 [mEh]     -40.95235309 [kcal/mol]    -171.34464531 [kJ/mol]
      Exch-Ind20,r                 46.26507162 [mEh]      29.03177074 [kcal/mol]     121.46892879 [kJ/mol]
      delta HF,r (2)               -8.44772242 [mEh]      -5.30102585 [kcal/mol]     -22.17949217 [kJ/mol]

    Dispersion                    -70.89967938 [mEh]     -44.49022050 [kcal/mol]    -186.14708257 [kJ/mol]
      Disp20                      -82.20891630 [mEh]     -51.58687381 [kcal/mol]    -215.83948001 [kJ/mol]
      Exch-Disp20                  11.30923692 [mEh]       7.09665331 [kcal/mol]      29.69239744 [kJ/mol]
      Disp20 (SS)                 -41.10445815 [mEh]     -25.79343690 [kcal/mol]    -107.91974000 [kJ/mol]
      Disp20 (OS)                 -41.10445815 [mEh]     -25.79343690 [kcal/mol]    -107.91974000 [kJ/mol]
      Exch-Disp20 (SS)              6.75851341 [mEh]       4.24103119 [kcal/mol]      17.74447451 [kJ/mol]
      Exch-Disp20 (OS)              4.55072351 [mEh]       2.85562211 [kcal/mol]      11.94792293 [kJ/mol]

  Total HF                         41.02564450 [mEh]      25.74398059 [kcal/mol]     107.71281481 [kJ/mol]
  Total SAPT0                     -29.87403488 [mEh]     -18.74623991 [kcal/mol]     -78.43426776 [kJ/mol]

  Special recipe for scaled SAPT0 (see Manual):
    Electrostatics sSAPT0         -55.70952699 [mEh]     -34.95825597 [kcal/mol]    -146.26534297 [kJ/mol]
    Exchange sSAPT0               124.17955109 [mEh]      77.92384476 [kcal/mol]     326.03336646 [kJ/mol]
    Induction sSAPT0              -25.48186699 [mEh]     -15.99011295 [kcal/mol]     -66.90263256 [kJ/mol]
    Dispersion sSAPT0             -70.41995420 [mEh]     -44.18918840 [kcal/mol]    -184.88756427 [kJ/mol]
  Total sSAPT0                    -27.43179709 [mEh]     -17.21371256 [kcal/mol]     -72.02217334 [kJ/mol]
  --------------------------------------------------------------------------------------------------------

*** Psi4 exiting successfully. Buy a developer a beer!
