                               Psi4 1.9 release

  ==> Input File <==

--------------------------------------------------------------------------
memory 64 GB # how much memory is available ! Depends on the nodes/cores !

molecule dimer {
# monomer A
+1 1    # Charge and multiplicity
C  0.680067 -0.008042 -6.615929
C -0.680504 -0.006014 -6.615545
N -1.085635 -0.005016 -5.297221
C  0.000108 -0.001740 -4.515820
C -2.477365  0.044390 -4.829242
N  1.085222 -0.005016 -5.297221
H  1.385146 -0.015870 -7.433368
H -1.385302 -0.006204 -7.433214
H -0.000009  0.000007 -3.434731
C  2.478117 -0.021908 -4.832123
H  2.490592  0.005437 -3.741870
H  2.967028 -0.935354 -5.179299
H  3.001428  0.853575 -5.223595
H -2.857359  1.066461 -4.909201
H -3.082679 -0.625694 -5.442306
H -2.518128 -0.282594 -3.789294
--
# monomer B
0 1     # Charge and multiplicity
C   -3.66844126402057      7.80375217008252      0.00190004133558
C   -4.84759871934653      7.13124183134024     -0.00046653359696
C   -4.89495929917518      5.69633040353158     -0.00103944469517
C   -3.65374067877320      4.98073034095895      0.00662099703436
C   -2.40942512149445      7.11398103667468      0.00209438359570
C   -2.42547734410473      5.68112195090346     -0.00491050527438
C   -1.19474401643570      7.78614419430947      0.00356656413763
C   0.03795902893699      7.09942164575698      0.00139585983271
C   0.03033258741920      5.66948955970466     -0.00408752508301
C   -1.20098450790502      4.96927034791531      0.00488220885047
C   1.27795782581485      7.77285944319479      0.00277170839332
C   2.48535808472416      7.08769688523756      0.00049722048857
C   2.48612868491717      5.65477081024076     -0.00644052849921
C   1.25408291964399      4.95607811366431      0.00518741308898
C   3.75171459140595      7.76391215098033      0.00062407186893
C   4.92356605618520      7.07878077698995     -0.00143240883900
C   4.95560727132542      5.64344746336949     -0.00159282164606
C   3.70680153420475      4.94121020833308      0.00349873852374
H   -3.65852113775815      8.89082741913536      0.00358502958574
H   -1.18921332975660      8.87412108735996      0.00753844057883
H   1.28429423888630      8.86083343548850      0.00693053253426
H   3.75354208679975      8.85103527897216      0.00214659618464
H   5.86995870320703      7.61379483465560     -0.00235777588134
H   -5.78823170750226      7.67630221293400     -0.00202638095293
C   -6.09197395869619      4.99326001364347     -0.00291168518608
C   -6.12866148031747      3.58258016879823     -0.00171050815740
C   -3.66457974004527      3.56418217974434     -0.00463560277484
C   -4.89429820469869      2.86108077590057      0.00453338221034
C   -2.43733499489796      2.84761165708481      0.00719617576166
C   -1.20922785759670      3.54788693497833     -0.00648285103018
C   1.24714157216223      3.53468075142962     -0.00729145743546
C   0.01517603956900      2.83311183930540      0.00439272578912
C   2.46764517244071      2.82128997725533      0.00449278391269
C   3.70254947457969      3.52466015442405     -0.00899517692985
C   6.14498038638375      4.92757236613191     -0.00282626685777
C   6.16658835886151      3.51658447594213     -0.00065971342101
C   4.92460995845939      2.80840792535402      0.00587903281610
H   7.08990550964105      5.46688776622306     -0.00658814770723
H   -7.03104175110130      5.54268795285765     -0.00714490013730
C   -7.33969804112295      2.85841153457957     -0.00333767559888
C   -7.36488195805880      1.47032337158330     -0.00157213747140
C   -4.90350460894690      1.44442681216000     -0.00628840166334
C   -6.13225715261081      0.73993935705394      0.00600164231964
C   -3.67687480051673      0.72669714267312      0.00433931473643
C   -2.44565658606518      1.42964113326212     -0.00597039546461
C   -1.22360068130162      0.71532450163492      0.00545886906656
C   0.00763786931376      1.41738314923765      0.00392452278437
C   1.23121980774686      0.70211669058719     -0.01490206287210
C   2.46082110053113      1.40329203612573      0.00460244601878
C   3.68443025419614      0.68719842821222      0.00377365974158
C   4.91870890153864      1.39173456118907     -0.00862816189375
C   7.36980207796101      2.77948220318441     -0.00242013321349
C   7.38016266612146      1.39121750785509     -0.00087345036788
C   6.13979953912259      0.67411862320065      0.00545489144369
H   -8.27919079934664      3.40711804112415     -0.00763522772059
H   8.31511347147953      3.31811809662368     -0.00663070901292
C   -8.59175593758115      0.72483255304480     -0.00123170985383
C   -8.59902460370342     -0.63263980622873      0.00089141472904
C   -6.13981313911873     -0.67413663715361     -0.00609792660607
C   -7.38018411213749     -1.39126618958160      0.00131813493501
C   -4.91868448025621     -1.39175501803000      0.00624257154343
C   -3.68443829568458     -0.68723731573599     -0.00478966852105
C   -2.46081704024768     -1.40334517882457      0.00575341766833
C   -1.23116201232071     -0.70217386488055     -0.00636696112346
C   -0.00756962538737     -1.41741884941102      0.00108956317991
C   1.22364771588843     -0.71527537726392      0.01109518512883
C   2.44567064933149     -1.42964328900682     -0.00065482763106
C   3.67686670284649     -0.72670743155550     -0.00479541202602
C   6.13224884641929     -0.73997883984993     -0.00632338623858
C   4.90351914550401     -1.44445752054090      0.00751768830159
C   8.59901484869081      0.63260386666793     -0.00101133422380
C   8.59174548810050     -0.72485086719319      0.00072504603735
C   7.36486276438985     -1.47033266560598      0.00049486934466
H   -9.52830597181814      1.27684744919284     -0.00270163681798
H   9.54141097460619      1.17457248844457     -0.00206336648518
C   -7.36983790976868     -2.77954514593389      0.00312634335708
C   -4.92459910905015     -2.80843725734101     -0.00460528907921
C   -6.16662249566744     -3.51665219282533      0.00169655107992
C   -3.70251035970491     -3.52468154912026      0.00571878010666
C   -2.46764698511392     -2.82132596280400     -0.00632585824990
C   -0.01513347410770     -2.83314164539971     -0.00604426974092
C   -1.24712184122656     -3.53473217556300      0.00551968366725
C   1.20924506964357     -3.54791467864352      0.00805871345849
C   2.43733602215464     -2.84764173817541     -0.00608104485234
C   4.89430234377080     -2.86112296828604     -0.00526030478103
C   3.66461525504104     -3.56421984553201      0.00761911515957
C   6.12863901474565     -3.58258405771778      0.00096495711699
C   7.33967266469532     -2.85841330737039      0.00248018319869
H   -9.54144911125902     -1.17456346666430      0.00226083090216
H   9.52826186807155     -1.27691907390448      0.00197485379837
H   -8.31516504384864     -3.31814985321231      0.00729857188773
H   8.27915514249207     -3.40714078989363      0.00681973918158
C   -6.14499418870218     -4.92764727278338      0.00302254913999
C   -3.70678334799751     -4.94126171411716     -0.00679841894792
C   -4.95559005800169     -5.64349397349412      0.00116871569699
C   -2.48612132622665     -5.65478557440947      0.00614125209662
C   -1.25405833548005     -4.95612205000132     -0.00503435388927
C   1.20101257386816     -4.96928038819302     -0.00385322963129
C   -0.03033667441341     -5.66952030313900      0.00398997003238
C   3.65375010132847     -4.98074377541453     -0.00309522988330
C   2.42549269587528     -5.68117463552727      0.00628170066869
C   6.09196561781097     -4.99325796338655      0.00325918379042
C   4.89497644461045     -5.69634842095790      0.00202298796027
H   -7.08989238804069     -5.46699984223871      0.00742531082125
H   7.03105520920009     -5.54265853633254      0.00683896355417
C   -4.92354532219813     -7.07882109967734      0.00061394679214
C   -2.48534208823777     -7.08772807792913     -0.00189594564379
C   -3.75168589177895     -7.76394715763627     -0.00170126671874
C   -0.03794895698805     -7.09946487446944     -0.00168022049625
C   -1.27795610040136     -7.77290438466689     -0.00366491325785
C   2.40944432072629     -7.11402201200282     -0.00081701968533
C   1.19474993715296     -7.78618536556242     -0.00296931056689
C   4.84762105249800     -7.13126211057943      0.00168979497423
C   3.66847160587561     -7.80378799294376     -0.00065863938960
H   -5.86994035041618     -7.61383059804164      0.00215798365757
H   5.78824962538815     -7.67633218931421      0.00281691445618
H   -3.75352693944918     -8.85107156923607     -0.00353718114765
H   -1.28430440589466     -8.86087539249706     -0.00809229711623
H   1.18922157469537     -8.87416062058945     -0.00706194725726
H   3.65854661482387     -8.89086063405326     -0.00231318081200

    units angstrom      # Angstroms are the default
    no_reorient         # Geometry fixed, default
    symmetry c1         # C1 symmetry, default
}

set {
    scf_type DF         # Density fitting, faster than exact integrals
    freeze_core True    # Freeze core electrons
    basis jun-cc-pVDZ   # Jun-cc-pVDZ basis set, recommended for sSAPT0 in https://doi.org/10.1063/1.4867135
}

energy('ssapt0')        # Compute sSAPT0 energy, includes also SAPT0
--------------------------------------------------------------------------

  //              Dimer HF             //
    Molecular point group: c1
  Charge       = 1
  Multiplicity = 1
  Basis Set: JUN-CC-PVDZ
    Blend: JUN-CC-PVDZ
  Basis Set: (JUN-CC-PVDZ AUX)
    Blend: JUN-CC-PVDZ-JKFIT
  @DF-RHF Final Energy: -3953.65658315497876
    Total Energy =                      -3953.6565831549778522
 Dipole X            :         -0.0027246            0.0004804           -0.0022442
 Dipole Y            :         -0.0506457            0.0561130            0.0054673
 Dipole Z            :         23.3873435          -30.9091009           -7.5217574
 Magnitude           :                                                    7.5217597
  //            Monomer A HF           //
    Molecular point group: c1
  Multiplicity = 1
  Basis Set: JUN-CC-PVDZ
    Blend: JUN-CC-PVDZ
  Basis Set: (JUN-CC-PVDZ AUX)
    Blend: JUN-CC-PVDZ-JKFIT
  @DF-RHF Final Energy:  -303.29768061908402
    Total Energy =                       -303.2976806190840193
  //            Monomer B HF           //
    Molecular point group: c1

    Geometry (in Angstrom), charge = 0, multiplicity = 1:

       Center              X                  Y                   Z               Mass
    ------------   -----------------  -----------------  -----------------  -----------------
      Gh(C)           0.680062820275    -0.008027535675    -6.204226489631    12.000000000000
      Gh(C)          -0.680508179725    -0.005999535675    -6.203842489631    12.000000000000
      Gh(N)          -1.085639179725    -0.005001535675    -4.885518489631    14.003074004430
      Gh(C)           0.000103820275    -0.001725535675    -4.104117489631    12.000000000000
      Gh(C)          -2.477369179725     0.044404464325    -4.417539489631    12.000000000000
      Gh(N)           1.085217820275    -0.005001535675    -4.885518489631    14.003074004430
      Gh(H)           1.385141820275    -0.015855535675    -7.021665489631     1.007825032230
      Gh(H)          -1.385306179725    -0.006189535675    -7.021511489631     1.007825032230
      Gh(H)          -0.000013179725     0.000021464325    -3.023028489631     1.007825032230
      Gh(C)           2.478112820275    -0.021893535675    -4.420420489631    12.000000000000
      Gh(H)           2.490587820275     0.005451464325    -3.330167489631     1.007825032230
      Gh(H)           2.967023820275    -0.935339535675    -4.767596489631     1.007825032230
      Gh(H)           3.001423820275     0.853589464325    -4.811892489631     1.007825032230
      Gh(H)          -2.857363179725     1.066475464325    -4.497498489631     1.007825032230
      Gh(H)          -3.082683179725    -0.625679535675    -5.030603489631     1.007825032230
      Gh(H)          -2.518132179725    -0.282579535675    -3.377591489631     1.007825032230
         C           -3.668445443746     7.803766634408     0.413602551705    12.000000000000
         C           -4.847602899072     7.131256295665     0.411235976772    12.000000000000
         C           -4.894963478901     5.696344867857     0.410663065674    12.000000000000
         C           -3.653744858499     4.980744805284     0.418323507404    12.000000000000
         C           -2.409429301220     7.113995501000     0.413796893965    12.000000000000
         C           -2.425481523830     5.681136415228     0.406792005095    12.000000000000
         C           -1.194748196161     7.786158658634     0.415269074507    12.000000000000
         C            0.037954849212     7.099436110082     0.413098370202    12.000000000000
         C            0.030328407694     5.669504024030     0.407614985286    12.000000000000
         C           -1.200988687630     4.969284812240     0.416584719220    12.000000000000
         C            1.277953646089     7.772873907520     0.414474218763    12.000000000000
         C            2.485353904999     7.087711349563     0.412199730858    12.000000000000
         C            2.486124505192     5.654785274566     0.405261981870    12.000000000000
         C            1.254078739919     4.956092577989     0.416889923458    12.000000000000
         C            3.751710411681     7.763926615305     0.412326582238    12.000000000000
         C            4.923561876460     7.078795241315     0.410270101530    12.000000000000
         C            4.955603091600     5.643461927694     0.410109688723    12.000000000000
         C            3.706797354479     4.941224672658     0.415201248893    12.000000000000
         H           -3.658525317484     8.890841883460     0.415287539955     1.007825032230
         H           -1.189217509482     8.874135551685     0.419240950948     1.007825032230
         H            1.284290059161     8.860847899813     0.418633042904     1.007825032230
         H            3.753537907074     8.851049743297     0.413849106554     1.007825032230
         H            5.869954523482     7.613809298981     0.409344734488     1.007825032230
         H           -5.788235887228     7.676316677259     0.409676129416     1.007825032230
         C           -6.091978138422     4.993274477968     0.408790825183    12.000000000000
         C           -6.128665660043     3.582594633123     0.409992002212    12.000000000000
         C           -3.664583919771     3.564196644069     0.407066907595    12.000000000000
         C           -4.894302384424     2.861095240226     0.416235892580    12.000000000000
         C           -2.437339174623     2.847626121410     0.418898686131    12.000000000000
         C           -1.209232037322     3.547901399303     0.405219659339    12.000000000000
         C            1.247137392437     3.534695215755     0.404411052934    12.000000000000
         C            0.015171859844     2.833126303630     0.416095236159    12.000000000000
         C            2.467640992715     2.821304441580     0.416195294282    12.000000000000
         C            3.702545294854     3.524674618749     0.402707333440    12.000000000000
         C            6.144976206658     4.927586830457     0.408876243512    12.000000000000
         C            6.166584179136     3.516598940267     0.411042796948    12.000000000000
         C            4.924605778734     2.808422389679     0.417581543186    12.000000000000
         H            7.089901329916     5.466902230548     0.405114362662     1.007825032230
         H           -7.031045930827     5.542702417183     0.404557610232     1.007825032230
         C           -7.339702220848     2.858425998905     0.408364834771    12.000000000000
         C           -7.364886137784     1.470337835908     0.410130372898    12.000000000000
         C           -4.903508788672     1.444441276485     0.405414108706    12.000000000000
         C           -6.132261332336     0.739953821379     0.417704152689    12.000000000000
         C           -3.676878980242     0.726711606998     0.416041825106    12.000000000000
         C           -2.445660765791     1.429655597587     0.405732114905    12.000000000000
         C           -1.223604861027     0.715338965960     0.417161379436    12.000000000000
         C            0.007633689588     1.417397613563     0.415627033154    12.000000000000
         C            1.231215628021     0.702131154912     0.396800447497    12.000000000000
         C            2.460816920806     1.403306500451     0.416304956388    12.000000000000
         C            3.684426074471     0.687212892537     0.415476170111    12.000000000000
         C            4.918704721813     1.391749025514     0.403074348476    12.000000000000
         C            7.369797898236     2.779496667509     0.409282377156    12.000000000000
         C            7.380158486396     1.391231972180     0.410829060002    12.000000000000
         C            6.139795359397     0.674133087526     0.417157401813    12.000000000000
         H           -8.279194979072     3.407132505449     0.404067282649     1.007825032230
         H            8.315109291754     3.318132560949     0.405071801357     1.007825032230
         C           -8.591760117307     0.724847017370     0.410470800516    12.000000000000
         C           -8.599028783429    -0.632625341904     0.412593925098    12.000000000000
         C           -6.139817318844    -0.674122172829     0.405604583763    12.000000000000
         C           -7.380188291863    -1.391251725257     0.413020645304    12.000000000000
         C           -4.918688659982    -1.391740553705     0.417945081913    12.000000000000
         C           -3.684442475410    -0.687222851411     0.406912841848    12.000000000000
         C           -2.460821219973    -1.403330714500     0.417455928038    12.000000000000
         C           -1.231166192046    -0.702159400556     0.405335549246    12.000000000000
         C           -0.007573805113    -1.417404385086     0.412792073549    12.000000000000
         C            1.223643536163    -0.715260912939     0.422797695498    12.000000000000
         C            2.445666469606    -1.429628824682     0.411047682738    12.000000000000
         C            3.676862523121    -0.726692967231     0.406907098343    12.000000000000
         C            6.132244666694    -0.739964375525     0.405379124131    12.000000000000
         C            4.903514965779    -1.444443056216     0.419220198671    12.000000000000
         C            8.599010668965     0.632618330993     0.410691176146    12.000000000000
         C            8.591741308375    -0.724836402868     0.412427556407    12.000000000000
         C            7.364858584664    -1.470318201281     0.412197379714    12.000000000000
         H           -9.528310151544     1.276861913518     0.409000873551     1.007825032230
         H            9.541406794881     1.174586952770     0.409639143884     1.007825032230
         C           -7.369842089494    -2.779530681609     0.414828853727    12.000000000000
         C           -4.924603288776    -2.808422793016     0.407097221290    12.000000000000
         C           -6.166626675393    -3.516637728500     0.413399061449    12.000000000000
         C           -3.702514539430    -3.524667084795     0.417421290476    12.000000000000
         C           -2.467651164839    -2.821311498479     0.405376652120    12.000000000000
         C           -0.015137653833    -2.833127181075     0.405658240629    12.000000000000
         C           -1.247126020952    -3.534717711238     0.417222194037    12.000000000000
         C            1.209240889918    -3.547900214319     0.419761223828    12.000000000000
         C            2.437331842429    -2.847627273850     0.405621465517    12.000000000000
         C            4.894298164045    -2.861108503961     0.406442205588    12.000000000000
         C            3.664611075316    -3.564205381207     0.419321625529    12.000000000000
         C            6.128634835020    -3.582569593393     0.412667467486    12.000000000000
         C            7.339668484970    -2.858398843045     0.414182693568    12.000000000000
         H           -9.541453290984    -1.174549002339     0.413963341272     1.007825032230
         H            9.528257688346    -1.276904609579     0.413677364168     1.007825032230
         H           -8.315169223574    -3.318135388887     0.419001082257     1.007825032230
         H            8.279150962767    -3.407126325569     0.418522249551     1.007825032230
         C           -6.144998368428    -4.927632808458     0.414725059509    12.000000000000
         C           -3.706787527723    -4.941247249792     0.404904091422    12.000000000000
         C           -4.955594237727    -5.643479509169     0.412871226066    12.000000000000
         C           -2.486125505952    -5.654771110084     0.417843762466    12.000000000000
         C           -1.254062515205    -4.956107585676     0.406668156480    12.000000000000
         C            1.201008394143    -4.969265923868     0.407849280738    12.000000000000
         C           -0.030340854139    -5.669505838814     0.415692480402    12.000000000000
         C            3.653745921603    -4.980729311090     0.408607280486    12.000000000000
         C            2.425488516150    -5.681160171202     0.417984211038    12.000000000000
         C            6.091961438086    -4.993243499062     0.414961694160    12.000000000000
         C            4.894972264885    -5.696333956633     0.413725498330    12.000000000000
         H           -7.089896567766    -5.466985377914     0.419127821191     1.007825032230
         H            7.031051029475    -5.542644072008     0.418541473924     1.007825032230
         C           -4.923549501924    -7.078806635352     0.412316457162    12.000000000000
         C           -2.485346267963    -7.087713613604     0.409806564726    12.000000000000
         C           -3.751690071504    -7.763932693311     0.410001243651    12.000000000000
         C           -0.037953136713    -7.099450410144     0.410022289873    12.000000000000
         C           -1.277960280127    -7.772889920342     0.408037597112    12.000000000000
         C            2.409440141001    -7.114007547678     0.410885490684    12.000000000000
         C            1.194745757428    -7.786170901237     0.408733199803    12.000000000000
         C            4.847616872773    -7.131247646254     0.413392305344    12.000000000000
         C            3.668467426150    -7.803773528619     0.411043870980    12.000000000000
         H           -5.869944530142    -7.613816133717     0.413860494027     1.007825032230
         H            5.788245445663    -7.676317724989     0.414519424826     1.007825032230
         H           -3.753531119175    -8.851057104911     0.408165329222     1.007825032230
         H           -1.284308585620    -8.860860928172     0.403610213253     1.007825032230
         H            1.189217394970    -8.874146156264     0.404640563112     1.007825032230
         H            3.658542435098    -8.890846169728     0.409389329557     1.007825032230

  Charge       = 0
  Multiplicity = 1
  Basis Set: JUN-CC-PVDZ
    Blend: JUN-CC-PVDZ
  Basis Set: (JUN-CC-PVDZ AUX)
    Blend: JUN-CC-PVDZ-JKFIT

    Orbital Energies [Eh]
    ---------------------

    Doubly Occupied:

       1A    -11.264033     2A    -11.263705     3A    -11.263680
       4A    -11.263325     5A    -11.263310     6A    -11.263275
       7A    -11.263131     8A    -11.263122     9A    -11.263098
      10A    -11.262914    11A    -11.262775    12A    -11.262761
      13A    -11.262284    14A    -11.262274    15A    -11.262234
      16A    -11.262213    17A    -11.262141    18A    -11.262117
      19A    -11.262073    20A    -11.262033    21A    -11.262029
      22A    -11.261904    23A    -11.261900    24A    -11.261760
      25A    -11.261752    26A    -11.261730    27A    -11.261725
      28A    -11.261685    29A    -11.261676    30A    -11.261590
      31A    -11.261568    32A    -11.261564    33A    -11.261541
      34A    -11.261535    35A    -11.261519    36A    -11.261516
      37A    -11.261337    38A    -11.261329    39A    -11.261322
      40A    -11.261318    41A    -11.261307    42A    -11.261300
      43A    -11.261291    44A    -11.261277    45A    -11.261271
      46A    -11.261250    47A    -11.261243    48A    -11.261240
      49A    -11.261080    50A    -11.261056    51A    -11.261035
      52A    -11.260979    53A    -11.260953    54A    -11.260902
      55A    -11.259924    56A    -11.259913    57A    -11.259906
      58A    -11.259880    59A    -11.259875    60A    -11.259861
      61A    -11.259296    62A    -11.259274    63A    -11.259264
      64A    -11.259217    65A    -11.259209    66A    -11.259183
      67A    -11.258927    68A    -11.258910    69A    -11.258906
      70A    -11.258881    71A    -11.258875    72A    -11.258865
      73A    -11.254531    74A    -11.254529    75A    -11.254524
      76A    -11.254520    77A    -11.254519    78A    -11.254509
      79A    -11.253663    80A    -11.253662    81A    -11.253655
      82A    -11.253652    83A    -11.253650    84A    -11.253643
      85A    -11.253578    86A    -11.253577    87A    -11.253570
      88A    -11.253567    89A    -11.253565    90A    -11.253558
      91A    -11.253059    92A    -11.253056    93A    -11.253052
      94A    -11.253048    95A    -11.253047    96A    -11.253037
      97A     -1.253952    98A     -1.239008    99A     -1.238985
     100A     -1.220467   101A     -1.220455   102A     -1.215452
     103A     -1.201040   104A     -1.195605   105A     -1.188150
     106A     -1.188137   107A     -1.173763   108A     -1.173762
     109A     -1.155629   110A     -1.155623   111A     -1.152726
     112A     -1.144722   113A     -1.144720   114A     -1.128565
     115A     -1.114713   116A     -1.113164   117A     -1.112492
     118A     -1.112467   119A     -1.111618   120A     -1.088428
     121A     -1.088411   122A     -1.076962   123A     -1.076961
     124A     -1.067618   125A     -1.067582   126A     -1.064976
     127A     -1.046800   128A     -1.046790   129A     -1.040478
     130A     -1.038737   131A     -1.038732   132A     -1.025239
     133A     -1.021393   134A     -1.021332   135A     -1.007180
     136A     -1.006804   137A     -1.003794   138A     -1.000491
     139A     -1.000435   140A     -0.991075   141A     -0.970989
     142A     -0.970939   143A     -0.955884   144A     -0.955825
     145A     -0.905587   146A     -0.905551   147A     -0.905550
     148A     -0.905507   149A     -0.904334   150A     -0.892361
     151A     -0.892305   152A     -0.890361   153A     -0.890307
     154A     -0.889449   155A     -0.872217   156A     -0.869056
     157A     -0.851536   158A     -0.847859   159A     -0.847845
     160A     -0.845594   161A     -0.843010   162A     -0.834560
     163A     -0.834549   164A     -0.828118   165A     -0.828110
     166A     -0.784548   167A     -0.784538   168A     -0.783659
     169A     -0.783640   170A     -0.782282   171A     -0.782262
     172A     -0.782030   173A     -0.766986   174A     -0.760792
     175A     -0.750572   176A     -0.733483   177A     -0.727074
     178A     -0.727041   179A     -0.725077   180A     -0.724539
     181A     -0.724511   182A     -0.718490   183A     -0.713768
     184A     -0.713762   185A     -0.699576   186A     -0.699553
     187A     -0.686124   188A     -0.685952   189A     -0.685944
     190A     -0.682166   191A     -0.682157   192A     -0.678775
     193A     -0.653622   194A     -0.650869   195A     -0.650835
     196A     -0.649805   197A     -0.649798   198A     -0.649560
     199A     -0.640933   200A     -0.640889   201A     -0.640080
     202A     -0.639154   203A     -0.636018   204A     -0.635987
     205A     -0.629132   206A     -0.617794   207A     -0.615299
     208A     -0.615274   209A     -0.608795   210A     -0.608788
     211A     -0.599156   212A     -0.599104   213A     -0.598739
     214A     -0.598589   215A     -0.598578   216A     -0.598034
     217A     -0.595060   218A     -0.595047   219A     -0.594715
     220A     -0.594225   221A     -0.591948   222A     -0.591945
     223A     -0.587384   224A     -0.577793   225A     -0.577776
     226A     -0.575697   227A     -0.575667   228A     -0.573372
     229A     -0.569599   230A     -0.568140   231A     -0.568113
     232A     -0.566743   233A     -0.566737   234A     -0.560907
     235A     -0.558718   236A     -0.558679   237A     -0.558421
     238A     -0.554359   239A     -0.550568   240A     -0.547467
     241A     -0.544263   242A     -0.535013   243A     -0.534969
     244A     -0.533530   245A     -0.533511   246A     -0.528071
     247A     -0.528053   248A     -0.527782   249A     -0.517159
     250A     -0.517130   251A     -0.515348   252A     -0.515343
     253A     -0.509631   254A     -0.509619   255A     -0.498015
     256A     -0.496448   257A     -0.496407   258A     -0.493810
     259A     -0.493749   260A     -0.489456   261A     -0.481441
     262A     -0.477411   263A     -0.477409   264A     -0.473983
     265A     -0.469426   266A     -0.466510   267A     -0.466509
     268A     -0.458807   269A     -0.446672   270A     -0.446619
     271A     -0.441014   272A     -0.440773   273A     -0.440714
     274A     -0.434678   275A     -0.433902   276A     -0.407359
     277A     -0.407340   278A     -0.386406   279A     -0.386338
     280A     -0.385723   281A     -0.385719   282A     -0.383751
     283A     -0.354312   284A     -0.354289   285A     -0.350655
     286A     -0.338065   287A     -0.335558   288A     -0.335527
     289A     -0.332702   290A     -0.332697   291A     -0.307054
     292A     -0.301924   293A     -0.301862   294A     -0.300836
     295A     -0.286155   296A     -0.256460   297A     -0.253474
     298A     -0.253436   299A     -0.204244   300A     -0.204158

  @DF-RHF Final Energy: -3650.33994124199398

   => Energetics <=

    Nuclear Repulsion Energy =          15611.4211649754306563
    One-Electron Energy =              -36072.1476634446516982
    Two-Electron Energy =               16810.3865572272297868
    Total Energy =                      -3650.3399412419930741
 Dipole X            :         -0.0007895            0.0002112           -0.0005783
 Dipole Y            :          0.0012728           -0.0013774           -0.0001046
 Dipole Z            :       -466.7973119          466.8063858            0.0090738
 Magnitude           :                                                    0.0090928

    SAPT Results
  --------------------------------------------------------------------------------------------------------
    Electrostatics                -10.89081121 [mEh]      -6.83408721 [kcal/mol]     -28.59382090 [kJ/mol]
      Elst10,r                    -10.89081121 [mEh]      -6.83408721 [kcal/mol]     -28.59382090 [kJ/mol]

    Exchange                        0.32850562 [mEh]       0.20614039 [kcal/mol]       0.86249139 [kJ/mol]
      Exch10                        0.32850562 [mEh]       0.20614039 [kcal/mol]       0.86249139 [kJ/mol]
      Exch10(S^2)                   0.32846031 [mEh]       0.20611195 [kcal/mol]       0.86237241 [kJ/mol]

    Induction                      -8.39898831 [mEh]      -5.27044473 [kcal/mol]     -22.05154077 [kJ/mol]
      Ind20,r                      -8.04840052 [mEh]      -5.05044758 [kcal/mol]     -21.13107266 [kJ/mol]
      Exch-Ind20,r                  0.05772667 [mEh]       0.03622403 [kcal/mol]       0.15156136 [kJ/mol]
      delta HF,r (2)               -0.40831446 [mEh]      -0.25622119 [kcal/mol]      -1.07202946 [kJ/mol]

    Dispersion                     -6.86905810 [mEh]      -4.31039903 [kcal/mol]     -18.03470955 [kJ/mol]
      Disp20                       -6.91283289 [mEh]      -4.33786813 [kcal/mol]     -18.14964025 [kJ/mol]
      Exch-Disp20                   0.04377479 [mEh]       0.02746910 [kcal/mol]       0.11493070 [kJ/mol]
      Disp20 (SS)                  -3.45641644 [mEh]      -2.16893406 [kcal/mol]      -9.07482012 [kJ/mol]
      Disp20 (OS)                  -3.45641644 [mEh]      -2.16893406 [kcal/mol]      -9.07482012 [kJ/mol]
      Exch-Disp20 (SS)              0.02917785 [mEh]       0.01830938 [kcal/mol]       0.07660645 [kJ/mol]
      Exch-Disp20 (OS)              0.01459694 [mEh]       0.00915972 [kcal/mol]       0.03832425 [kJ/mol]

  Total HF                        -18.96129390 [mEh]     -11.89839156 [kcal/mol]     -49.78287028 [kJ/mol]
  Total SAPT0                     -25.83035200 [mEh]     -16.20879059 [kcal/mol]     -67.81757983 [kJ/mol]

  Special recipe for scaled SAPT0 (see Manual):
    Electrostatics sSAPT0         -10.89081121 [mEh]      -6.83408721 [kcal/mol]     -28.59382090 [kJ/mol]
    Exchange sSAPT0                 0.32850562 [mEh]       0.20614039 [kcal/mol]       0.86249139 [kJ/mol]
    Induction sSAPT0               -8.39896441 [mEh]      -5.27042974 [kcal/mol]     -22.05147803 [kJ/mol]
    Dispersion sSAPT0              -6.86903998 [mEh]      -4.31038766 [kcal/mol]     -18.03466197 [kJ/mol]
  Total sSAPT0                    -25.83030998 [mEh]     -16.20876422 [kcal/mol]     -67.81746951 [kJ/mol]
  --------------------------------------------------------------------------------------------------------

*** Psi4 exiting successfully. Buy a developer a beer!
