                               Psi4 1.9 release

  ==> Input File <==

--------------------------------------------------------------------------
memory 32 GB # how much memory is available ! Depends on the nodes/cores !

molecule dimer {
# monomer A
-1 1    # Charge and multiplicity
B -0.000046  0.000337 5.999994
F -1.153597  0.000048 6.815641
F  1.153661 -0.000581 6.815641
F -0.000019 -1.153637 5.184360
F -0.000019  1.153978 5.184360
--
# monomer B
0 1     # Charge and multiplicity
C   1.22531237526482      0.70753866091955      0.00613762728373
C   1.22532433589282     -0.70753852257020     -0.00619318228664
C   -0.00000567409046      1.41496628609039     -0.00672680580738
C   2.45644923379077      1.41832825917820      0.00902448468363
C   0.00001130712078     -1.41497612663474      0.00347275151708
C   -1.22530046906674      0.70754574598412      0.00838914760619
C   2.45643823516184     -1.41832293188077     -0.00843833914343
C   -0.00000085313587      2.83680140328112     -0.00913035594137
C   3.68182717731192      0.70931832800114     -0.00808954934571
C   2.45512052870677      2.83422403348893     -0.00819210630633
C   3.68182158506039     -0.70933346742900      0.00798293467272
C   -1.22531311884624     -0.70752714354401     -0.00512042085974
C   1.22670006104402      3.54346985599427      0.00816696660346
C   0.00000526469929     -2.83678176723568      0.00832091913869
C   -2.45643555300670      1.41831729028492      0.00842454345199
C   2.45512389762097     -2.83422965658853      0.00783102630520
C   -1.22671388474763      3.54346943575023      0.00827029982280
C   4.91451777504333      1.42717324448953     -0.00160886631602
C   3.69315067131765      3.54279566454522     -0.00155906667985
C   -2.45643712022637     -1.41831290883911     -0.00846337726810
C   1.22670532178455     -3.54347386990643     -0.00780316414624
C   -2.45512491866593      2.83421703463423     -0.00818572995999
C   4.91452486062398     -1.42718653794377      0.00136387641845
C   1.22142509354026      4.97013443726031      0.00150231067809
C   4.89300870916237      2.82518837202648     -0.00039219795739
C   -1.22669652864725     -3.54347062507680     -0.00753595973677
C   -3.68181849668397      0.70932533873199     -0.00807686886569
C   3.69314758099218     -3.54280096939050      0.00148176697923
C   -1.22143177215231      4.97012866986289      0.00168580605083
C   6.13477145276790      0.68054831910577     -0.00083909176631
C   3.65678936045204      4.97295361556775     -0.00065042889723
C   -2.45512642789169     -2.83421472106065      0.00758666850712
C   -3.68181869921921     -0.70932533146830      0.00810055625144
C   4.89301309775526     -2.82519973363176      0.00021895393805
C   -0.00000059327114      5.65044773803267      0.00045449734393
C   6.13477559217374     -0.68055448207492      0.00042622874941
C   2.47813196269732      5.65357712333155      0.00063835075260
C   1.22142288457925     -4.97012668293268     -0.00129718634452
C   -3.69316190412301      3.54279732619245     -0.00139355922051
C   -1.22142804110313     -4.97011793159564     -0.00140994817719
C   -4.91452132810043      1.42717581899491     -0.00153192130862
C   3.65678749952045     -4.97295485423912      0.00080007163680
C   -2.47813805026426      5.65357479452875      0.00092287576113
C   -3.69314125872231     -3.54278984697859      0.00136564082345
C   -4.91451200321153     -1.42718062802730      0.00139857359209
C   -0.00000552908399     -5.65043791501335      0.00005899322272
C   -4.89302000425900      2.82518897091939     -0.00040227981744
C   2.47812647313991     -5.65357317188818     -0.00029052915548
C   -3.65679823041642      4.97295655404175     -0.00047374852278
C   -4.89299899901461     -2.82519139505969      0.00006491824035
C   -2.47812801824129     -5.65356579800621     -0.00056571680280
C   -6.13477002348955      0.68054913825639     -0.00086464346868
C   -3.65678835334731     -4.97294365097028      0.00058578382008
C   -6.13476456307132     -0.68055354348201      0.00040575295444
H   5.83528897565761      3.36927626695423      0.00396712770529
H   7.07385965258860      1.22821762089947     -0.00037744837300
H   4.60066374401555      5.51238117445323     -0.00014522814529
H   5.83528386714679     -3.36930568472863     -0.00423551337640
H   -0.00001167146422      6.73853104613662     -0.00389474766392
H   7.07386165167227     -1.22822657074368     -0.00008250934481
H   2.47331421164041      6.74068466339473      0.00017162982210
H   4.60066897122302     -5.51237575717576      0.00039007446835
H   -2.47331820069565      6.74068209160650      0.00047297644710
H   -0.00000978838621     -6.73852780445195      0.00458867820736
H   -5.83530143450167      3.36927132229595      0.00410314985360
H   2.47330840367253     -6.74068500242887      0.00027980126949
H   -4.60067436136587      5.51237839860371      0.00002010017831
H   -5.83527902699321     -3.36928859177951     -0.00451481925734
H   -2.47329986759855     -6.74067870613986     -0.00016951527498
H   -7.07385728692578      1.22822084484047     -0.00046143985387
H   -4.60067330624313     -5.51236229778631      0.00021776644566
H   -7.07385645456741     -1.22822025997701     -0.00017736581114

    units angstrom      # Angstroms are the default
    no_reorient         # Geometry fixed, default
    symmetry c1         # C1 symmetry, default
}

set {
    scf_type DF         # Density fitting, faster than exact integrals
    freeze_core True    # Freeze core electrons
    basis jun-cc-pVDZ   # Jun-cc-pVDZ basis set, recommended for sSAPT0 in https://doi.org/10.1063/1.4867135
}

energy('ssapt0')        # Compute sSAPT0 energy, includes also SAPT0
--------------------------------------------------------------------------

  //              Dimer HF             //
    Molecular point group: c1
  Charge       = -1
  Multiplicity = 1
  Basis Set: JUN-CC-PVDZ
    Blend: JUN-CC-PVDZ
  Basis Set: (JUN-CC-PVDZ AUX)
    Blend: JUN-CC-PVDZ-JKFIT
  @DF-RHF Final Energy: -2478.65819767396260
    Total Energy =                      -2478.6581976739635138
 Dipole X            :         -0.0001972           -0.0000160           -0.0002132
 Dipole Y            :          0.0012612           -0.0001716            0.0010896
 Dipole Z            :         27.6568368          -36.7818266           -9.1249899
 Magnitude           :                                                    9.1249899
  //            Monomer A HF           //
    Molecular point group: c1
  Multiplicity = 1
  Basis Set: JUN-CC-PVDZ
    Blend: JUN-CC-PVDZ
  Basis Set: (JUN-CC-PVDZ AUX)
    Blend: JUN-CC-PVDZ-JKFIT
  @DF-RHF Final Energy:  -422.77162422051481
    Total Energy =                       -422.7716242205148092
  //            Monomer B HF           //
    Molecular point group: c1

    Geometry (in Angstrom), charge = 0, multiplicity = 1:

       Center              X                  Y                   Z               Mass
    ------------   -----------------  -----------------  -----------------  -----------------
      Gh(B)          -0.000046449334     0.000336519434     5.306878258914    11.009305360000
      Gh(F)          -1.153597449334     0.000047519434     6.122525258914    18.998403162730
      Gh(F)           1.153660550666    -0.000581480566     6.122525258914    18.998403162730
      Gh(F)          -0.000019449334    -1.153637480566     4.491244258914    18.998403162730
      Gh(F)          -0.000019449334     1.153977519434     4.491244258914    18.998403162730
         C            1.225311925931     0.707538180353    -0.686978113802    12.000000000000
         C            1.225323886559    -0.707539003137    -0.699308923373    12.000000000000
         C           -0.000006123424     1.414965805524    -0.699842546893    12.000000000000
         C            2.456448784457     1.418327778612    -0.684091256402    12.000000000000
         C            0.000010857787    -1.414976607201    -0.689642989569    12.000000000000
         C           -1.225300918401     0.707545265418    -0.684726593480    12.000000000000
         C            2.456437785828    -1.418323412447    -0.701554080229    12.000000000000
         C           -0.000001302470     2.836800922715    -0.702246097027    12.000000000000
         C            3.681826727978     0.709317847435    -0.701205290432    12.000000000000
         C            2.455120079373     2.834223552923    -0.701307847392    12.000000000000
         C            3.681821135726    -0.709333947995    -0.685132806413    12.000000000000
         C           -1.225313568180    -0.707527624110    -0.698236161946    12.000000000000
         C            1.226699611710     3.543469375428    -0.684948774482    12.000000000000
         C            0.000004815365    -2.836782247802    -0.684794821947    12.000000000000
         C           -2.456436002341     1.418316809719    -0.684691197634    12.000000000000
         C            2.455123448287    -2.834230137155    -0.685284714781    12.000000000000
         C           -1.226714334082     3.543468955184    -0.684845441263    12.000000000000
         C            4.914517325709     1.427172763923    -0.694724607402    12.000000000000
         C            3.693150221984     3.542795183979    -0.694674807766    12.000000000000
         C           -2.456437569560    -1.418313389406    -0.701579118354    12.000000000000
         C            1.226704872451    -3.543474350473    -0.700918905232    12.000000000000
         C           -2.455125368000     2.834216554068    -0.701301471046    12.000000000000
         C            4.914524411290    -1.427187018510    -0.691751864667    12.000000000000
         C            1.221424644206     4.970133956694    -0.691613430408    12.000000000000
         C            4.893008259828     2.825187891460    -0.693507939043    12.000000000000
         C           -1.226696977981    -3.543471105643    -0.700651700823    12.000000000000
         C           -3.681818946018     0.709324858166    -0.701192609952    12.000000000000
         C            3.693147131658    -3.542801449957    -0.691633974107    12.000000000000
         C           -1.221432221486     4.970128189296    -0.691429935035    12.000000000000
         C            6.134771003434     0.680547838539    -0.693954832852    12.000000000000
         C            3.656788911118     4.972953135001    -0.693766169983    12.000000000000
         C           -2.455126877226    -2.834215201627    -0.685529072579    12.000000000000
         C           -3.681819148553    -0.709325812035    -0.685015184834    12.000000000000
         C            4.893012648421    -2.825200214198    -0.692896787148    12.000000000000
         C           -0.000001042605     5.650447257466    -0.692661243742    12.000000000000
         C            6.134775142840    -0.680554962641    -0.692689512337    12.000000000000
         C            2.478131513363     5.653576642765    -0.692477390333    12.000000000000
         C            1.221422435245    -4.970127163499    -0.694412927430    12.000000000000
         C           -3.693162353457     3.542796845626    -0.694509300306    12.000000000000
         C           -1.221428490437    -4.970118412162    -0.694525689263    12.000000000000
         C           -4.914521777434     1.427175338429    -0.694647662395    12.000000000000
         C            3.656787050187    -4.972955334806    -0.692315669449    12.000000000000
         C           -2.478138499598     5.653574313962    -0.692192865325    12.000000000000
         C           -3.693141708056    -3.542790327545    -0.691750100262    12.000000000000
         C           -4.914512452545    -1.427181108594    -0.691717167494    12.000000000000
         C           -0.000005978418    -5.650438395580    -0.693056747863    12.000000000000
         C           -4.893020453593     2.825188490353    -0.693518020903    12.000000000000
         C            2.478126023806    -5.653573652455    -0.693406270241    12.000000000000
         C           -3.656798679750     4.972956073475    -0.693589489609    12.000000000000
         C           -4.892999448349    -2.825191875626    -0.693050822846    12.000000000000
         C           -2.478128467575    -5.653566278573    -0.693681457889    12.000000000000
         C           -6.134770472823     0.680548657690    -0.693980384555    12.000000000000
         C           -3.656788802681    -4.972944131537    -0.692529957266    12.000000000000
         C           -6.134765012405    -0.680554024048    -0.692709988132    12.000000000000
         H            5.835288526324     3.369275786388    -0.689148613381     1.007825032230
         H            7.073859203255     1.228217140333    -0.693493189459     1.007825032230
         H            4.600663294682     5.512380693887    -0.693260969231     1.007825032230
         H            5.835283417813    -3.369306165295    -0.697351254462     1.007825032230
         H           -0.000012120798     6.738530565570    -0.697010488750     1.007825032230
         H            7.073861202338    -1.228227051310    -0.693198250431     1.007825032230
         H            2.473313762307     6.740684182828    -0.692944111264     1.007825032230
         H            4.600668521889    -5.512376237742    -0.692725666618     1.007825032230
         H           -2.473318650030     6.740681611040    -0.692642764639     1.007825032230
         H           -0.000010237720    -6.738528285018    -0.688527062879     1.007825032230
         H           -5.835301883836     3.369270841730    -0.689012591232     1.007825032230
         H            2.473307954339    -6.740685482995    -0.692835939816     1.007825032230
         H           -4.600674810700     5.512377918037    -0.693095640908     1.007825032230
         H           -5.835279476327    -3.369289072346    -0.697630560343     1.007825032230
         H           -2.473300316932    -6.740679186706    -0.693285256361     1.007825032230
         H           -7.073857736260     1.228220364274    -0.693577180940     1.007825032230
         H           -4.600673755577    -5.512362778353    -0.692897974640     1.007825032230
         H           -7.073856903901    -1.228220740543    -0.693293106897     1.007825032230

  Charge       = 0
  Multiplicity = 1
  Basis Set: JUN-CC-PVDZ
    Blend: JUN-CC-PVDZ
  Basis Set: (JUN-CC-PVDZ AUX)
    Blend: JUN-CC-PVDZ-JKFIT

    Orbital Energies [Eh]
    ---------------------

    Doubly Occupied:

       1A    -11.260638     2A    -11.260201     3A    -11.260188
       4A    -11.259489     5A    -11.259481     6A    -11.259316
       7A    -11.259107     8A    -11.259031     9A    -11.259026
      10A    -11.258707    11A    -11.258701    12A    -11.258635
      13A    -11.258573    14A    -11.258569    15A    -11.258566
      16A    -11.258536    17A    -11.258532    18A    -11.258515
      19A    -11.258501    20A    -11.258496    21A    -11.258490
      22A    -11.258391    23A    -11.258383    24A    -11.258084
      25A    -11.257426    26A    -11.257364    27A    -11.257363
      28A    -11.257228    29A    -11.257228    30A    -11.257143
      31A    -11.256521    32A    -11.256450    33A    -11.256448
      34A    -11.256340    35A    -11.256339    36A    -11.256292
      37A    -11.252377    38A    -11.252377    39A    -11.252376
      40A    -11.252374    41A    -11.252373    42A    -11.252371
      43A    -11.251506    44A    -11.251504    45A    -11.251502
      46A    -11.251497    47A    -11.251495    48A    -11.251491
      49A    -11.250939    50A    -11.250938    51A    -11.250937
      52A    -11.250934    53A    -11.250934    54A    -11.250932
      55A     -1.244236    56A     -1.219975    57A     -1.219968
      58A     -1.189687    59A     -1.189678    60A     -1.181112
      61A     -1.157692    62A     -1.149120    63A     -1.135653
      64A     -1.135651    65A     -1.113325    66A     -1.113319
      67A     -1.082585    68A     -1.082581    69A     -1.078762
      70A     -1.066109    71A     -1.066105    72A     -1.039542
      73A     -1.024440    74A     -1.021935    75A     -1.021896
      76A     -1.017858    77A     -1.012920    78A     -0.987177
      79A     -0.987130    80A     -0.962014    81A     -0.961966
      82A     -0.894431    83A     -0.894406    84A     -0.888109
      85A     -0.886359    86A     -0.886297    87A     -0.881554
      88A     -0.881509    89A     -0.862038    90A     -0.837527
      91A     -0.818354    92A     -0.816780    93A     -0.812294
      94A     -0.812283    95A     -0.794821    96A     -0.794811
      97A     -0.746790    98A     -0.745018    99A     -0.733581
     100A     -0.733570   101A     -0.732318   102A     -0.732295
     103A     -0.716653   104A     -0.699112   105A     -0.699104
     106A     -0.693734   107A     -0.693720   108A     -0.661365
     109A     -0.653276   110A     -0.651325   111A     -0.650384
     112A     -0.650379   113A     -0.639495   114A     -0.639494
     115A     -0.629869   116A     -0.627681   117A     -0.627662
     118A     -0.606463   119A     -0.605913   120A     -0.601820
     121A     -0.599879   122A     -0.599852   123A     -0.593785
     124A     -0.591392   125A     -0.591388   126A     -0.585394
     127A     -0.576423   128A     -0.576394   129A     -0.567449
     130A     -0.567435   131A     -0.566116   132A     -0.566095
     133A     -0.558888   134A     -0.554985   135A     -0.554980
     136A     -0.538727   137A     -0.538724   138A     -0.538266
     139A     -0.538261   140A     -0.529859   141A     -0.528204
     142A     -0.523013   143A     -0.523007   144A     -0.500636
     145A     -0.495696   146A     -0.493372   147A     -0.487924
     148A     -0.485225   149A     -0.481906   150A     -0.481898
     151A     -0.470430   152A     -0.470392   153A     -0.451196
     154A     -0.451116   155A     -0.439166   156A     -0.439157
     157A     -0.404843   158A     -0.404819   159A     -0.403468
     160A     -0.375520   161A     -0.375518   162A     -0.349222
     163A     -0.337686   164A     -0.336660   165A     -0.336590
     166A     -0.311199   167A     -0.298190   168A     -0.284449
     169A     -0.284399   170A     -0.225023   171A     -0.224955

  @DF-RHF Final Energy: -2055.89200156251991

   => Energetics <=

    Nuclear Repulsion Energy =           6452.5568002797781446
    One-Electron Energy =              -15636.4388348802094697
    Two-Electron Energy =                7127.9900330379123261
    Total Energy =                      -2055.8920015625199085
 Dipole X            :          0.0000750            0.0000112            0.0000863
 Dipole Y            :          0.0000706           -0.0000531            0.0000174
 Dipole Z            :        447.9482723         -447.9526749           -0.0044027
 Magnitude           :                                                    0.0044035

    SAPT Results
  --------------------------------------------------------------------------------------------------------
    Electrostatics                  9.21810363 [mEh]       5.78444736 [kcal/mol]      24.20212774 [kJ/mol]
      Elst10,r                      9.21810363 [mEh]       5.78444736 [kcal/mol]      24.20212774 [kJ/mol]

    Exchange                        0.00173232 [mEh]       0.00108705 [kcal/mol]       0.00454822 [kJ/mol]
      Exch10                        0.00173232 [mEh]       0.00108705 [kcal/mol]       0.00454822 [kJ/mol]
      Exch10(S^2)                   0.00173235 [mEh]       0.00108706 [kcal/mol]       0.00454827 [kJ/mol]

    Induction                      -3.79172688 [mEh]      -2.37934454 [kcal/mol]      -9.95517755 [kJ/mol]
      Ind20,r                      -3.82767441 [mEh]      -2.40190195 [kcal/mol]     -10.04955777 [kJ/mol]
      Exch-Ind20,r                  0.00153364 [mEh]       0.00096237 [kcal/mol]       0.00402656 [kJ/mol]
      delta HF,r (2)                0.03441389 [mEh]       0.02159504 [kcal/mol]       0.09035366 [kJ/mol]

    Dispersion                     -0.87425770 [mEh]      -0.54860499 [kcal/mol]      -2.29536328 [kJ/mol]
      Disp20                       -0.87605460 [mEh]      -0.54973256 [kcal/mol]      -2.30008104 [kJ/mol]
      Exch-Disp20                   0.00179690 [mEh]       0.00112757 [kcal/mol]       0.00471776 [kJ/mol]
      Disp20 (SS)                  -0.43802730 [mEh]      -0.27486628 [kcal/mol]      -1.15004052 [kJ/mol]
      Disp20 (OS)                  -0.43802730 [mEh]      -0.27486628 [kcal/mol]      -1.15004052 [kJ/mol]
      Exch-Disp20 (SS)              0.00136894 [mEh]       0.00085902 [kcal/mol]       0.00359415 [kJ/mol]
      Exch-Disp20 (OS)              0.00042796 [mEh]       0.00026855 [kcal/mol]       0.00112361 [kJ/mol]

  Total HF                          5.42810907 [mEh]       3.40618987 [kcal/mol]      14.25149841 [kJ/mol]
  Total SAPT0                       4.55385137 [mEh]       2.85758488 [kcal/mol]      11.95613512 [kJ/mol]

  Special recipe for scaled SAPT0 (see Manual):
    Electrostatics sSAPT0           9.21810363 [mEh]       5.78444736 [kcal/mol]      24.20212774 [kJ/mol]
    Exchange sSAPT0                 0.00173232 [mEh]       0.00108705 [kcal/mol]       0.00454822 [kJ/mol]
    Induction sSAPT0               -3.79172688 [mEh]      -2.37934454 [kcal/mol]      -9.95517755 [kJ/mol]
    Dispersion sSAPT0              -0.87425770 [mEh]      -0.54860499 [kcal/mol]      -2.29536328 [kJ/mol]
  Total sSAPT0                      4.55385137 [mEh]       2.85758488 [kcal/mol]      11.95613512 [kJ/mol]
  --------------------------------------------------------------------------------------------------------

*** Psi4 exiting successfully. Buy a developer a beer!
