                               Psi4 1.9 release

  ==> Input File <==

--------------------------------------------------------------------------
memory 64 GB # how much memory is available ! Depends on the nodes/cores !

molecule dimer {
# monomer A
+1 1    # Charge and multiplicity
C  0.680067 1.417258 -6.415929
C -0.680504 1.419286 -6.415545
N -1.085635 1.420284 -5.097221
C  0.000108 1.423560 -4.315820
C -2.477365 1.469690 -4.629242
N  1.085222 1.420284 -5.097221
H  1.385146 1.409430 -7.233368
H -1.385302 1.419096 -7.233214
H -0.000009 1.425307 -3.234731
C  2.478117 1.403392 -4.632123
H  2.490592 1.430737 -3.541870
H  2.967028 0.489946 -4.979299
H  3.001428 2.278875 -5.023595
H -2.857359 2.491761 -4.709201
H -3.082679 0.799606 -5.242306
H -2.518128 1.142706 -3.589294
--
# monomer B
0 1     # Charge and multiplicity
C   -3.66844126402057      7.80375217008252      0.00190004133558
C   -4.84759871934653      7.13124183134024     -0.00046653359696
C   -4.89495929917518      5.69633040353158     -0.00103944469517
C   -3.65374067877320      4.98073034095895      0.00662099703436
C   -2.40942512149445      7.11398103667468      0.00209438359570
C   -2.42547734410473      5.68112195090346     -0.00491050527438
C   -1.19474401643570      7.78614419430947      0.00356656413763
C   0.03795902893699      7.09942164575698      0.00139585983271
C   0.03033258741920      5.66948955970466     -0.00408752508301
C   -1.20098450790502      4.96927034791531      0.00488220885047
C   1.27795782581485      7.77285944319479      0.00277170839332
C   2.48535808472416      7.08769688523756      0.00049722048857
C   2.48612868491717      5.65477081024076     -0.00644052849921
C   1.25408291964399      4.95607811366431      0.00518741308898
C   3.75171459140595      7.76391215098033      0.00062407186893
C   4.92356605618520      7.07878077698995     -0.00143240883900
C   4.95560727132542      5.64344746336949     -0.00159282164606
C   3.70680153420475      4.94121020833308      0.00349873852374
H   -3.65852113775815      8.89082741913536      0.00358502958574
H   -1.18921332975660      8.87412108735996      0.00753844057883
H   1.28429423888630      8.86083343548850      0.00693053253426
H   3.75354208679975      8.85103527897216      0.00214659618464
H   5.86995870320703      7.61379483465560     -0.00235777588134
H   -5.78823170750226      7.67630221293400     -0.00202638095293
C   -6.09197395869619      4.99326001364347     -0.00291168518608
C   -6.12866148031747      3.58258016879823     -0.00171050815740
C   -3.66457974004527      3.56418217974434     -0.00463560277484
C   -4.89429820469869      2.86108077590057      0.00453338221034
C   -2.43733499489796      2.84761165708481      0.00719617576166
C   -1.20922785759670      3.54788693497833     -0.00648285103018
C   1.24714157216223      3.53468075142962     -0.00729145743546
C   0.01517603956900      2.83311183930540      0.00439272578912
C   2.46764517244071      2.82128997725533      0.00449278391269
C   3.70254947457969      3.52466015442405     -0.00899517692985
C   6.14498038638375      4.92757236613191     -0.00282626685777
C   6.16658835886151      3.51658447594213     -0.00065971342101
C   4.92460995845939      2.80840792535402      0.00587903281610
H   7.08990550964105      5.46688776622306     -0.00658814770723
H   -7.03104175110130      5.54268795285765     -0.00714490013730
C   -7.33969804112295      2.85841153457957     -0.00333767559888
C   -7.36488195805880      1.47032337158330     -0.00157213747140
C   -4.90350460894690      1.44442681216000     -0.00628840166334
C   -6.13225715261081      0.73993935705394      0.00600164231964
C   -3.67687480051673      0.72669714267312      0.00433931473643
C   -2.44565658606518      1.42964113326212     -0.00597039546461
C   -1.22360068130162      0.71532450163492      0.00545886906656
C   0.00763786931376      1.41738314923765      0.00392452278437
C   1.23121980774686      0.70211669058719     -0.01490206287210
C   2.46082110053113      1.40329203612573      0.00460244601878
C   3.68443025419614      0.68719842821222      0.00377365974158
C   4.91870890153864      1.39173456118907     -0.00862816189375
C   7.36980207796101      2.77948220318441     -0.00242013321349
C   7.38016266612146      1.39121750785509     -0.00087345036788
C   6.13979953912259      0.67411862320065      0.00545489144369
H   -8.27919079934664      3.40711804112415     -0.00763522772059
H   8.31511347147953      3.31811809662368     -0.00663070901292
C   -8.59175593758115      0.72483255304480     -0.00123170985383
C   -8.59902460370342     -0.63263980622873      0.00089141472904
C   -6.13981313911873     -0.67413663715361     -0.00609792660607
C   -7.38018411213749     -1.39126618958160      0.00131813493501
C   -4.91868448025621     -1.39175501803000      0.00624257154343
C   -3.68443829568458     -0.68723731573599     -0.00478966852105
C   -2.46081704024768     -1.40334517882457      0.00575341766833
C   -1.23116201232071     -0.70217386488055     -0.00636696112346
C   -0.00756962538737     -1.41741884941102      0.00108956317991
C   1.22364771588843     -0.71527537726392      0.01109518512883
C   2.44567064933149     -1.42964328900682     -0.00065482763106
C   3.67686670284649     -0.72670743155550     -0.00479541202602
C   6.13224884641929     -0.73997883984993     -0.00632338623858
C   4.90351914550401     -1.44445752054090      0.00751768830159
C   8.59901484869081      0.63260386666793     -0.00101133422380
C   8.59174548810050     -0.72485086719319      0.00072504603735
C   7.36486276438985     -1.47033266560598      0.00049486934466
H   -9.52830597181814      1.27684744919284     -0.00270163681798
H   9.54141097460619      1.17457248844457     -0.00206336648518
C   -7.36983790976868     -2.77954514593389      0.00312634335708
C   -4.92459910905015     -2.80843725734101     -0.00460528907921
C   -6.16662249566744     -3.51665219282533      0.00169655107992
C   -3.70251035970491     -3.52468154912026      0.00571878010666
C   -2.46764698511392     -2.82132596280400     -0.00632585824990
C   -0.01513347410770     -2.83314164539971     -0.00604426974092
C   -1.24712184122656     -3.53473217556300      0.00551968366725
C   1.20924506964357     -3.54791467864352      0.00805871345849
C   2.43733602215464     -2.84764173817541     -0.00608104485234
C   4.89430234377080     -2.86112296828604     -0.00526030478103
C   3.66461525504104     -3.56421984553201      0.00761911515957
C   6.12863901474565     -3.58258405771778      0.00096495711699
C   7.33967266469532     -2.85841330737039      0.00248018319869
H   -9.54144911125902     -1.17456346666430      0.00226083090216
H   9.52826186807155     -1.27691907390448      0.00197485379837
H   -8.31516504384864     -3.31814985321231      0.00729857188773
H   8.27915514249207     -3.40714078989363      0.00681973918158
C   -6.14499418870218     -4.92764727278338      0.00302254913999
C   -3.70678334799751     -4.94126171411716     -0.00679841894792
C   -4.95559005800169     -5.64349397349412      0.00116871569699
C   -2.48612132622665     -5.65478557440947      0.00614125209662
C   -1.25405833548005     -4.95612205000132     -0.00503435388927
C   1.20101257386816     -4.96928038819302     -0.00385322963129
C   -0.03033667441341     -5.66952030313900      0.00398997003238
C   3.65375010132847     -4.98074377541453     -0.00309522988330
C   2.42549269587528     -5.68117463552727      0.00628170066869
C   6.09196561781097     -4.99325796338655      0.00325918379042
C   4.89497644461045     -5.69634842095790      0.00202298796027
H   -7.08989238804069     -5.46699984223871      0.00742531082125
H   7.03105520920009     -5.54265853633254      0.00683896355417
C   -4.92354532219813     -7.07882109967734      0.00061394679214
C   -2.48534208823777     -7.08772807792913     -0.00189594564379
C   -3.75168589177895     -7.76394715763627     -0.00170126671874
C   -0.03794895698805     -7.09946487446944     -0.00168022049625
C   -1.27795610040136     -7.77290438466689     -0.00366491325785
C   2.40944432072629     -7.11402201200282     -0.00081701968533
C   1.19474993715296     -7.78618536556242     -0.00296931056689
C   4.84762105249800     -7.13126211057943      0.00168979497423
C   3.66847160587561     -7.80378799294376     -0.00065863938960
H   -5.86994035041618     -7.61383059804164      0.00215798365757
H   5.78824962538815     -7.67633218931421      0.00281691445618
H   -3.75352693944918     -8.85107156923607     -0.00353718114765
H   -1.28430440589466     -8.86087539249706     -0.00809229711623
H   1.18922157469537     -8.87416062058945     -0.00706194725726
H   3.65854661482387     -8.89086063405326     -0.00231318081200

    units angstrom      # Angstroms are the default
    no_reorient         # Geometry fixed, default
    symmetry c1         # C1 symmetry, default
}

set {
    scf_type DF         # Density fitting, faster than exact integrals
    freeze_core True    # Freeze core electrons
    basis jun-cc-pVDZ   # Jun-cc-pVDZ basis set, recommended for sSAPT0 in https://doi.org/10.1063/1.4867135
}

energy('ssapt0')        # Compute sSAPT0 energy, includes also SAPT0
--------------------------------------------------------------------------

  //              Dimer HF             //
    Molecular point group: c1
  Charge       = 1
  Multiplicity = 1
  Basis Set: JUN-CC-PVDZ
    Blend: JUN-CC-PVDZ
  Basis Set: (JUN-CC-PVDZ AUX)
    Blend: JUN-CC-PVDZ-JKFIT
  @DF-RHF Final Energy: -3953.65803904234508
    Total Energy =                      -3953.6580390423441713
 Dipole X            :         -0.0032442            0.0004804           -0.0027638
 Dipole Y            :         -7.1433594            8.7122315            1.5688721
 Dipole Z            :         22.5719088          -29.6944628           -7.1225540
 Magnitude           :                                                    7.2932943
  //            Monomer A HF           //
    Molecular point group: c1
  Multiplicity = 1
  Basis Set: JUN-CC-PVDZ
    Blend: JUN-CC-PVDZ
  Basis Set: (JUN-CC-PVDZ AUX)
    Blend: JUN-CC-PVDZ-JKFIT
  @DF-RHF Final Energy:  -303.29776822275574
    Total Energy =                       -303.2977682227557352
  //            Monomer B HF           //
    Molecular point group: c1

    Geometry (in Angstrom), charge = 0, multiplicity = 1:

       Center              X                  Y                   Z               Mass
    ------------   -----------------  -----------------  -----------------  -----------------
      Gh(C)           0.680062820275     1.308604348936    -6.019474944747    12.000000000000
      Gh(C)          -0.680508179725     1.310632348936    -6.019090944747    12.000000000000
      Gh(N)          -1.085639179725     1.311630348936    -4.700766944747    14.003074004430
      Gh(C)           0.000103820275     1.314906348936    -3.919365944747    12.000000000000
      Gh(C)          -2.477369179725     1.361036348936    -4.232787944747    12.000000000000
      Gh(N)           1.085217820275     1.311630348936    -4.700766944747    14.003074004430
      Gh(H)           1.385141820275     1.300776348936    -6.836913944747     1.007825032230
      Gh(H)          -1.385306179725     1.310442348936    -6.836759944747     1.007825032230
      Gh(H)          -0.000013179725     1.316653348936    -2.838276944747     1.007825032230
      Gh(C)           2.478112820275     1.294738348936    -4.235668944747    12.000000000000
      Gh(H)           2.490587820275     1.322083348936    -3.145415944747     1.007825032230
      Gh(H)           2.967023820275     0.381292348936    -4.582844944747     1.007825032230
      Gh(H)           3.001423820275     2.170221348936    -4.627140944747     1.007825032230
      Gh(H)          -2.857363179725     2.383107348936    -4.312746944747     1.007825032230
      Gh(H)          -3.082683179725     0.690952348936    -4.845851944747     1.007825032230
      Gh(H)          -2.518132179725     1.034052348936    -3.192839944747     1.007825032230
         C           -3.668445443746     7.695098519018     0.398354096588    12.000000000000
         C           -4.847602899072     7.022588180276     0.395987521656    12.000000000000
         C           -4.894963478901     5.587676752467     0.395414610558    12.000000000000
         C           -3.653744858499     4.872076689895     0.403075052287    12.000000000000
         C           -2.409429301220     7.005327385610     0.398548438848    12.000000000000
         C           -2.425481523830     5.572468299839     0.391543549978    12.000000000000
         C           -1.194748196161     7.677490543245     0.400020619390    12.000000000000
         C            0.037954849212     6.990767994693     0.397849915085    12.000000000000
         C            0.030328407694     5.560835908640     0.392366530170    12.000000000000
         C           -1.200988687630     4.860616696851     0.401336264103    12.000000000000
         C            1.277953646089     7.664205792130     0.399225763646    12.000000000000
         C            2.485353904999     6.979043234173     0.396951275741    12.000000000000
         C            2.486124505192     5.546117159176     0.390013526753    12.000000000000
         C            1.254078739919     4.847424462600     0.401641468342    12.000000000000
         C            3.751710411681     7.655258499916     0.397078127122    12.000000000000
         C            4.923561876460     6.970127125926     0.395021646414    12.000000000000
         C            4.955603091600     5.534793812305     0.394861233607    12.000000000000
         C            3.706797354479     4.832556557269     0.399952793776    12.000000000000
         H           -3.658525317484     8.782173768071     0.400039084838     1.007825032230
         H           -1.189217509482     8.765467436296     0.403992495832     1.007825032230
         H            1.284290059161     8.752179784424     0.403384587787     1.007825032230
         H            3.753537907074     8.742381627908     0.398600651437     1.007825032230
         H            5.869954523482     7.505141183591     0.394096279371     1.007825032230
         H           -5.788235887228     7.567648561870     0.394427674300     1.007825032230
         C           -6.091978138422     4.884606362579     0.393542370067    12.000000000000
         C           -6.128665660043     3.473926517734     0.394743547095    12.000000000000
         C           -3.664583919771     3.455528528680     0.391818452478    12.000000000000
         C           -4.894302384424     2.752427124836     0.400987437463    12.000000000000
         C           -2.437339174623     2.738958006020     0.403650231014    12.000000000000
         C           -1.209232037322     3.439233283914     0.389971204223    12.000000000000
         C            1.247137392437     3.426027100365     0.389162597817    12.000000000000
         C            0.015171859844     2.724458188241     0.400846781042    12.000000000000
         C            2.467640992715     2.712636326191     0.400946839165    12.000000000000
         C            3.702545294854     3.416006503360     0.387458878323    12.000000000000
         C            6.144976206658     4.818918715067     0.393627788395    12.000000000000
         C            6.166584179136     3.407930824878     0.395794341832    12.000000000000
         C            4.924605778734     2.699754274290     0.402333088069    12.000000000000
         H            7.089901329916     5.358234115159     0.389865907545     1.007825032230
         H           -7.031045930827     5.434034301793     0.389309155115     1.007825032230
         C           -7.339702220848     2.749757883515     0.393116379654    12.000000000000
         C           -7.364886137784     1.361669720519     0.394881917781    12.000000000000
         C           -4.903508788672     1.335773161096     0.390165653589    12.000000000000
         C           -6.132261332336     0.631285705989     0.402455697572    12.000000000000
         C           -3.676878980242     0.618043491609     0.400793369989    12.000000000000
         C           -2.445660765791     1.320987482198     0.390483659788    12.000000000000
         C           -1.223604861027     0.606670850570     0.401912924319    12.000000000000
         C            0.007633689588     1.308729498173     0.400378578037    12.000000000000
         C            1.231215628021     0.593463039523     0.381551992381    12.000000000000
         C            2.460816920806     1.294638385061     0.401056501271    12.000000000000
         C            3.684426074471     0.578544777148     0.400227714994    12.000000000000
         C            4.918704721813     1.283080910125     0.387825893359    12.000000000000
         C            7.369797898236     2.670828552120     0.394033922039    12.000000000000
         C            7.380158486396     1.282563856791     0.395580604885    12.000000000000
         C            6.139795359397     0.565464972136     0.401908946696    12.000000000000
         H           -8.279194979072     3.298464390060     0.388818827532     1.007825032230
         H            8.315109291754     3.209464445559     0.389823346240     1.007825032230
         C           -8.591760117307     0.616178901980     0.395222345399    12.000000000000
         C           -8.599028783429    -0.741293457293     0.397345469982    12.000000000000
         C           -6.139817318844    -0.782790288218     0.390356128647    12.000000000000
         C           -7.380188291863    -1.499919840646     0.397772190188    12.000000000000
         C           -4.918688659982    -1.500408669094     0.402696626796    12.000000000000
         C           -3.684442475410    -0.795890966800     0.391664386732    12.000000000000
         C           -2.460821219973    -1.511998829889     0.402207472921    12.000000000000
         C           -1.231166192046    -0.810827515945     0.390087094129    12.000000000000
         C           -0.007573805113    -1.526072500475     0.397543618433    12.000000000000
         C            1.223643536163    -0.823929028328     0.407549240382    12.000000000000
         C            2.445666469606    -1.538296940071     0.395799227622    12.000000000000
         C            3.676862523121    -0.835361082620     0.391658643227    12.000000000000
         C            6.132244666694    -0.848632490914     0.390130669014    12.000000000000
         C            4.903514965779    -1.553111171605     0.403971743554    12.000000000000
         C            8.599010668965     0.523950215603     0.395442721029    12.000000000000
         C            8.591741308375    -0.833504518258     0.397179101290    12.000000000000
         C            7.364858584664    -1.578986316670     0.396948924597    12.000000000000
         H           -9.528310151544     1.168193798128     0.393752418435     1.007825032230
         H            9.541406794881     1.065918837380     0.394390688768     1.007825032230
         C           -7.369842089494    -2.888198796998     0.399580398610    12.000000000000
         C           -4.924603288776    -2.917090908405     0.391848766173    12.000000000000
         C           -6.166626675393    -3.625305843890     0.398150606333    12.000000000000
         C           -3.702514539430    -3.633335200185     0.402172835359    12.000000000000
         C           -2.467651164839    -2.929979613868     0.390128197003    12.000000000000
         C           -0.015137653833    -2.941795296464     0.390409785512    12.000000000000
         C           -1.247126020952    -3.643385826627     0.401973738920    12.000000000000
         C            1.209240889918    -3.656568329708     0.404512768711    12.000000000000
         C            2.437331842429    -2.956295389240     0.390373010400    12.000000000000
         C            4.894298164045    -2.969776619350     0.391193750472    12.000000000000
         C            3.664611075316    -3.672873496596     0.404073170412    12.000000000000
         C            6.128634835020    -3.691237708782     0.397419012370    12.000000000000
         C            7.339668484970    -2.967066958435     0.398934238451    12.000000000000
         H           -9.541453290984    -1.283217117729     0.398714886155     1.007825032230
         H            9.528257688346    -1.385572724969     0.398428909051     1.007825032230
         H           -8.315169223574    -3.426803504277     0.403752627140     1.007825032230
         H            8.279150962767    -3.515794440958     0.403273794434     1.007825032230
         C           -6.144998368428    -5.036300923848     0.399476604393    12.000000000000
         C           -3.706787527723    -5.049915365182     0.389655636305    12.000000000000
         C           -4.955594237727    -5.752147624559     0.397622770950    12.000000000000
         C           -2.486125505952    -5.763439225474     0.402595307349    12.000000000000
         C           -1.254062515205    -5.064775701066     0.391419701363    12.000000000000
         C            1.201008394143    -5.077934039257     0.392600825621    12.000000000000
         C           -0.030340854139    -5.778173954203     0.400444025285    12.000000000000
         C            3.653745921603    -5.089397426479     0.393358825369    12.000000000000
         C            2.425488516150    -5.789828286592     0.402735755921    12.000000000000
         C            6.091961438086    -5.101911614451     0.399713239043    12.000000000000
         C            4.894972264885    -5.805002072022     0.398477043213    12.000000000000
         H           -7.089896567766    -5.575653493303     0.403879366074     1.007825032230
         H            7.031051029475    -5.651312187397     0.403293018807     1.007825032230
         C           -4.923549501924    -7.187474750742     0.397068002045    12.000000000000
         C           -2.485346267963    -7.196381728994     0.394558109609    12.000000000000
         C           -3.751690071504    -7.872600808701     0.394752788534    12.000000000000
         C           -0.037953136713    -7.208118525534     0.394773834756    12.000000000000
         C           -1.277960280127    -7.881558035731     0.392789141995    12.000000000000
         C            2.409440141001    -7.222675663067     0.395637035567    12.000000000000
         C            1.194745757428    -7.894839016627     0.393484744686    12.000000000000
         C            4.847616872773    -7.239915761644     0.398143850227    12.000000000000
         C            3.668467426150    -7.912441644008     0.395795415863    12.000000000000
         H           -5.869944530142    -7.722484249106     0.398612038910     1.007825032230
         H            5.788245445663    -7.784985840379     0.399270969709     1.007825032230
         H           -3.753531119175    -8.959725220301     0.392916874105     1.007825032230
         H           -1.284308585620    -8.969529043562     0.388361758136     1.007825032230
         H            1.189217394970    -8.982814271654     0.389392107995     1.007825032230
         H            3.658542435098    -8.999514285118     0.394140874441     1.007825032230

  Charge       = 0
  Multiplicity = 1
  Basis Set: JUN-CC-PVDZ
    Blend: JUN-CC-PVDZ
  Basis Set: (JUN-CC-PVDZ AUX)
    Blend: JUN-CC-PVDZ-JKFIT

    Orbital Energies [Eh]
    ---------------------

    Doubly Occupied:

       1A    -11.264016     2A    -11.263684     3A    -11.263668
       4A    -11.263339     5A    -11.263312     6A    -11.263275
       7A    -11.263117     8A    -11.263095     9A    -11.263092
      10A    -11.262914    11A    -11.262765    12A    -11.262761
      13A    -11.262281    14A    -11.262276    15A    -11.262214
      16A    -11.262200    17A    -11.262139    18A    -11.262114
      19A    -11.262077    20A    -11.262032    21A    -11.262025
      22A    -11.261896    23A    -11.261877    24A    -11.261752
      25A    -11.261742    26A    -11.261720    27A    -11.261715
      28A    -11.261674    29A    -11.261662    30A    -11.261584
      31A    -11.261558    32A    -11.261557    33A    -11.261531
      34A    -11.261530    35A    -11.261511    36A    -11.261486
      37A    -11.261331    38A    -11.261323    39A    -11.261309
      40A    -11.261302    41A    -11.261293    42A    -11.261289
      43A    -11.261280    44A    -11.261267    45A    -11.261264
      46A    -11.261246    47A    -11.261232    48A    -11.261226
      49A    -11.261072    50A    -11.261044    51A    -11.261041
      52A    -11.260970    53A    -11.260964    54A    -11.260893
      55A    -11.259924    56A    -11.259899    57A    -11.259892
      58A    -11.259871    59A    -11.259858    60A    -11.259841
      61A    -11.259295    62A    -11.259264    63A    -11.259261
      64A    -11.259212    65A    -11.259207    66A    -11.259176
      67A    -11.258925    68A    -11.258899    69A    -11.258891
      70A    -11.258871    71A    -11.258859    72A    -11.258845
      73A    -11.254527    74A    -11.254523    75A    -11.254512
      76A    -11.254508    77A    -11.254504    78A    -11.254501
      79A    -11.253663    80A    -11.253651    81A    -11.253648
      82A    -11.253637    83A    -11.253633    84A    -11.253625
      85A    -11.253579    86A    -11.253565    87A    -11.253562
      88A    -11.253552    89A    -11.253548    90A    -11.253540
      91A    -11.253055    92A    -11.253051    93A    -11.253040
      94A    -11.253037    95A    -11.253031    96A    -11.253029
      97A     -1.253931    98A     -1.238992    99A     -1.238966
     100A     -1.220450   101A     -1.220438   102A     -1.215428
     103A     -1.201024   104A     -1.195587   105A     -1.188138
     106A     -1.188115   107A     -1.173747   108A     -1.173746
     109A     -1.155613   110A     -1.155606   111A     -1.152702
     112A     -1.144706   113A     -1.144703   114A     -1.128549
     115A     -1.114698   116A     -1.113147   117A     -1.112477
     118A     -1.112445   119A     -1.111602   120A     -1.088412
     121A     -1.088398   122A     -1.076946   123A     -1.076944
     124A     -1.067598   125A     -1.067567   126A     -1.064954
     127A     -1.046784   128A     -1.046774   129A     -1.040462
     130A     -1.038720   131A     -1.038717   132A     -1.025223
     133A     -1.021375   134A     -1.021309   135A     -1.007161
     136A     -1.006787   137A     -1.003777   138A     -1.000474
     139A     -1.000421   140A     -0.991060   141A     -0.970972
     142A     -0.970920   143A     -0.955868   144A     -0.955810
     145A     -0.905568   146A     -0.905539   147A     -0.905526
     148A     -0.905492   149A     -0.904311   150A     -0.892344
     151A     -0.892284   152A     -0.890341   153A     -0.890288
     154A     -0.889430   155A     -0.872201   156A     -0.869042
     157A     -0.851520   158A     -0.847840   159A     -0.847827
     160A     -0.845575   161A     -0.842993   162A     -0.834541
     163A     -0.834532   164A     -0.828103   165A     -0.828095
     166A     -0.784532   167A     -0.784523   168A     -0.783641
     169A     -0.783623   170A     -0.782269   171A     -0.782245
     172A     -0.782008   173A     -0.766965   174A     -0.760769
     175A     -0.750554   176A     -0.733468   177A     -0.727055
     178A     -0.727025   179A     -0.725059   180A     -0.724520
     181A     -0.724492   182A     -0.718472   183A     -0.713750
     184A     -0.713744   185A     -0.699560   186A     -0.699538
     187A     -0.686104   188A     -0.685936   189A     -0.685928
     190A     -0.682147   191A     -0.682139   192A     -0.678760
     193A     -0.653608   194A     -0.650853   195A     -0.650819
     196A     -0.649788   197A     -0.649779   198A     -0.649543
     199A     -0.640916   200A     -0.640873   201A     -0.640061
     202A     -0.639137   203A     -0.636002   204A     -0.635969
     205A     -0.629115   206A     -0.617761   207A     -0.615283
     208A     -0.615258   209A     -0.608776   210A     -0.608770
     211A     -0.599147   212A     -0.599127   213A     -0.598721
     214A     -0.598573   215A     -0.598562   216A     -0.598018
     217A     -0.595043   218A     -0.595031   219A     -0.594699
     220A     -0.594206   221A     -0.591932   222A     -0.591928
     223A     -0.587365   224A     -0.577777   225A     -0.577762
     226A     -0.575690   227A     -0.575689   228A     -0.573353
     229A     -0.569558   230A     -0.568121   231A     -0.568095
     232A     -0.566727   233A     -0.566720   234A     -0.560893
     235A     -0.558700   236A     -0.558664   237A     -0.558406
     238A     -0.554342   239A     -0.550559   240A     -0.547453
     241A     -0.544272   242A     -0.534992   243A     -0.534981
     244A     -0.533513   245A     -0.533495   246A     -0.528054
     247A     -0.528037   248A     -0.527766   249A     -0.517144
     250A     -0.517114   251A     -0.515344   252A     -0.515342
     253A     -0.509615   254A     -0.509603   255A     -0.497997
     256A     -0.496427   257A     -0.496391   258A     -0.493780
     259A     -0.493762   260A     -0.489411   261A     -0.481425
     262A     -0.477402   263A     -0.477401   264A     -0.473966
     265A     -0.469406   266A     -0.466492   267A     -0.466491
     268A     -0.458792   269A     -0.446653   270A     -0.446598
     271A     -0.441021   272A     -0.440744   273A     -0.440728
     274A     -0.434669   275A     -0.433886   276A     -0.407358
     277A     -0.407334   278A     -0.386386   279A     -0.386345
     280A     -0.385709   281A     -0.385709   282A     -0.383723
     283A     -0.354304   284A     -0.354280   285A     -0.350638
     286A     -0.338085   287A     -0.335571   288A     -0.335485
     289A     -0.332688   290A     -0.332686   291A     -0.307050
     292A     -0.301927   293A     -0.301857   294A     -0.300817
     295A     -0.286148   296A     -0.256447   297A     -0.253470
     298A     -0.253416   299A     -0.204237   300A     -0.204146

  @DF-RHF Final Energy: -3650.34023309168379

   => Energetics <=

    Nuclear Repulsion Energy =          15611.4211649754306563
    One-Electron Energy =              -36072.1561677504068939
    Two-Electron Energy =               16810.3947696832947258
    Total Energy =                      -3650.3402330916833307
 Dipole X            :         -0.0005765            0.0002112           -0.0003653
 Dipole Y            :        123.2178621         -123.2131634            0.0046987
 Dipole Z            :       -449.5094966          449.5171434            0.0076467
 Magnitude           :                                                    0.0089824

    SAPT Results
  --------------------------------------------------------------------------------------------------------
    Electrostatics                -11.30006980 [mEh]      -7.09090086 [kcal/mol]     -29.66832918 [kJ/mol]
      Elst10,r                    -11.30006980 [mEh]      -7.09090086 [kcal/mol]     -29.66832918 [kJ/mol]

    Exchange                        0.81458595 [mEh]       0.51116040 [kcal/mol]       2.13869511 [kJ/mol]
      Exch10                        0.81458595 [mEh]       0.51116040 [kcal/mol]       2.13869511 [kJ/mol]
      Exch10(S^2)                   0.81434878 [mEh]       0.51101158 [kcal/mol]       2.13807243 [kJ/mol]

    Induction                      -9.55224405 [mEh]      -5.99412364 [kcal/mol]     -25.07941330 [kJ/mol]
      Ind20,r                      -9.14509118 [mEh]      -5.73863136 [kcal/mol]     -24.01043360 [kJ/mol]
      Exch-Ind20,r                  0.17283820 [mEh]       0.10845761 [kcal/mol]       0.45378664 [kJ/mol]
      delta HF,r (2)               -0.57999107 [mEh]      -0.36394989 [kcal/mol]      -1.52276634 [kJ/mol]

    Dispersion                     -8.31288172 [mEh]      -5.21641204 [kcal/mol]     -21.82546796 [kJ/mol]
      Disp20                       -8.40456631 [mEh]      -5.27394498 [kcal/mol]     -22.06618580 [kJ/mol]
      Exch-Disp20                   0.09168458 [mEh]       0.05753295 [kcal/mol]       0.24071784 [kJ/mol]
      Disp20 (SS)                  -4.20228315 [mEh]      -2.63697249 [kcal/mol]     -11.03309290 [kJ/mol]
      Disp20 (OS)                  -4.20228315 [mEh]      -2.63697249 [kcal/mol]     -11.03309290 [kJ/mol]
      Exch-Disp20 (SS)              0.05989647 [mEh]       0.03758560 [kcal/mol]       0.15725817 [kJ/mol]
      Exch-Disp20 (OS)              0.03178811 [mEh]       0.01994734 [kcal/mol]       0.08345967 [kJ/mol]

  Total HF                        -20.03772791 [mEh]     -12.57386409 [kcal/mol]     -52.60904737 [kJ/mol]
  Total SAPT0                     -28.35060963 [mEh]     -17.79027613 [kcal/mol]     -74.43451533 [kJ/mol]

  Special recipe for scaled SAPT0 (see Manual):
    Electrostatics sSAPT0         -11.30006980 [mEh]      -7.09090086 [kcal/mol]     -29.66832918 [kJ/mol]
    Exchange sSAPT0                 0.81458595 [mEh]       0.51116040 [kcal/mol]       2.13869511 [kJ/mol]
    Induction sSAPT0               -9.55209300 [mEh]      -5.99402885 [kcal/mol]     -25.07901671 [kJ/mol]
    Dispersion sSAPT0              -8.31280160 [mEh]      -5.21636176 [kcal/mol]     -21.82525758 [kJ/mol]
  Total sSAPT0                    -28.35037845 [mEh]     -17.79013106 [kcal/mol]     -74.43390836 [kJ/mol]
  --------------------------------------------------------------------------------------------------------

*** Psi4 exiting successfully. Buy a developer a beer!
