                               Psi4 1.9 release

  ==> Input File <==

--------------------------------------------------------------------------
memory 32 GB # how much memory is available ! Depends on the nodes/cores !

molecule dimer {
# monomer A
+1 1    # Charge and multiplicity
C  0.680067 1.417258 -8.415929
C -0.680504 1.419286 -8.415545
N -1.085635 1.420284 -7.097221
C  0.000108 1.423560 -6.315820
C -2.477365 1.469690 -6.629242
N  1.085222 1.420284 -7.097221
H  1.385146 1.409430 -9.233368
H -1.385302 1.419096 -9.233214
H -0.000009 1.425307 -5.234731
C  2.478117 1.403392 -6.632123
H  2.490592 1.430737 -5.541870
H  2.967028 0.489946 -6.979299
H  3.001428 2.278875 -7.023595
H -2.857359 2.491761 -6.709201
H -3.082679 0.799606 -7.242306
H -2.518128 1.142706 -5.589294
--
# monomer B
0 1     # Charge and multiplicity
C   1.22531237526482      0.70753866091955      0.00613762728373
C   1.22532433589282     -0.70753852257020     -0.00619318228664
C   -0.00000567409046      1.41496628609039     -0.00672680580738
C   2.45644923379077      1.41832825917820      0.00902448468363
C   0.00001130712078     -1.41497612663474      0.00347275151708
C   -1.22530046906674      0.70754574598412      0.00838914760619
C   2.45643823516184     -1.41832293188077     -0.00843833914343
C   -0.00000085313587      2.83680140328112     -0.00913035594137
C   3.68182717731192      0.70931832800114     -0.00808954934571
C   2.45512052870677      2.83422403348893     -0.00819210630633
C   3.68182158506039     -0.70933346742900      0.00798293467272
C   -1.22531311884624     -0.70752714354401     -0.00512042085974
C   1.22670006104402      3.54346985599427      0.00816696660346
C   0.00000526469929     -2.83678176723568      0.00832091913869
C   -2.45643555300670      1.41831729028492      0.00842454345199
C   2.45512389762097     -2.83422965658853      0.00783102630520
C   -1.22671388474763      3.54346943575023      0.00827029982280
C   4.91451777504333      1.42717324448953     -0.00160886631602
C   3.69315067131765      3.54279566454522     -0.00155906667985
C   -2.45643712022637     -1.41831290883911     -0.00846337726810
C   1.22670532178455     -3.54347386990643     -0.00780316414624
C   -2.45512491866593      2.83421703463423     -0.00818572995999
C   4.91452486062398     -1.42718653794377      0.00136387641845
C   1.22142509354026      4.97013443726031      0.00150231067809
C   4.89300870916237      2.82518837202648     -0.00039219795739
C   -1.22669652864725     -3.54347062507680     -0.00753595973677
C   -3.68181849668397      0.70932533873199     -0.00807686886569
C   3.69314758099218     -3.54280096939050      0.00148176697923
C   -1.22143177215231      4.97012866986289      0.00168580605083
C   6.13477145276790      0.68054831910577     -0.00083909176631
C   3.65678936045204      4.97295361556775     -0.00065042889723
C   -2.45512642789169     -2.83421472106065      0.00758666850712
C   -3.68181869921921     -0.70932533146830      0.00810055625144
C   4.89301309775526     -2.82519973363176      0.00021895393805
C   -0.00000059327114      5.65044773803267      0.00045449734393
C   6.13477559217374     -0.68055448207492      0.00042622874941
C   2.47813196269732      5.65357712333155      0.00063835075260
C   1.22142288457925     -4.97012668293268     -0.00129718634452
C   -3.69316190412301      3.54279732619245     -0.00139355922051
C   -1.22142804110313     -4.97011793159564     -0.00140994817719
C   -4.91452132810043      1.42717581899491     -0.00153192130862
C   3.65678749952045     -4.97295485423912      0.00080007163680
C   -2.47813805026426      5.65357479452875      0.00092287576113
C   -3.69314125872231     -3.54278984697859      0.00136564082345
C   -4.91451200321153     -1.42718062802730      0.00139857359209
C   -0.00000552908399     -5.65043791501335      0.00005899322272
C   -4.89302000425900      2.82518897091939     -0.00040227981744
C   2.47812647313991     -5.65357317188818     -0.00029052915548
C   -3.65679823041642      4.97295655404175     -0.00047374852278
C   -4.89299899901461     -2.82519139505969      0.00006491824035
C   -2.47812801824129     -5.65356579800621     -0.00056571680280
C   -6.13477002348955      0.68054913825639     -0.00086464346868
C   -3.65678835334731     -4.97294365097028      0.00058578382008
C   -6.13476456307132     -0.68055354348201      0.00040575295444
H   5.83528897565761      3.36927626695423      0.00396712770529
H   7.07385965258860      1.22821762089947     -0.00037744837300
H   4.60066374401555      5.51238117445323     -0.00014522814529
H   5.83528386714679     -3.36930568472863     -0.00423551337640
H   -0.00001167146422      6.73853104613662     -0.00389474766392
H   7.07386165167227     -1.22822657074368     -0.00008250934481
H   2.47331421164041      6.74068466339473      0.00017162982210
H   4.60066897122302     -5.51237575717576      0.00039007446835
H   -2.47331820069565      6.74068209160650      0.00047297644710
H   -0.00000978838621     -6.73852780445195      0.00458867820736
H   -5.83530143450167      3.36927132229595      0.00410314985360
H   2.47330840367253     -6.74068500242887      0.00027980126949
H   -4.60067436136587      5.51237839860371      0.00002010017831
H   -5.83527902699321     -3.36928859177951     -0.00451481925734
H   -2.47329986759855     -6.74067870613986     -0.00016951527498
H   -7.07385728692578      1.22822084484047     -0.00046143985387
H   -4.60067330624313     -5.51236229778631      0.00021776644566
H   -7.07385645456741     -1.22822025997701     -0.00017736581114

    units angstrom      # Angstroms are the default
    no_reorient         # Geometry fixed, default
    symmetry c1         # C1 symmetry, default
}

set {
    scf_type DF         # Density fitting, faster than exact integrals
    freeze_core True    # Freeze core electrons
    basis jun-cc-pVDZ   # Jun-cc-pVDZ basis set, recommended for sSAPT0 in https://doi.org/10.1063/1.4867135
}

energy('ssapt0')        # Compute sSAPT0 energy, includes also SAPT0
--------------------------------------------------------------------------

  //              Dimer HF             //
    Molecular point group: c1
  Charge       = 1
  Multiplicity = 1
  Basis Set: JUN-CC-PVDZ
    Blend: JUN-CC-PVDZ
  Basis Set: (JUN-CC-PVDZ AUX)
    Blend: JUN-CC-PVDZ-JKFIT
  @DF-RHF Final Energy: -2359.19914744154448
    Total Energy =                      -2359.1991474415444827
 Dipole X            :         -0.0015703            0.0006313           -0.0009390
 Dipole Y            :         -5.5976354            7.4856329            1.8879976
 Dipole Z            :         25.0883178          -35.6444609          -10.5561431
 Magnitude           :                                                   10.7236511
  //            Monomer A HF           //
    Molecular point group: c1
  Multiplicity = 1
  Basis Set: JUN-CC-PVDZ
    Blend: JUN-CC-PVDZ
  Basis Set: (JUN-CC-PVDZ AUX)
    Blend: JUN-CC-PVDZ-JKFIT
  @DF-RHF Final Energy:  -303.29724713601803
    Total Energy =                       -303.2972471360180293
  //            Monomer B HF           //
    Molecular point group: c1

    Geometry (in Angstrom), charge = 0, multiplicity = 1:

       Center              X                  Y                   Z               Mass
    ------------   -----------------  -----------------  -----------------  -----------------
      Gh(C)           0.680066520158     1.235968212970    -7.500135447667    12.000000000000
      Gh(C)          -0.680504479842     1.237996212970    -7.499751447667    12.000000000000
      Gh(N)          -1.085635479842     1.238994212970    -6.181427447667    14.003074004430
      Gh(C)           0.000107520158     1.242270212970    -5.400026447667    12.000000000000
      Gh(C)          -2.477365479842     1.288400212970    -5.713448447667    12.000000000000
      Gh(N)           1.085221520158     1.238994212970    -6.181427447667    14.003074004430
      Gh(H)           1.385145520158     1.228140212970    -8.317574447667     1.007825032230
      Gh(H)          -1.385302479842     1.237806212970    -8.317420447667     1.007825032230
      Gh(H)          -0.000009479842     1.244017212970    -4.318937447667     1.007825032230
      Gh(C)           2.478116520158     1.222102212970    -5.716329447667    12.000000000000
      Gh(H)           2.490591520158     1.249447212970    -4.626076447667     1.007825032230
      Gh(H)           2.967027520158     0.308656212970    -6.063505447667     1.007825032230
      Gh(H)           3.001427520158     2.097585212970    -6.107801447667     1.007825032230
      Gh(H)          -2.857359479842     2.310471212970    -5.793407447667     1.007825032230
      Gh(H)          -3.082679479842     0.618316212970    -6.326512447667     1.007825032230
      Gh(H)          -2.518128479842     0.961416212970    -4.673500447667     1.007825032230
         C            1.225311895423     0.526248873889     0.921931179617    12.000000000000
         C            1.225323856051    -0.888828309601     0.909600370047    12.000000000000
         C           -0.000006153932     1.233676499060     0.909066746526    12.000000000000
         C            2.456448753949     1.237038472148     0.924818037017    12.000000000000
         C            0.000010827279    -1.596265913665     0.919266303850    12.000000000000
         C           -1.225300948908     0.526255958954     0.924182699939    12.000000000000
         C            2.456437755320    -1.599612718911     0.907355213190    12.000000000000
         C           -0.000001332978     2.655511616251     0.906663196392    12.000000000000
         C            3.681826697470     0.528028540971     0.907704002987    12.000000000000
         C            2.455120048865     2.652934246459     0.907601446027    12.000000000000
         C            3.681821105219    -0.890623254459     0.923776487006    12.000000000000
         C           -1.225313598688    -0.888816930574     0.910673131473    12.000000000000
         C            1.226699581202     3.362180068964     0.923960518937    12.000000000000
         C            0.000004784858    -3.018071554266     0.924114471472    12.000000000000
         C           -2.456436032848     1.237027503255     0.924218095785    12.000000000000
         C            2.455123417779    -3.015519443619     0.923624578638    12.000000000000
         C           -1.226714364589     3.362179648720     0.924063852156    12.000000000000
         C            4.914517295202     1.245883457459     0.914184686017    12.000000000000
         C            3.693150191476     3.361505877515     0.914234485653    12.000000000000
         C           -2.456437600068    -1.599602695869     0.907330175065    12.000000000000
         C            1.226704841943    -3.724763656937     0.907990388187    12.000000000000
         C           -2.455125398508     2.652927247604     0.907607822373    12.000000000000
         C            4.914524380782    -1.608476324974     0.917157428752    12.000000000000
         C            1.221424613699     4.788844650230     0.917295863011    12.000000000000
         C            4.893008229321     2.643898584996     0.915401354376    12.000000000000
         C           -1.226697008489    -3.724760412107     0.908257592596    12.000000000000
         C           -3.681818976526     0.528035551702     0.907716683468    12.000000000000
         C            3.693147101150    -3.724090756421     0.917275319312    12.000000000000
         C           -1.221432251994     4.788838882833     0.917479358384    12.000000000000
         C            6.134770972926     0.499258532075     0.914954460567    12.000000000000
         C            3.656788880610     4.791663828537     0.915143123436    12.000000000000
         C           -2.455126907733    -3.015504508091     0.923380220840    12.000000000000
         C           -3.681819179061    -0.890615118499     0.923894108585    12.000000000000
         C            4.893012617914    -3.006489520662     0.916012506271    12.000000000000
         C           -0.000001073113     5.469157951002     0.916248049677    12.000000000000
         C            6.134775112332    -0.861844269105     0.916219781083    12.000000000000
         C            2.478131482856     5.472287336301     0.916431903086    12.000000000000
         C            1.221422404738    -5.151416469963     0.914496365989    12.000000000000
         C           -3.693162383965     3.361507539162     0.914399993113    12.000000000000
         C           -1.221428520945    -5.151407718626     0.914383604156    12.000000000000
         C           -4.914521807942     1.245886031965     0.914261631025    12.000000000000
         C            3.656787019679    -5.154244641269     0.916593623970    12.000000000000
         C           -2.478138530106     5.472285007498     0.916716428094    12.000000000000
         C           -3.693141738564    -3.724079634009     0.917159193157    12.000000000000
         C           -4.914512483053    -1.608470415058     0.917192125925    12.000000000000
         C           -0.000006008926    -5.831727702044     0.915852545556    12.000000000000
         C           -4.893020484101     2.643899183889     0.915391272516    12.000000000000
         C            2.478125993298    -5.834862958919     0.915503023178    12.000000000000
         C           -3.656798710258     4.791666767011     0.915319803810    12.000000000000
         C           -4.892999478856    -3.006481182090     0.915858470574    12.000000000000
         C           -2.478128498083    -5.834855585037     0.915227835530    12.000000000000
         C           -6.134770503331     0.499259351226     0.914928908865    12.000000000000
         C           -3.656788833189    -5.154233438001     0.916379336153    12.000000000000
         C           -6.134765042913    -0.861843330512     0.916199305288    12.000000000000
         H            5.835288495816     3.187986479924     0.919760680038     1.007825032230
         H            7.073859172747     1.046927833869     0.915416103960     1.007825032230
         H            4.600663264174     5.331091387423     0.915648324188     1.007825032230
         H            5.835283387305    -3.550595471759     0.911558038957     1.007825032230
         H           -0.000012151306     6.557241259106     0.911898804669     1.007825032230
         H            7.073861171831    -1.409516357774     0.915711042988     1.007825032230
         H            2.473313731799     6.559394876364     0.915965182155     1.007825032230
         H            4.600668491381    -5.693665544206     0.916183626802     1.007825032230
         H           -2.473318680537     6.559392304576     0.916266528780     1.007825032230
         H           -0.000010268228    -6.919817591482     0.920382230541     1.007825032230
         H           -5.835301914343     3.187981535266     0.919896702187     1.007825032230
         H            2.473307923831    -6.921974789459     0.916073353603     1.007825032230
         H           -4.600674841208     5.331088611573     0.915813652512     1.007825032230
         H           -5.835279506835    -3.550578378810     0.911278733076     1.007825032230
         H           -2.473300347440    -6.921968493170     0.915624037058     1.007825032230
         H           -7.073857766768     1.046931057810     0.915332112479     1.007825032230
         H           -4.600673786085    -5.693652084817     0.916011318779     1.007825032230
         H           -7.073856934409    -1.409510047007     0.915616186522     1.007825032230

  Charge       = 0
  Multiplicity = 1
  Basis Set: JUN-CC-PVDZ
    Blend: JUN-CC-PVDZ
  Basis Set: (JUN-CC-PVDZ AUX)
    Blend: JUN-CC-PVDZ-JKFIT

    Orbital Energies [Eh]
    ---------------------

    Doubly Occupied:

       1A    -11.260643     2A    -11.260200     3A    -11.260199
       4A    -11.259490     5A    -11.259489     6A    -11.259320
       7A    -11.259111     8A    -11.259034     9A    -11.259031
      10A    -11.258707    11A    -11.258705    12A    -11.258636
      13A    -11.258574    14A    -11.258570    15A    -11.258565
      16A    -11.258537    17A    -11.258531    18A    -11.258514
      19A    -11.258502    20A    -11.258496    21A    -11.258491
      22A    -11.258391    23A    -11.258389    24A    -11.258089
      25A    -11.257430    26A    -11.257369    27A    -11.257367
      28A    -11.257233    29A    -11.257232    30A    -11.257148
      31A    -11.256525    32A    -11.256454    33A    -11.256454
      34A    -11.256345    35A    -11.256343    36A    -11.256297
      37A    -11.252381    38A    -11.252378    39A    -11.252373
      40A    -11.252371    41A    -11.252369    42A    -11.252367
      43A    -11.251510    44A    -11.251504    45A    -11.251501
      46A    -11.251497    47A    -11.251494    48A    -11.251488
      49A    -11.250942    50A    -11.250939    51A    -11.250934
      52A    -11.250932    53A    -11.250930    54A    -11.250928
      55A     -1.244247    56A     -1.219974    57A     -1.219973
      58A     -1.189686    59A     -1.189678    60A     -1.181120
      61A     -1.157689    62A     -1.149118    63A     -1.135663
      64A     -1.135654    65A     -1.113322    66A     -1.113317
      67A     -1.082587    68A     -1.082579    69A     -1.078767
      70A     -1.066105    71A     -1.066102    72A     -1.039540
      73A     -1.024444    74A     -1.021946    75A     -1.021901
      76A     -1.017853    77A     -1.012917    78A     -0.987178
      79A     -0.987131    80A     -0.962013    81A     -0.961963
      82A     -0.894430    83A     -0.894404    84A     -0.888115
      85A     -0.886363    86A     -0.886306    87A     -0.881556
      88A     -0.881509    89A     -0.862036    90A     -0.837521
      91A     -0.818351    92A     -0.816785    93A     -0.812295
      94A     -0.812287    95A     -0.794819    96A     -0.794809
      97A     -0.746791    98A     -0.745020    99A     -0.733585
     100A     -0.733578   101A     -0.732316   102A     -0.732293
     103A     -0.716656   104A     -0.699113   105A     -0.699100
     106A     -0.693735   107A     -0.693718   108A     -0.661364
     109A     -0.653287   110A     -0.651331   111A     -0.650382
     112A     -0.650376   113A     -0.639492   114A     -0.639489
     115A     -0.629870   116A     -0.627682   117A     -0.627665
     118A     -0.606471   119A     -0.605909   120A     -0.601820
     121A     -0.599881   122A     -0.599848   123A     -0.593781
     124A     -0.591404   125A     -0.591391   126A     -0.585389
     127A     -0.576428   128A     -0.576411   129A     -0.567445
     130A     -0.567431   131A     -0.566120   132A     -0.566102
     133A     -0.558894   134A     -0.554985   135A     -0.554980
     136A     -0.538724   137A     -0.538721   138A     -0.538273
     139A     -0.538266   140A     -0.529856   141A     -0.528199
     142A     -0.523013   143A     -0.523004   144A     -0.500633
     145A     -0.495698   146A     -0.493370   147A     -0.487926
     148A     -0.485223   149A     -0.481905   150A     -0.481898
     151A     -0.470413   152A     -0.470402   153A     -0.451200
     154A     -0.451123   155A     -0.439166   156A     -0.439157
     157A     -0.404844   158A     -0.404821   159A     -0.403466
     160A     -0.375520   161A     -0.375517   162A     -0.349223
     163A     -0.337685   164A     -0.336652   165A     -0.336597
     166A     -0.311198   167A     -0.298188   168A     -0.284450
     169A     -0.284399   170A     -0.225021   171A     -0.224956

  @DF-RHF Final Energy: -2055.89202179603035

   => Energetics <=

    Nuclear Repulsion Energy =           6452.5568002797781446
    One-Electron Energy =              -15636.4385095922189066
    Two-Electron Energy =                7127.9896875164113226
    Total Energy =                      -2055.8920217960303489
 Dipole X            :          0.0001236           -0.0000085            0.0001151
 Dipole Y            :        117.1660596         -117.1648546            0.0012050
 Dipole Z            :       -591.8583518          591.8634155            0.0050637
 Magnitude           :                                                    0.0052064

    SAPT Results
  --------------------------------------------------------------------------------------------------------
    Electrostatics                 -7.37065156 [mEh]      -4.62515368 [kcal/mol]     -19.35164299 [kJ/mol]
      Elst10,r                     -7.37065156 [mEh]      -4.62515368 [kcal/mol]     -19.35164299 [kJ/mol]

    Exchange                        0.00007790 [mEh]       0.00004888 [kcal/mol]       0.00020452 [kJ/mol]
      Exch10                        0.00007790 [mEh]       0.00004888 [kcal/mol]       0.00020452 [kJ/mol]
      Exch10(S^2)                   0.00007790 [mEh]       0.00004888 [kcal/mol]       0.00020452 [kJ/mol]

    Induction                      -2.50793584 [mEh]      -1.57375350 [kcal/mol]      -6.58458464 [kJ/mol]
      Ind20,r                      -2.45566164 [mEh]      -1.54095095 [kcal/mol]      -6.44733876 [kJ/mol]
      Exch-Ind20,r                  0.00057266 [mEh]       0.00035935 [kcal/mol]       0.00150352 [kJ/mol]
      delta HF,r (2)               -0.05284686 [mEh]      -0.03316190 [kcal/mol]      -0.13874940 [kJ/mol]

    Dispersion                     -1.32071873 [mEh]      -0.82876352 [kcal/mol]      -3.46754656 [kJ/mol]
      Disp20                       -1.32092984 [mEh]      -0.82889599 [kcal/mol]      -3.46810083 [kJ/mol]
      Exch-Disp20                   0.00021111 [mEh]       0.00013247 [kcal/mol]       0.00055427 [kJ/mol]
      Disp20 (SS)                  -0.66046492 [mEh]      -0.41444800 [kcal/mol]      -1.73405042 [kJ/mol]
      Disp20 (OS)                  -0.66046492 [mEh]      -0.41444800 [kcal/mol]      -1.73405042 [kJ/mol]
      Exch-Disp20 (SS)              0.00015866 [mEh]       0.00009956 [kcal/mol]       0.00041656 [kJ/mol]
      Exch-Disp20 (OS)              0.00005245 [mEh]       0.00003292 [kcal/mol]       0.00013772 [kJ/mol]

  Total HF                         -9.87850950 [mEh]      -6.19885830 [kcal/mol]     -25.93602311 [kJ/mol]
  Total SAPT0                     -11.19922823 [mEh]      -7.02762181 [kcal/mol]     -29.40356967 [kJ/mol]

  Special recipe for scaled SAPT0 (see Manual):
    Electrostatics sSAPT0          -7.37065156 [mEh]      -4.62515368 [kcal/mol]     -19.35164299 [kJ/mol]
    Exchange sSAPT0                 0.00007790 [mEh]       0.00004888 [kcal/mol]       0.00020452 [kJ/mol]
    Induction sSAPT0               -2.50793584 [mEh]      -1.57375350 [kcal/mol]      -6.58458464 [kJ/mol]
    Dispersion sSAPT0              -1.32071873 [mEh]      -0.82876352 [kcal/mol]      -3.46754656 [kJ/mol]
  Total sSAPT0                    -11.19922823 [mEh]      -7.02762181 [kcal/mol]     -29.40356967 [kJ/mol]
  --------------------------------------------------------------------------------------------------------

*** Psi4 exiting successfully. Buy a developer a beer!
