                               Psi4 1.9 release

  ==> Input File <==

--------------------------------------------------------------------------
memory 80 GB # how much memory is available ! Depends on the nodes/cores !

molecule dimer {
# monomer A
+1 1    # Charge and multiplicity
C  0.680067 -1.215929 4.208042
C -0.680504 -1.215545 4.206014
N -1.085635  0.102779 4.205016
C  0.000108  0.884180 4.201740
C -2.477365  0.570758 4.155610
N  1.085222  0.102779 4.205016
H  1.385146 -2.033368 4.215870
H -1.385302 -2.033214 4.206204
H -0.000009  1.965269 4.199993
C  2.478117  0.567877 4.221908
H  2.490592  1.658130 4.194563
H  2.967028  0.220701 5.135354
H  3.001428  0.176405 3.346425
H -2.857359  0.490799 3.133539
H -3.082679 -0.042306 4.825694
H -2.518128  1.610706 4.482594
--
# monomer B
0 1     # Charge and multiplicity
C   -3.66844126402057      7.80375217008252      0.00190004133558
C   -4.84759871934653      7.13124183134024     -0.00046653359696
C   -4.89495929917518      5.69633040353158     -0.00103944469517
C   -3.65374067877320      4.98073034095895      0.00662099703436
C   -2.40942512149445      7.11398103667468      0.00209438359570
C   -2.42547734410473      5.68112195090346     -0.00491050527438
C   -1.19474401643570      7.78614419430947      0.00356656413763
C   0.03795902893699      7.09942164575698      0.00139585983271
C   0.03033258741920      5.66948955970466     -0.00408752508301
C   -1.20098450790502      4.96927034791531      0.00488220885047
C   1.27795782581485      7.77285944319479      0.00277170839332
C   2.48535808472416      7.08769688523756      0.00049722048857
C   2.48612868491717      5.65477081024076     -0.00644052849921
C   1.25408291964399      4.95607811366431      0.00518741308898
C   3.75171459140595      7.76391215098033      0.00062407186893
C   4.92356605618520      7.07878077698995     -0.00143240883900
C   4.95560727132542      5.64344746336949     -0.00159282164606
C   3.70680153420475      4.94121020833308      0.00349873852374
H   -3.65852113775815      8.89082741913536      0.00358502958574
H   -1.18921332975660      8.87412108735996      0.00753844057883
H   1.28429423888630      8.86083343548850      0.00693053253426
H   3.75354208679975      8.85103527897216      0.00214659618464
H   5.86995870320703      7.61379483465560     -0.00235777588134
H   -5.78823170750226      7.67630221293400     -0.00202638095293
C   -6.09197395869619      4.99326001364347     -0.00291168518608
C   -6.12866148031747      3.58258016879823     -0.00171050815740
C   -3.66457974004527      3.56418217974434     -0.00463560277484
C   -4.89429820469869      2.86108077590057      0.00453338221034
C   -2.43733499489796      2.84761165708481      0.00719617576166
C   -1.20922785759670      3.54788693497833     -0.00648285103018
C   1.24714157216223      3.53468075142962     -0.00729145743546
C   0.01517603956900      2.83311183930540      0.00439272578912
C   2.46764517244071      2.82128997725533      0.00449278391269
C   3.70254947457969      3.52466015442405     -0.00899517692985
C   6.14498038638375      4.92757236613191     -0.00282626685777
C   6.16658835886151      3.51658447594213     -0.00065971342101
C   4.92460995845939      2.80840792535402      0.00587903281610
H   7.08990550964105      5.46688776622306     -0.00658814770723
H   -7.03104175110130      5.54268795285765     -0.00714490013730
C   -7.33969804112295      2.85841153457957     -0.00333767559888
C   -7.36488195805880      1.47032337158330     -0.00157213747140
C   -4.90350460894690      1.44442681216000     -0.00628840166334
C   -6.13225715261081      0.73993935705394      0.00600164231964
C   -3.67687480051673      0.72669714267312      0.00433931473643
C   -2.44565658606518      1.42964113326212     -0.00597039546461
C   -1.22360068130162      0.71532450163492      0.00545886906656
C   0.00763786931376      1.41738314923765      0.00392452278437
C   1.23121980774686      0.70211669058719     -0.01490206287210
C   2.46082110053113      1.40329203612573      0.00460244601878
C   3.68443025419614      0.68719842821222      0.00377365974158
C   4.91870890153864      1.39173456118907     -0.00862816189375
C   7.36980207796101      2.77948220318441     -0.00242013321349
C   7.38016266612146      1.39121750785509     -0.00087345036788
C   6.13979953912259      0.67411862320065      0.00545489144369
H   -8.27919079934664      3.40711804112415     -0.00763522772059
H   8.31511347147953      3.31811809662368     -0.00663070901292
C   -8.59175593758115      0.72483255304480     -0.00123170985383
C   -8.59902460370342     -0.63263980622873      0.00089141472904
C   -6.13981313911873     -0.67413663715361     -0.00609792660607
C   -7.38018411213749     -1.39126618958160      0.00131813493501
C   -4.91868448025621     -1.39175501803000      0.00624257154343
C   -3.68443829568458     -0.68723731573599     -0.00478966852105
C   -2.46081704024768     -1.40334517882457      0.00575341766833
C   -1.23116201232071     -0.70217386488055     -0.00636696112346
C   -0.00756962538737     -1.41741884941102      0.00108956317991
C   1.22364771588843     -0.71527537726392      0.01109518512883
C   2.44567064933149     -1.42964328900682     -0.00065482763106
C   3.67686670284649     -0.72670743155550     -0.00479541202602
C   6.13224884641929     -0.73997883984993     -0.00632338623858
C   4.90351914550401     -1.44445752054090      0.00751768830159
C   8.59901484869081      0.63260386666793     -0.00101133422380
C   8.59174548810050     -0.72485086719319      0.00072504603735
C   7.36486276438985     -1.47033266560598      0.00049486934466
H   -9.52830597181814      1.27684744919284     -0.00270163681798
H   9.54141097460619      1.17457248844457     -0.00206336648518
C   -7.36983790976868     -2.77954514593389      0.00312634335708
C   -4.92459910905015     -2.80843725734101     -0.00460528907921
C   -6.16662249566744     -3.51665219282533      0.00169655107992
C   -3.70251035970491     -3.52468154912026      0.00571878010666
C   -2.46764698511392     -2.82132596280400     -0.00632585824990
C   -0.01513347410770     -2.83314164539971     -0.00604426974092
C   -1.24712184122656     -3.53473217556300      0.00551968366725
C   1.20924506964357     -3.54791467864352      0.00805871345849
C   2.43733602215464     -2.84764173817541     -0.00608104485234
C   4.89430234377080     -2.86112296828604     -0.00526030478103
C   3.66461525504104     -3.56421984553201      0.00761911515957
C   6.12863901474565     -3.58258405771778      0.00096495711699
C   7.33967266469532     -2.85841330737039      0.00248018319869
H   -9.54144911125902     -1.17456346666430      0.00226083090216
H   9.52826186807155     -1.27691907390448      0.00197485379837
H   -8.31516504384864     -3.31814985321231      0.00729857188773
H   8.27915514249207     -3.40714078989363      0.00681973918158
C   -6.14499418870218     -4.92764727278338      0.00302254913999
C   -3.70678334799751     -4.94126171411716     -0.00679841894792
C   -4.95559005800169     -5.64349397349412      0.00116871569699
C   -2.48612132622665     -5.65478557440947      0.00614125209662
C   -1.25405833548005     -4.95612205000132     -0.00503435388927
C   1.20101257386816     -4.96928038819302     -0.00385322963129
C   -0.03033667441341     -5.66952030313900      0.00398997003238
C   3.65375010132847     -4.98074377541453     -0.00309522988330
C   2.42549269587528     -5.68117463552727      0.00628170066869
C   6.09196561781097     -4.99325796338655      0.00325918379042
C   4.89497644461045     -5.69634842095790      0.00202298796027
H   -7.08989238804069     -5.46699984223871      0.00742531082125
H   7.03105520920009     -5.54265853633254      0.00683896355417
C   -4.92354532219813     -7.07882109967734      0.00061394679214
C   -2.48534208823777     -7.08772807792913     -0.00189594564379
C   -3.75168589177895     -7.76394715763627     -0.00170126671874
C   -0.03794895698805     -7.09946487446944     -0.00168022049625
C   -1.27795610040136     -7.77290438466689     -0.00366491325785
C   2.40944432072629     -7.11402201200282     -0.00081701968533
C   1.19474993715296     -7.78618536556242     -0.00296931056689
C   4.84762105249800     -7.13126211057943      0.00168979497423
C   3.66847160587561     -7.80378799294376     -0.00065863938960
H   -5.86994035041618     -7.61383059804164      0.00215798365757
H   5.78824962538815     -7.67633218931421      0.00281691445618
H   -3.75352693944918     -8.85107156923607     -0.00353718114765
H   -1.28430440589466     -8.86087539249706     -0.00809229711623
H   1.18922157469537     -8.87416062058945     -0.00706194725726
H   3.65854661482387     -8.89086063405326     -0.00231318081200

    units angstrom      # Angstroms are the default
    no_reorient         # Geometry fixed, default
    symmetry c1         # C1 symmetry, default
}

set {
    scf_type DF         # Density fitting, faster than exact integrals
    freeze_core True    # Freeze core electrons
    basis jun-cc-pVDZ   # Jun-cc-pVDZ basis set, recommended for sSAPT0 in https://doi.org/10.1063/1.4867135
}

energy('ssapt0')        # Compute sSAPT0 energy, includes also SAPT0
--------------------------------------------------------------------------

  //              Dimer HF             //
    Molecular point group: c1
  Charge       = 1
  Multiplicity = 1
  Basis Set: JUN-CC-PVDZ
    Blend: JUN-CC-PVDZ
  Basis Set: (JUN-CC-PVDZ AUX)
    Blend: JUN-CC-PVDZ-JKFIT
  @DF-RHF Final Energy: -3953.66036791164061
    Total Energy =                      -3953.6603679116415151
 Dipole X            :          0.0018916            0.0004804            0.0023720
 Dipole Y            :         -1.6030045            1.8866171            0.2836126
 Dipole Z            :        -19.6895389           25.4509116            5.7613726
 Magnitude           :                                                    5.7683495
  //            Monomer A HF           //
    Molecular point group: c1
  Multiplicity = 1
  Basis Set: JUN-CC-PVDZ
    Blend: JUN-CC-PVDZ
  Basis Set: (JUN-CC-PVDZ AUX)
    Blend: JUN-CC-PVDZ-JKFIT
  @DF-RHF Final Energy:  -303.29844459632716
    Total Energy =                       -303.2984445963271583
  //            Monomer B HF           //
    Molecular point group: c1

    Geometry (in Angstrom), charge = 0, multiplicity = 1:

       Center              X                  Y                   Z               Mass
    ------------   -----------------  -----------------  -----------------  -----------------
      Gh(C)           0.680062820275    -1.215917226251     3.887821331492    12.000000000000
      Gh(C)          -0.680508179725    -1.215533226251     3.885793331492    12.000000000000
      Gh(N)          -1.085639179725     0.102790773749     3.884795331492    14.003074004430
      Gh(C)           0.000103820275     0.884191773749     3.881519331492    12.000000000000
      Gh(C)          -2.477369179725     0.570769773749     3.835389331492    12.000000000000
      Gh(N)           1.085217820275     0.102790773749     3.884795331492    14.003074004430
      Gh(H)           1.385141820275    -2.033356226251     3.895649331492     1.007825032230
      Gh(H)          -1.385306179725    -2.033202226251     3.885983331492     1.007825032230
      Gh(H)          -0.000013179725     1.965280773749     3.879772331492     1.007825032230
      Gh(C)           2.478112820275     0.567888773749     3.901687331492    12.000000000000
      Gh(H)           2.490587820275     1.658141773750     3.874342331492     1.007825032230
      Gh(H)           2.967023820275     0.220712773749     4.815133331492     1.007825032230
      Gh(H)           3.001423820275     0.176416773749     3.026204331492     1.007825032230
      Gh(H)          -2.857363179725     0.490810773749     2.813318331492     1.007825032230
      Gh(H)          -3.082683179725    -0.042294226251     4.505473331492     1.007825032230
      Gh(H)          -2.518132179725     1.610717773749     4.162373331492     1.007825032230
         C           -3.668445443746     7.803763943832    -0.318320627172    12.000000000000
         C           -4.847602899072     7.131253605090    -0.320687202105    12.000000000000
         C           -4.894963478901     5.696342177281    -0.321260113203    12.000000000000
         C           -3.653744858499     4.980742114708    -0.313599671473    12.000000000000
         C           -2.409429301220     7.113992810424    -0.318126284912    12.000000000000
         C           -2.425481523830     5.681133724653    -0.325131173782    12.000000000000
         C           -1.194748196161     7.786155968059    -0.316654104370    12.000000000000
         C            0.037954849212     7.099433419506    -0.318824808675    12.000000000000
         C            0.030328407694     5.669501333454    -0.324308193591    12.000000000000
         C           -1.200988687630     4.969282121665    -0.315338459657    12.000000000000
         C            1.277953646089     7.772871216944    -0.317448960114    12.000000000000
         C            2.485353904999     7.087708658987    -0.319723448019    12.000000000000
         C            2.486124505192     5.654782583990    -0.326661197007    12.000000000000
         C            1.254078739919     4.956089887414    -0.315033255419    12.000000000000
         C            3.751710411681     7.763923924730    -0.319596596639    12.000000000000
         C            4.923561876460     7.078792550739    -0.321653077347    12.000000000000
         C            4.955603091600     5.643459237119    -0.321813490154    12.000000000000
         C            3.706797354479     4.941221982083    -0.316721929984    12.000000000000
         H           -3.658525317484     8.890839192885    -0.316635638922     1.007825032230
         H           -1.189217509482     8.874132861109    -0.312682227929     1.007825032230
         H            1.284290059161     8.860845209238    -0.313290135974     1.007825032230
         H            3.753537907074     8.851047052722    -0.318074072323     1.007825032230
         H            5.869954523482     7.613806608405    -0.322578444389     1.007825032230
         H           -5.788235887228     7.676313986684    -0.322247049461     1.007825032230
         C           -6.091978138422     4.993271787393    -0.323132353694    12.000000000000
         C           -6.128665660043     3.582591942548    -0.321931176665    12.000000000000
         C           -3.664583919771     3.564193953494    -0.324856271283    12.000000000000
         C           -4.894302384424     2.861092549650    -0.315687286297    12.000000000000
         C           -2.437339174623     2.847623430834    -0.313024492746    12.000000000000
         C           -1.209232037322     3.547898708728    -0.326703519538    12.000000000000
         C            1.247137392437     3.534692525179    -0.327512125943    12.000000000000
         C            0.015171859844     2.833123613055    -0.315827942719    12.000000000000
         C            2.467640992715     2.821301751005    -0.315727884595    12.000000000000
         C            3.702545294854     3.524671928174    -0.329215845438    12.000000000000
         C            6.144976206658     4.927584139881    -0.323046935366    12.000000000000
         C            6.166584179136     3.516596249692    -0.320880381929    12.000000000000
         C            4.924605778734     2.808419699104    -0.314341635692    12.000000000000
         H            7.089901329916     5.466899539973    -0.326808816215     1.007825032230
         H           -7.031045930827     5.542699726607    -0.327365568645     1.007825032230
         C           -7.339702220848     2.858423308329    -0.323558344107    12.000000000000
         C           -7.364886137784     1.470335145333    -0.321792805979    12.000000000000
         C           -4.903508788672     1.444438585909    -0.326509070171    12.000000000000
         C           -6.132261332336     0.739951130803    -0.314219026188    12.000000000000
         C           -3.676878980242     0.726708916423    -0.315881353771    12.000000000000
         C           -2.445660765791     1.429652907012    -0.326191063972    12.000000000000
         C           -1.223604861027     0.715336275384    -0.314761799441    12.000000000000
         C            0.007633689588     1.417394922987    -0.316296145723    12.000000000000
         C            1.231215628021     0.702128464337    -0.335122731380    12.000000000000
         C            2.460816920806     1.403303809875    -0.315618222489    12.000000000000
         C            3.684426074471     0.687210201962    -0.316447008766    12.000000000000
         C            4.918704721813     1.391746334939    -0.328848830402    12.000000000000
         C            7.369797898236     2.779493976934    -0.322640801721    12.000000000000
         C            7.380158486396     1.391229281605    -0.321094118876    12.000000000000
         C            6.139795359397     0.674130396950    -0.314765777064    12.000000000000
         H           -8.279194979072     3.407129814874    -0.327855896228     1.007825032230
         H            8.315109291754     3.318129870373    -0.326851377521     1.007825032230
         C           -8.591760117307     0.724844326794    -0.321452378362    12.000000000000
         C           -8.599028783429    -0.632628032479    -0.319329253779    12.000000000000
         C           -6.139817318844    -0.674124863404    -0.326318595114    12.000000000000
         C           -7.380188291863    -1.391254415832    -0.318902533573    12.000000000000
         C           -4.918688659982    -1.391743244281    -0.313978096964    12.000000000000
         C           -3.684442475410    -0.687225541986    -0.325010337029    12.000000000000
         C           -2.460821219973    -1.403333405075    -0.314467250839    12.000000000000
         C           -1.231166192046    -0.702162091131    -0.326587629631    12.000000000000
         C           -0.007573805113    -1.417407075662    -0.319131105328    12.000000000000
         C            1.223643536163    -0.715263603514    -0.309125483379    12.000000000000
         C            2.445666469606    -1.429631515257    -0.320875496139    12.000000000000
         C            3.676862523121    -0.726695657806    -0.325016080534    12.000000000000
         C            6.132244666694    -0.739967066100    -0.326544054746    12.000000000000
         C            4.903514965779    -1.444445746791    -0.312702980206    12.000000000000
         C            8.599010668965     0.632615640417    -0.321232002732    12.000000000000
         C            8.591741308375    -0.724839093444    -0.319495622470    12.000000000000
         C            7.364858584664    -1.470320891856    -0.319725799163    12.000000000000
         H           -9.528310151544     1.276859222942    -0.322922305326     1.007825032230
         H            9.541406794881     1.174584262194    -0.322284034993     1.007825032230
         C           -7.369842089494    -2.779533372184    -0.317094325151    12.000000000000
         C           -4.924603288776    -2.808425483592    -0.324825957587    12.000000000000
         C           -6.166626675393    -3.516640419076    -0.318524117428    12.000000000000
         C           -3.702514539430    -3.524669775371    -0.314501888401    12.000000000000
         C           -2.467651164839    -2.821314189055    -0.326546526758    12.000000000000
         C           -0.015137653833    -2.833129871650    -0.326264938249    12.000000000000
         C           -1.247126020952    -3.534720401814    -0.314700984841    12.000000000000
         C            1.209240889918    -3.547902904894    -0.312161955049    12.000000000000
         C            2.437331842429    -2.847629964426    -0.326301713360    12.000000000000
         C            4.894298164045    -2.861111194537    -0.325480973289    12.000000000000
         C            3.664611075316    -3.564208071783    -0.312601553348    12.000000000000
         C            6.128634835020    -3.582572283968    -0.319255711391    12.000000000000
         C            7.339668484970    -2.858401533621    -0.317740485309    12.000000000000
         H           -9.541453290984    -1.174551692915    -0.317959837606     1.007825032230
         H            9.528257688346    -1.276907300155    -0.318245814709     1.007825032230
         H           -8.315169223574    -3.318138079463    -0.312922096620     1.007825032230
         H            8.279150962767    -3.407129016144    -0.313400929326     1.007825032230
         C           -6.144998368428    -4.927635499034    -0.317198119368    12.000000000000
         C           -3.706787527723    -4.941249940368    -0.327019087456    12.000000000000
         C           -4.955594237727    -5.643482199745    -0.319051952811    12.000000000000
         C           -2.486125505952    -5.654773800660    -0.314079416411    12.000000000000
         C           -1.254062515205    -4.956110276252    -0.325255022397    12.000000000000
         C            1.201008394143    -4.969268614444    -0.324073898139    12.000000000000
         C           -0.030340854139    -5.669508529390    -0.316230698475    12.000000000000
         C            3.653745921603    -4.980732001665    -0.323315898391    12.000000000000
         C            2.425488516150    -5.681162861778    -0.313938967839    12.000000000000
         C            6.091961438086    -4.993246189637    -0.316961484717    12.000000000000
         C            4.894972264885    -5.696336647208    -0.318197680547    12.000000000000
         H           -7.089896567766    -5.466988068489    -0.312795357687     1.007825032230
         H            7.031051029475    -5.542646762583    -0.313381704954     1.007825032230
         C           -4.923549501924    -7.078809325928    -0.319606721716    12.000000000000
         C           -2.485346267963    -7.087716304180    -0.322116614152    12.000000000000
         C           -3.751690071504    -7.763935383887    -0.321921935227    12.000000000000
         C           -0.037953136713    -7.099453100720    -0.321900889004    12.000000000000
         C           -1.277960280127    -7.772892610917    -0.323885581766    12.000000000000
         C            2.409440141001    -7.114010238253    -0.321037688193    12.000000000000
         C            1.194745757428    -7.786173591813    -0.323189979075    12.000000000000
         C            4.847616872773    -7.131250336830    -0.318530873534    12.000000000000
         C            3.668467426150    -7.803776219194    -0.320879307897    12.000000000000
         H           -5.869944530142    -7.613818824292    -0.318062684850     1.007825032230
         H            5.788245445663    -7.676320415565    -0.317403754052     1.007825032230
         H           -3.753531119175    -8.851059795487    -0.323757849655     1.007825032230
         H           -1.284308585620    -8.860863618748    -0.328312965624     1.007825032230
         H            1.189217394970    -8.874148846840    -0.327282615765     1.007825032230
         H            3.658542435098    -8.890848860304    -0.322533849320     1.007825032230

  Charge       = 0
  Multiplicity = 1
  Basis Set: JUN-CC-PVDZ
    Blend: JUN-CC-PVDZ
  Basis Set: (JUN-CC-PVDZ AUX)
    Blend: JUN-CC-PVDZ-JKFIT

    Orbital Energies [Eh]
    ---------------------

    Doubly Occupied:

       1A    -11.264033     2A    -11.263710     3A    -11.263671
       4A    -11.263326     5A    -11.263311     6A    -11.263254
       7A    -11.263135     8A    -11.263116     9A    -11.263082
      10A    -11.262898    11A    -11.262769    12A    -11.262746
      13A    -11.262268    14A    -11.262257    15A    -11.262222
      16A    -11.262192    17A    -11.262116    18A    -11.262089
      19A    -11.262048    20A    -11.262003    21A    -11.261998
      22A    -11.261881    23A    -11.261874    24A    -11.261728
      25A    -11.261719    26A    -11.261697    27A    -11.261694
      28A    -11.261652    29A    -11.261644    30A    -11.261553
      31A    -11.261533    32A    -11.261531    33A    -11.261512
      34A    -11.261510    35A    -11.261495    36A    -11.261485
      37A    -11.261303    38A    -11.261294    39A    -11.261287
      40A    -11.261283    41A    -11.261272    42A    -11.261269
      43A    -11.261257    44A    -11.261244    45A    -11.261237
      46A    -11.261215    47A    -11.261209    48A    -11.261204
      49A    -11.261056    50A    -11.261039    51A    -11.261008
      52A    -11.260967    53A    -11.260928    54A    -11.260885
      55A    -11.259881    56A    -11.259869    57A    -11.259862
      58A    -11.259837    59A    -11.259831    60A    -11.259817
      61A    -11.259253    62A    -11.259229    63A    -11.259222
      64A    -11.259174    65A    -11.259167    66A    -11.259140
      67A    -11.258883    68A    -11.258866    69A    -11.258861
      70A    -11.258837    71A    -11.258830    72A    -11.258820
      73A    -11.254500    74A    -11.254499    75A    -11.254495
      76A    -11.254491    77A    -11.254488    78A    -11.254483
      79A    -11.253626    80A    -11.253622    81A    -11.253615
      82A    -11.253611    83A    -11.253611    84A    -11.253608
      85A    -11.253541    86A    -11.253538    87A    -11.253530
      88A    -11.253527    89A    -11.253526    90A    -11.253524
      91A    -11.253028    92A    -11.253027    93A    -11.253022
      94A    -11.253019    95A    -11.253016    96A    -11.253011
      97A     -1.253864    98A     -1.238940    99A     -1.238915
     100A     -1.220406   101A     -1.220398   102A     -1.215369
     103A     -1.200991   104A     -1.195548   105A     -1.188079
     106A     -1.188060   107A     -1.173714   108A     -1.173712
     109A     -1.155559   110A     -1.155555   111A     -1.152642
     112A     -1.144675   113A     -1.144673   114A     -1.128503
     115A     -1.114643   116A     -1.113114   117A     -1.112420
     118A     -1.112392   119A     -1.111574   120A     -1.088365
     121A     -1.088351   122A     -1.076916   123A     -1.076914
     124A     -1.067551   125A     -1.067516   126A     -1.064900
     127A     -1.046743   128A     -1.046732   129A     -1.040419
     130A     -1.038691   131A     -1.038687   132A     -1.025167
     133A     -1.021310   134A     -1.021248   135A     -1.007122
     136A     -1.006742   137A     -1.003739   138A     -1.000422
     139A     -1.000369   140A     -0.991033   141A     -0.970924
     142A     -0.970872   143A     -0.955833   144A     -0.955775
     145A     -0.905507   146A     -0.905504   147A     -0.905468
     148A     -0.905464   149A     -0.904241   150A     -0.892281
     151A     -0.892221   152A     -0.890286   153A     -0.890233
     154A     -0.889382   155A     -0.872166   156A     -0.869018
     157A     -0.851483   158A     -0.847787   159A     -0.847774
     160A     -0.845521   161A     -0.842942   162A     -0.834502
     163A     -0.834491   164A     -0.828072   165A     -0.828063
     166A     -0.784490   167A     -0.784481   168A     -0.783590
     169A     -0.783574   170A     -0.782218   171A     -0.782196
     172A     -0.781957   173A     -0.766927   174A     -0.760708
     175A     -0.750498   176A     -0.733434   177A     -0.727013
     178A     -0.726981   179A     -0.725011   180A     -0.724482
     181A     -0.724453   182A     -0.718412   183A     -0.713695
     184A     -0.713688   185A     -0.699519   186A     -0.699495
     187A     -0.686039   188A     -0.685899   189A     -0.685892
     190A     -0.682109   191A     -0.682104   192A     -0.678711
     193A     -0.653564   194A     -0.650809   195A     -0.650775
     196A     -0.649728   197A     -0.649722   198A     -0.649510
     199A     -0.640856   200A     -0.640810   201A     -0.640025
     202A     -0.639106   203A     -0.635952   204A     -0.635918
     205A     -0.629070   206A     -0.617739   207A     -0.615249
     208A     -0.615224   209A     -0.608737   210A     -0.608730
     211A     -0.599129   212A     -0.599100   213A     -0.598673
     214A     -0.598521   215A     -0.598507   216A     -0.597958
     217A     -0.595008   218A     -0.594995   219A     -0.594655
     220A     -0.594141   221A     -0.591883   222A     -0.591879
     223A     -0.587301   224A     -0.577751   225A     -0.577735
     226A     -0.575676   227A     -0.575671   228A     -0.573315
     229A     -0.569560   230A     -0.568065   231A     -0.568038
     232A     -0.566681   233A     -0.566673   234A     -0.560866
     235A     -0.558649   236A     -0.558611   237A     -0.558378
     238A     -0.554298   239A     -0.550538   240A     -0.547426
     241A     -0.544233   242A     -0.535005   243A     -0.534975
     244A     -0.533472   245A     -0.533456   246A     -0.528018
     247A     -0.528002   248A     -0.527703   249A     -0.517088
     250A     -0.517057   251A     -0.515319   252A     -0.515312
     253A     -0.509580   254A     -0.509568   255A     -0.497957
     256A     -0.496385   257A     -0.496348   258A     -0.493777
     259A     -0.493746   260A     -0.489406   261A     -0.481389
     262A     -0.477378   263A     -0.477378   264A     -0.473927
     265A     -0.469356   266A     -0.466446   267A     -0.466445
     268A     -0.458770   269A     -0.446586   270A     -0.446533
     271A     -0.440984   272A     -0.440739   273A     -0.440697
     274A     -0.434647   275A     -0.433861   276A     -0.407328
     277A     -0.407305   278A     -0.386364   279A     -0.386301
     280A     -0.385687   281A     -0.385686   282A     -0.383707
     283A     -0.354274   284A     -0.354249   285A     -0.350617
     286A     -0.338044   287A     -0.335539   288A     -0.335495
     289A     -0.332668   290A     -0.332663   291A     -0.307014
     292A     -0.301890   293A     -0.301822   294A     -0.300789
     295A     -0.286119   296A     -0.256433   297A     -0.253437
     298A     -0.253392   299A     -0.204212   300A     -0.204125

  @DF-RHF Final Energy: -3650.34115767243020

   => Energetics <=

    Nuclear Repulsion Energy =          15611.4211649754324753
    One-Electron Energy =              -36072.1784130052765249
    Two-Electron Energy =               16810.4160903574120312
    Total Energy =                      -3650.3411576724320184
 Dipole X            :         -0.0004805            0.0002112           -0.0002693
 Dipole Y            :          0.0044105           -0.0044281           -0.0000176
 Dipole Z            :        363.0649008         -363.0742260           -0.0093252
 Magnitude           :                                                    0.0093291

    SAPT Results
  --------------------------------------------------------------------------------------------------------
    Electrostatics                -12.83910988 [mEh]      -8.05666308 [kcal/mol]     -33.70907835 [kJ/mol]
      Elst10,r                    -12.83910988 [mEh]      -8.05666308 [kcal/mol]     -33.70907835 [kJ/mol]

    Exchange                        1.95744292 [mEh]       1.22831398 [kcal/mol]       5.13926568 [kJ/mol]
      Exch10                        1.95744292 [mEh]       1.22831398 [kcal/mol]       5.13926568 [kJ/mol]
      Exch10(S^2)                   1.95710346 [mEh]       1.22810096 [kcal/mol]       5.13837443 [kJ/mol]

    Induction                      -9.88397592 [mEh]      -6.20228853 [kcal/mol]     -25.95037521 [kJ/mol]
      Ind20,r                      -9.81710074 [mEh]      -6.16032372 [kcal/mol]     -25.77479444 [kJ/mol]
      Exch-Ind20,r                  0.45909112 [mEh]       0.28808403 [kcal/mol]       1.20534358 [kJ/mol]
      delta HF,r (2)               -0.52596631 [mEh]      -0.33004884 [kcal/mol]      -1.38092435 [kJ/mol]

    Dispersion                    -14.97228954 [mEh]      -9.39525353 [kcal/mol]     -39.30974078 [kJ/mol]
      Disp20                      -15.27314404 [mEh]      -9.58404258 [kcal/mol]     -40.09963416 [kJ/mol]
      Exch-Disp20                   0.30085450 [mEh]       0.18878905 [kcal/mol]       0.78989338 [kJ/mol]
      Disp20 (SS)                  -7.63657202 [mEh]      -4.79202129 [kcal/mol]     -20.04981708 [kJ/mol]
      Disp20 (OS)                  -7.63657202 [mEh]      -4.79202129 [kcal/mol]     -20.04981708 [kJ/mol]
      Exch-Disp20 (SS)              0.19363536 [mEh]       0.12150803 [kcal/mol]       0.50838958 [kJ/mol]
      Exch-Disp20 (OS)              0.10721914 [mEh]       0.06728102 [kcal/mol]       0.28150381 [kJ/mol]

  Total HF                        -20.76564288 [mEh]     -13.03063764 [kcal/mol]     -54.52018788 [kJ/mol]
  Total SAPT0                     -35.73793243 [mEh]     -22.42589117 [kcal/mol]     -93.82992866 [kJ/mol]

  Special recipe for scaled SAPT0 (see Manual):
    Electrostatics sSAPT0         -12.83910988 [mEh]      -8.05666308 [kcal/mol]     -33.70907835 [kJ/mol]
    Exchange sSAPT0                 1.95744292 [mEh]       1.22831398 [kcal/mol]       5.13926568 [kJ/mol]
    Induction sSAPT0               -9.88373700 [mEh]      -6.20213860 [kcal/mol]     -25.94974791 [kJ/mol]
    Dispersion sSAPT0             -14.97213297 [mEh]      -9.39515528 [kcal/mol]     -39.30932969 [kJ/mol]
  Total sSAPT0                    -35.73753692 [mEh]     -22.42564299 [kcal/mol]     -93.82889026 [kJ/mol]
  --------------------------------------------------------------------------------------------------------

*** Psi4 exiting successfully. Buy a developer a beer!
