                               Psi4 1.9 release

  ==> Input File <==

--------------------------------------------------------------------------
memory 64 GB # how much memory is available ! Depends on the nodes/cores !

molecule dimer {
# monomer A
-1 1    # Charge and multiplicity
B -1.977592e-04  2.742729e-04 -5.399966
F  1.123153e-16  1.430594e-17 -3.987181
F  1.147860e+00  6.757812e-01 -5.871107
F  1.191806e-02 -1.332011e+00 -5.870905
F -1.159666e+00  6.560735e-01 -5.870826
--
# monomer B
0 1     # Charge and multiplicity
C   -3.66844126402057      7.80375217008252      0.00190004133558
C   -4.84759871934653      7.13124183134024     -0.00046653359696
C   -4.89495929917518      5.69633040353158     -0.00103944469517
C   -3.65374067877320      4.98073034095895      0.00662099703436
C   -2.40942512149445      7.11398103667468      0.00209438359570
C   -2.42547734410473      5.68112195090346     -0.00491050527438
C   -1.19474401643570      7.78614419430947      0.00356656413763
C   0.03795902893699      7.09942164575698      0.00139585983271
C   0.03033258741920      5.66948955970466     -0.00408752508301
C   -1.20098450790502      4.96927034791531      0.00488220885047
C   1.27795782581485      7.77285944319479      0.00277170839332
C   2.48535808472416      7.08769688523756      0.00049722048857
C   2.48612868491717      5.65477081024076     -0.00644052849921
C   1.25408291964399      4.95607811366431      0.00518741308898
C   3.75171459140595      7.76391215098033      0.00062407186893
C   4.92356605618520      7.07878077698995     -0.00143240883900
C   4.95560727132542      5.64344746336949     -0.00159282164606
C   3.70680153420475      4.94121020833308      0.00349873852374
H   -3.65852113775815      8.89082741913536      0.00358502958574
H   -1.18921332975660      8.87412108735996      0.00753844057883
H   1.28429423888630      8.86083343548850      0.00693053253426
H   3.75354208679975      8.85103527897216      0.00214659618464
H   5.86995870320703      7.61379483465560     -0.00235777588134
H   -5.78823170750226      7.67630221293400     -0.00202638095293
C   -6.09197395869619      4.99326001364347     -0.00291168518608
C   -6.12866148031747      3.58258016879823     -0.00171050815740
C   -3.66457974004527      3.56418217974434     -0.00463560277484
C   -4.89429820469869      2.86108077590057      0.00453338221034
C   -2.43733499489796      2.84761165708481      0.00719617576166
C   -1.20922785759670      3.54788693497833     -0.00648285103018
C   1.24714157216223      3.53468075142962     -0.00729145743546
C   0.01517603956900      2.83311183930540      0.00439272578912
C   2.46764517244071      2.82128997725533      0.00449278391269
C   3.70254947457969      3.52466015442405     -0.00899517692985
C   6.14498038638375      4.92757236613191     -0.00282626685777
C   6.16658835886151      3.51658447594213     -0.00065971342101
C   4.92460995845939      2.80840792535402      0.00587903281610
H   7.08990550964105      5.46688776622306     -0.00658814770723
H   -7.03104175110130      5.54268795285765     -0.00714490013730
C   -7.33969804112295      2.85841153457957     -0.00333767559888
C   -7.36488195805880      1.47032337158330     -0.00157213747140
C   -4.90350460894690      1.44442681216000     -0.00628840166334
C   -6.13225715261081      0.73993935705394      0.00600164231964
C   -3.67687480051673      0.72669714267312      0.00433931473643
C   -2.44565658606518      1.42964113326212     -0.00597039546461
C   -1.22360068130162      0.71532450163492      0.00545886906656
C   0.00763786931376      1.41738314923765      0.00392452278437
C   1.23121980774686      0.70211669058719     -0.01490206287210
C   2.46082110053113      1.40329203612573      0.00460244601878
C   3.68443025419614      0.68719842821222      0.00377365974158
C   4.91870890153864      1.39173456118907     -0.00862816189375
C   7.36980207796101      2.77948220318441     -0.00242013321349
C   7.38016266612146      1.39121750785509     -0.00087345036788
C   6.13979953912259      0.67411862320065      0.00545489144369
H   -8.27919079934664      3.40711804112415     -0.00763522772059
H   8.31511347147953      3.31811809662368     -0.00663070901292
C   -8.59175593758115      0.72483255304480     -0.00123170985383
C   -8.59902460370342     -0.63263980622873      0.00089141472904
C   -6.13981313911873     -0.67413663715361     -0.00609792660607
C   -7.38018411213749     -1.39126618958160      0.00131813493501
C   -4.91868448025621     -1.39175501803000      0.00624257154343
C   -3.68443829568458     -0.68723731573599     -0.00478966852105
C   -2.46081704024768     -1.40334517882457      0.00575341766833
C   -1.23116201232071     -0.70217386488055     -0.00636696112346
C   -0.00756962538737     -1.41741884941102      0.00108956317991
C   1.22364771588843     -0.71527537726392      0.01109518512883
C   2.44567064933149     -1.42964328900682     -0.00065482763106
C   3.67686670284649     -0.72670743155550     -0.00479541202602
C   6.13224884641929     -0.73997883984993     -0.00632338623858
C   4.90351914550401     -1.44445752054090      0.00751768830159
C   8.59901484869081      0.63260386666793     -0.00101133422380
C   8.59174548810050     -0.72485086719319      0.00072504603735
C   7.36486276438985     -1.47033266560598      0.00049486934466
H   -9.52830597181814      1.27684744919284     -0.00270163681798
H   9.54141097460619      1.17457248844457     -0.00206336648518
C   -7.36983790976868     -2.77954514593389      0.00312634335708
C   -4.92459910905015     -2.80843725734101     -0.00460528907921
C   -6.16662249566744     -3.51665219282533      0.00169655107992
C   -3.70251035970491     -3.52468154912026      0.00571878010666
C   -2.46764698511392     -2.82132596280400     -0.00632585824990
C   -0.01513347410770     -2.83314164539971     -0.00604426974092
C   -1.24712184122656     -3.53473217556300      0.00551968366725
C   1.20924506964357     -3.54791467864352      0.00805871345849
C   2.43733602215464     -2.84764173817541     -0.00608104485234
C   4.89430234377080     -2.86112296828604     -0.00526030478103
C   3.66461525504104     -3.56421984553201      0.00761911515957
C   6.12863901474565     -3.58258405771778      0.00096495711699
C   7.33967266469532     -2.85841330737039      0.00248018319869
H   -9.54144911125902     -1.17456346666430      0.00226083090216
H   9.52826186807155     -1.27691907390448      0.00197485379837
H   -8.31516504384864     -3.31814985321231      0.00729857188773
H   8.27915514249207     -3.40714078989363      0.00681973918158
C   -6.14499418870218     -4.92764727278338      0.00302254913999
C   -3.70678334799751     -4.94126171411716     -0.00679841894792
C   -4.95559005800169     -5.64349397349412      0.00116871569699
C   -2.48612132622665     -5.65478557440947      0.00614125209662
C   -1.25405833548005     -4.95612205000132     -0.00503435388927
C   1.20101257386816     -4.96928038819302     -0.00385322963129
C   -0.03033667441341     -5.66952030313900      0.00398997003238
C   3.65375010132847     -4.98074377541453     -0.00309522988330
C   2.42549269587528     -5.68117463552727      0.00628170066869
C   6.09196561781097     -4.99325796338655      0.00325918379042
C   4.89497644461045     -5.69634842095790      0.00202298796027
H   -7.08989238804069     -5.46699984223871      0.00742531082125
H   7.03105520920009     -5.54265853633254      0.00683896355417
C   -4.92354532219813     -7.07882109967734      0.00061394679214
C   -2.48534208823777     -7.08772807792913     -0.00189594564379
C   -3.75168589177895     -7.76394715763627     -0.00170126671874
C   -0.03794895698805     -7.09946487446944     -0.00168022049625
C   -1.27795610040136     -7.77290438466689     -0.00366491325785
C   2.40944432072629     -7.11402201200282     -0.00081701968533
C   1.19474993715296     -7.78618536556242     -0.00296931056689
C   4.84762105249800     -7.13126211057943      0.00168979497423
C   3.66847160587561     -7.80378799294376     -0.00065863938960
H   -5.86994035041618     -7.61383059804164      0.00215798365757
H   5.78824962538815     -7.67633218931421      0.00281691445618
H   -3.75352693944918     -8.85107156923607     -0.00353718114765
H   -1.28430440589466     -8.86087539249706     -0.00809229711623
H   1.18922157469537     -8.87416062058945     -0.00706194725726
H   3.65854661482387     -8.89086063405326     -0.00231318081200

    units angstrom      # Angstroms are the default
    no_reorient         # Geometry fixed, default
    symmetry c1         # C1 symmetry, default
}

set {
    scf_type DF         # Density fitting, faster than exact integrals
    freeze_core True    # Freeze core electrons
    basis jun-cc-pVDZ   # Jun-cc-pVDZ basis set, recommended for sSAPT0 in https://doi.org/10.1063/1.4867135
}

energy('ssapt0')        # Compute sSAPT0 energy, includes also SAPT0
--------------------------------------------------------------------------

  //              Dimer HF             //
    Molecular point group: c1
  Charge       = -1
  Multiplicity = 1
  Basis Set: JUN-CC-PVDZ
    Blend: JUN-CC-PVDZ
  Basis Set: (JUN-CC-PVDZ AUX)
    Blend: JUN-CC-PVDZ-JKFIT
  @DF-RHF Final Energy: -4073.10720348459517
    Total Energy =                      -4073.1072034845965391
 Dipole X            :         -0.0001945           -0.0000548           -0.0002493
 Dipole Y            :          0.0009398           -0.0002464            0.0006934
 Dipole Z            :        -23.8377950           32.1357580            8.2979629
 Magnitude           :                                                    8.2979630
  //            Monomer A HF           //
    Molecular point group: c1
  Multiplicity = 1
  Basis Set: JUN-CC-PVDZ
    Blend: JUN-CC-PVDZ
  Basis Set: (JUN-CC-PVDZ AUX)
    Blend: JUN-CC-PVDZ-JKFIT
  @DF-RHF Final Energy:  -422.77194323562566
    Total Energy =                       -422.7719432356256561
  //            Monomer B HF           //
    Molecular point group: c1

    Geometry (in Angstrom), charge = 0, multiplicity = 1:

       Center              X                  Y                   Z               Mass
    ------------   -----------------  -----------------  -----------------  -----------------
      Gh(B)          -0.000201921932     0.000288800891    -5.028041324722    11.009305360000
      Gh(F)          -0.000004162732     0.000014527991    -3.615256324722    18.998403162730
      Gh(F)           1.147855837268     0.675795727991    -5.499182324722    18.998403162730
      Gh(F)           0.011913897268    -1.331996472009    -5.498980324722    18.998403162730
      Gh(F)          -1.159670162732     0.656088027991    -5.498901324722    18.998403162730
         C           -3.668445426752     7.803766698073     0.373824716614    12.000000000000
         C           -4.847602882078     7.131256359331     0.371458141681    12.000000000000
         C           -4.894963461907     5.696344931522     0.370885230583    12.000000000000
         C           -3.653744841505     4.980744868950     0.378545672313    12.000000000000
         C           -2.409429284226     7.113995564665     0.374019058874    12.000000000000
         C           -2.425481506836     5.681136478894     0.367014170004    12.000000000000
         C           -1.194748179167     7.786158722300     0.375491239416    12.000000000000
         C            0.037954866205     7.099436173748     0.373320535111    12.000000000000
         C            0.030328424687     5.669504087695     0.367837150195    12.000000000000
         C           -1.200988670637     4.969284875906     0.376806884129    12.000000000000
         C            1.277953663083     7.772873971185     0.374696383672    12.000000000000
         C            2.485353921992     7.087711413228     0.372421895767    12.000000000000
         C            2.486124522185     5.654785338231     0.365484146779    12.000000000000
         C            1.254078756912     4.956092641655     0.377112088367    12.000000000000
         C            3.751710428674     7.763926678971     0.372548747147    12.000000000000
         C            4.923561893453     7.078795304981     0.370492266439    12.000000000000
         C            4.955603108594     5.643461991360     0.370331853632    12.000000000000
         C            3.706797371473     4.941224736324     0.375423413802    12.000000000000
         H           -3.658525300490     8.890841947126     0.375509704864     1.007825032230
         H           -1.189217492488     8.874135615351     0.379463115857     1.007825032230
         H            1.284290076155     8.860847963479     0.378855207812     1.007825032230
         H            3.753537924068     8.851049806963     0.374071271463     1.007825032230
         H            5.869954540475     7.613809362646     0.369566899397     1.007825032230
         H           -5.788235870234     7.676316740925     0.369898294325     1.007825032230
         C           -6.091978121428     4.993274541634     0.369012990092    12.000000000000
         C           -6.128665643049     3.582594696789     0.370214167121    12.000000000000
         C           -3.664583902777     3.564196707735     0.367289072503    12.000000000000
         C           -4.894302367430     2.861095303891     0.376458057489    12.000000000000
         C           -2.437339157630     2.847626185075     0.379120851040    12.000000000000
         C           -1.209232020328     3.547901462969     0.365441824248    12.000000000000
         C            1.247137409430     3.534695279420     0.364633217843    12.000000000000
         C            0.015171876837     2.833126367296     0.376317401067    12.000000000000
         C            2.467641009709     2.821304505246     0.376417459191    12.000000000000
         C            3.702545311848     3.524674682415     0.362929498348    12.000000000000
         C            6.144976223652     4.927586894122     0.369098408420    12.000000000000
         C            6.166584196130     3.516599003933     0.371264961857    12.000000000000
         C            4.924605795728     2.808422453345     0.377803708094    12.000000000000
         H            7.089901346909     5.466902294214     0.365336527571     1.007825032230
         H           -7.031045913833     5.542702480848     0.364779775141     1.007825032230
         C           -7.339702203855     2.858426062570     0.368586999679    12.000000000000
         C           -7.364886120791     1.470337899574     0.370352537807    12.000000000000
         C           -4.903508771679     1.444441340151     0.365636273615    12.000000000000
         C           -6.132261315343     0.739953885044     0.377926317598    12.000000000000
         C           -3.676878963248     0.726711670664     0.376263990015    12.000000000000
         C           -2.445660748797     1.429655661253     0.365954279814    12.000000000000
         C           -1.223604844033     0.715339029625     0.377383544345    12.000000000000
         C            0.007633706582     1.417397677228     0.375849198063    12.000000000000
         C            1.231215645015     0.702131218578     0.357022612406    12.000000000000
         C            2.460816937799     1.403306564116     0.376527121297    12.000000000000
         C            3.684426091464     0.687212956203     0.375698335020    12.000000000000
         C            4.918704738807     1.391749089180     0.363296513384    12.000000000000
         C            7.369797915229     2.779496731175     0.369504542065    12.000000000000
         C            7.380158503390     1.391232035846     0.371051224910    12.000000000000
         C            6.139795376391     0.674133151191     0.377379566722    12.000000000000
         H           -8.279194962078     3.407132569115     0.364289447558     1.007825032230
         H            8.315109308748     3.318132624614     0.365293966265     1.007825032230
         C           -8.591760100313     0.724847081035     0.370692965424    12.000000000000
         C           -8.599028766435    -0.632625278238     0.372816090007    12.000000000000
         C           -6.139817301850    -0.674122109163     0.365826748672    12.000000000000
         C           -7.380188274869    -1.391251661591     0.373242810213    12.000000000000
         C           -4.918688642988    -1.391740490039     0.378167246822    12.000000000000
         C           -3.684442458416    -0.687222787745     0.367135006757    12.000000000000
         C           -2.460821202979    -1.403330650834     0.377678092947    12.000000000000
         C           -1.231166175052    -0.702159336890     0.365557714155    12.000000000000
         C           -0.007573788119    -1.417404321420     0.373014238458    12.000000000000
         C            1.223643553157    -0.715260849273     0.383019860407    12.000000000000
         C            2.445666486600    -1.429628761016     0.371269847647    12.000000000000
         C            3.676862540115    -0.726692903565     0.367129263252    12.000000000000
         C            6.132244683688    -0.739964311859     0.365601289040    12.000000000000
         C            4.903514982772    -1.444442992550     0.379442363580    12.000000000000
         C            8.599010685959     0.632618394658     0.370913341054    12.000000000000
         C            8.591741325369    -0.724836339203     0.372649721316    12.000000000000
         C            7.364858601658    -1.470318137615     0.372419544623    12.000000000000
         H           -9.528310134550     1.276861977183     0.369223038460     1.007825032230
         H            9.541406811874     1.174587016435     0.369861308793     1.007825032230
         C           -7.369842072500    -2.779530617943     0.375051018635    12.000000000000
         C           -4.924603271782    -2.808422729350     0.367319386199    12.000000000000
         C           -6.166626658399    -3.516637664835     0.373621226358    12.000000000000
         C           -3.702514522437    -3.524667021130     0.377643455385    12.000000000000
         C           -2.467651147846    -2.821311434813     0.365598817028    12.000000000000
         C           -0.015137636839    -2.833127117409     0.365880405537    12.000000000000
         C           -1.247126003958    -3.534717647572     0.377444358945    12.000000000000
         C            1.209240906912    -3.547900150653     0.379983388737    12.000000000000
         C            2.437331859423    -2.847627210185     0.365843630426    12.000000000000
         C            4.894298181039    -2.861108440295     0.366664370497    12.000000000000
         C            3.664611092309    -3.564205317541     0.379543790438    12.000000000000
         C            6.128634852014    -3.582569529727     0.372889632395    12.000000000000
         C            7.339668501964    -2.858398779380     0.374404858477    12.000000000000
         H           -9.541453273991    -1.174548938674     0.374185506180     1.007825032230
         H            9.528257705340    -1.276904545914     0.373899529077     1.007825032230
         H           -8.315169206580    -3.318135325222     0.379223247166     1.007825032230
         H            8.279150979760    -3.407126261903     0.378744414460     1.007825032230
         C           -6.144998351434    -4.927632744793     0.374947224418    12.000000000000
         C           -3.706787510729    -4.941247186127     0.365126256330    12.000000000000
         C           -4.955594220733    -5.643479445504     0.373093390975    12.000000000000
         C           -2.486125488958    -5.654771046419     0.378065927375    12.000000000000
         C           -1.254062498212    -4.956107522011     0.366890321389    12.000000000000
         C            1.201008411136    -4.969265860202     0.368071445647    12.000000000000
         C           -0.030340837145    -5.669505775148     0.375914645311    12.000000000000
         C            3.653745938597    -4.980729247424     0.368829445395    12.000000000000
         C            2.425488533144    -5.681160107537     0.378206375947    12.000000000000
         C            6.091961455079    -4.993243435396     0.375183859069    12.000000000000
         C            4.894972281879    -5.696333892967     0.373947663238    12.000000000000
         H           -7.089896550772    -5.466985314248     0.379349986099     1.007825032230
         H            7.031051046468    -5.542644008342     0.378763638832     1.007825032230
         C           -4.923549484930    -7.078806571687     0.372538622070    12.000000000000
         C           -2.485346250970    -7.087713549939     0.370028729634    12.000000000000
         C           -3.751690054511    -7.763932629646     0.370223408559    12.000000000000
         C           -0.037953119720    -7.099450346479     0.370244454782    12.000000000000
         C           -1.277960263133    -7.772889856676     0.368259762020    12.000000000000
         C            2.409440157995    -7.114007484012     0.371107655593    12.000000000000
         C            1.194745774421    -7.786170837572     0.368955364711    12.000000000000
         C            4.847616889766    -7.131247582589     0.373614470252    12.000000000000
         C            3.668467443144    -7.803773464953     0.371266035889    12.000000000000
         H           -5.869944513148    -7.613816070051     0.374082658936     1.007825032230
         H            5.788245462656    -7.676317661324     0.374741589734     1.007825032230
         H           -3.753531102181    -8.851057041246     0.368387494131     1.007825032230
         H           -1.284308568626    -8.860860864507     0.363832378162     1.007825032230
         H            1.189217411964    -8.874146092599     0.364862728021     1.007825032230
         H            3.658542452092    -8.890846106063     0.369611494466     1.007825032230

  Charge       = 0
  Multiplicity = 1
  Basis Set: JUN-CC-PVDZ
    Blend: JUN-CC-PVDZ
  Basis Set: (JUN-CC-PVDZ AUX)
    Blend: JUN-CC-PVDZ-JKFIT

    Orbital Energies [Eh]
    ---------------------

    Doubly Occupied:

       1A    -11.264096     2A    -11.263743     3A    -11.263742
       4A    -11.263346     5A    -11.263343     6A    -11.263320
       7A    -11.263165     8A    -11.263162     9A    -11.263147
      10A    -11.262955    11A    -11.262814    12A    -11.262809
      13A    -11.262323    14A    -11.262319    15A    -11.262284
      16A    -11.262283    17A    -11.262193    18A    -11.262176
      19A    -11.262119    20A    -11.262085    21A    -11.262083
      22A    -11.261963    23A    -11.261959    24A    -11.261809
      25A    -11.261806    26A    -11.261785    27A    -11.261778
      28A    -11.261740    29A    -11.261732    30A    -11.261648
      31A    -11.261624    32A    -11.261621    33A    -11.261590
      34A    -11.261589    35A    -11.261585    36A    -11.261565
      37A    -11.261390    38A    -11.261380    39A    -11.261374
      40A    -11.261367    41A    -11.261363    42A    -11.261356
      43A    -11.261346    44A    -11.261330    45A    -11.261325
      46A    -11.261304    47A    -11.261300    48A    -11.261296
      49A    -11.261129    50A    -11.261094    51A    -11.261091
      52A    -11.261009    53A    -11.261008    54A    -11.260944
      55A    -11.259987    56A    -11.259973    57A    -11.259971
      58A    -11.259942    59A    -11.259940    60A    -11.259924
      61A    -11.259361    62A    -11.259336    63A    -11.259334
      64A    -11.259281    65A    -11.259279    66A    -11.259250
      67A    -11.258991    68A    -11.258973    69A    -11.258971
      70A    -11.258943    71A    -11.258941    72A    -11.258929
      73A    -11.254572    74A    -11.254571    75A    -11.254568
      76A    -11.254566    77A    -11.254561    78A    -11.254559
      79A    -11.253715    80A    -11.253713    81A    -11.253711
      82A    -11.253709    83A    -11.253708    84A    -11.253702
      85A    -11.253630    86A    -11.253628    87A    -11.253626
      88A    -11.253625    89A    -11.253623    90A    -11.253617
      91A    -11.253099    92A    -11.253098    93A    -11.253096
      94A    -11.253094    95A    -11.253089    96A    -11.253087
      97A     -1.254051    98A     -1.239093    99A     -1.239093
     100A     -1.220549   101A     -1.220544   102A     -1.215526
     103A     -1.201117   104A     -1.195684   105A     -1.188231
     106A     -1.188229   107A     -1.173837   108A     -1.173834
     109A     -1.155722   110A     -1.155718   111A     -1.152804
     112A     -1.144791   113A     -1.144788   114A     -1.128659
     115A     -1.114809   116A     -1.113230   117A     -1.112565
     118A     -1.112551   119A     -1.111685   120A     -1.088516
     121A     -1.088501   122A     -1.077027   123A     -1.077026
     124A     -1.067701   125A     -1.067672   126A     -1.065059
     127A     -1.046882   128A     -1.046875   129A     -1.040566
     130A     -1.038801   131A     -1.038800   132A     -1.025332
     133A     -1.021481   134A     -1.021430   135A     -1.007254
     136A     -1.006901   137A     -1.003870   138A     -1.000579
     139A     -1.000531   140A     -0.991138   141A     -0.971072
     142A     -0.971024   143A     -0.955954   144A     -0.955898
     145A     -0.905691   146A     -0.905648   147A     -0.905612
     148A     -0.905572   149A     -0.904436   150A     -0.892473
     151A     -0.892414   152A     -0.890452   153A     -0.890395
     154A     -0.889545   155A     -0.872285   156A     -0.869111
     157A     -0.851613   158A     -0.847958   159A     -0.847936
     160A     -0.845687   161A     -0.843113   162A     -0.834643
     163A     -0.834631   164A     -0.828180   165A     -0.828176
     166A     -0.784626   167A     -0.784615   168A     -0.783740
     169A     -0.783714   170A     -0.782373   171A     -0.782353
     172A     -0.782123   173A     -0.767070   174A     -0.760891
     175A     -0.750658   176A     -0.733552   177A     -0.727151
     178A     -0.727138   179A     -0.725171   180A     -0.724620
     181A     -0.724602   182A     -0.718581   183A     -0.713860
     184A     -0.713854   185A     -0.699652   186A     -0.699640
     187A     -0.686217   188A     -0.686029   189A     -0.686027
     190A     -0.682249   191A     -0.682238   192A     -0.678844
     193A     -0.653695   194A     -0.650947   195A     -0.650917
     196A     -0.649899   197A     -0.649884   198A     -0.649634
     199A     -0.641019   200A     -0.640993   201A     -0.640160
     202A     -0.639229   203A     -0.636102   204A     -0.636075
     205A     -0.629223   206A     -0.617751   207A     -0.615370
     208A     -0.615351   209A     -0.608875   210A     -0.608868
     211A     -0.599154   212A     -0.599117   213A     -0.598821
     214A     -0.598699   215A     -0.598674   216A     -0.598114
     217A     -0.595136   218A     -0.595124   219A     -0.594799
     220A     -0.594326   221A     -0.592036   222A     -0.592033
     223A     -0.587488   224A     -0.577851   225A     -0.577841
     226A     -0.575701   227A     -0.575698   228A     -0.573455
     229A     -0.569627   230A     -0.568222   231A     -0.568199
     232A     -0.566831   233A     -0.566821   234A     -0.560969
     235A     -0.558801   236A     -0.558783   237A     -0.558484
     238A     -0.554446   239A     -0.550600   240A     -0.547530
     241A     -0.544309   242A     -0.535031   243A     -0.534991
     244A     -0.533602   245A     -0.533580   246A     -0.528143
     247A     -0.528128   248A     -0.527886   249A     -0.517240
     250A     -0.517206   251A     -0.515396   252A     -0.515391
     253A     -0.509708   254A     -0.509692   255A     -0.498100
     256A     -0.496522   257A     -0.496496   258A     -0.493804
     259A     -0.493794   260A     -0.489485   261A     -0.481518
     262A     -0.477461   263A     -0.477458   264A     -0.474065
     265A     -0.469526   266A     -0.466603   267A     -0.466599
     268A     -0.458843   269A     -0.446781   270A     -0.446720
     271A     -0.441064   272A     -0.440811   273A     -0.440788
     274A     -0.434729   275A     -0.433949   276A     -0.407413
     277A     -0.407389   278A     -0.386445   279A     -0.386397
     280A     -0.385772   281A     -0.385771   282A     -0.383796
     283A     -0.354367   284A     -0.354350   285A     -0.350705
     286A     -0.338112   287A     -0.335643   288A     -0.335573
     289A     -0.332753   290A     -0.332747   291A     -0.307126
     292A     -0.301978   293A     -0.301915   294A     -0.300885
     295A     -0.286209   296A     -0.256504   297A     -0.253546
     298A     -0.253494   299A     -0.204298   300A     -0.204208

  @DF-RHF Final Energy: -3650.33861983286079

   => Energetics <=

    Nuclear Repulsion Energy =          15611.4211649754324753
    One-Electron Energy =              -36072.1046693793759914
    Two-Electron Energy =               16810.3448845710845490
    Total Energy =                      -3650.3386198328589671
 Dipole X            :         -0.0007558            0.0002304           -0.0005254
 Dipole Y            :          0.0011233           -0.0013052           -0.0001819
 Dipole Z            :       -421.7022899          421.7048573            0.0025673
 Magnitude           :                                                    0.0026269

    SAPT Results
  --------------------------------------------------------------------------------------------------------
    Electrostatics                 10.42719135 [mEh]       6.54316136 [kcal/mol]      27.37658712 [kJ/mol]
      Elst10,r                     10.42719135 [mEh]       6.54316136 [kcal/mol]      27.37658712 [kJ/mol]

    Exchange                        0.09942966 [mEh]       0.06239305 [kcal/mol]       0.26105252 [kJ/mol]
      Exch10                        0.09942966 [mEh]       0.06239305 [kcal/mol]       0.26105252 [kJ/mol]
      Exch10(S^2)                   0.09943363 [mEh]       0.06239554 [kcal/mol]       0.26106295 [kJ/mol]

    Induction                      -7.16703712 [mEh]      -4.49738369 [kcal/mol]     -18.81705336 [kJ/mol]
      Ind20,r                      -7.22710445 [mEh]      -4.53507651 [kcal/mol]     -18.97476012 [kJ/mol]
      Exch-Ind20,r                  0.01731815 [mEh]       0.01086730 [kcal/mol]       0.04546880 [kJ/mol]
      delta HF,r (2)                0.04274918 [mEh]       0.02682552 [kcal/mol]       0.11223796 [kJ/mol]

    Dispersion                     -1.92289908 [mEh]      -1.20663739 [kcal/mol]      -5.04857083 [kJ/mol]
      Disp20                       -1.95047724 [mEh]      -1.22394294 [kcal/mol]      -5.12097728 [kJ/mol]
      Exch-Disp20                   0.02757816 [mEh]       0.01730556 [kcal/mol]       0.07240645 [kJ/mol]
      Disp20 (SS)                  -0.97523862 [mEh]      -0.61197147 [kcal/mol]      -2.56048864 [kJ/mol]
      Disp20 (OS)                  -0.97523862 [mEh]      -0.61197147 [kcal/mol]      -2.56048864 [kJ/mol]
      Exch-Disp20 (SS)              0.01886003 [mEh]       0.01183485 [kcal/mol]       0.04951701 [kJ/mol]
      Exch-Disp20 (OS)              0.00871813 [mEh]       0.00547071 [kcal/mol]       0.02288944 [kJ/mol]

  Total HF                          3.35958389 [mEh]       2.10817072 [kcal/mol]       8.82058629 [kJ/mol]
  Total SAPT0                       1.43668481 [mEh]       0.90153333 [kcal/mol]       3.77201546 [kJ/mol]

  Special recipe for scaled SAPT0 (see Manual):
    Electrostatics sSAPT0          10.42719135 [mEh]       6.54316136 [kcal/mol]      27.37658712 [kJ/mol]
    Exchange sSAPT0                 0.09942966 [mEh]       0.06239305 [kcal/mol]       0.26105252 [kJ/mol]
    Induction sSAPT0               -7.16703919 [mEh]      -4.49738499 [kcal/mol]     -18.81705880 [kJ/mol]
    Dispersion sSAPT0              -1.92290238 [mEh]      -1.20663946 [kcal/mol]      -5.04857951 [kJ/mol]
  Total sSAPT0                      1.43667944 [mEh]       0.90152996 [kcal/mol]       3.77200134 [kJ/mol]
  --------------------------------------------------------------------------------------------------------

*** Psi4 exiting successfully. Buy a developer a beer!
