                               Psi4 1.9 release

  ==> Input File <==

--------------------------------------------------------------------------
memory 48 GB # how much memory is available ! Depends on the nodes/cores !

molecule dimer {
# monomer A
+1 1    # Charge and multiplicity
C  0.680067 1.417258 -5.715929
C -0.680504 1.419286 -5.715545
N -1.085635 1.420284 -4.397221
C  0.000108 1.423560 -3.615820
C -2.477365 1.469690 -3.929242
N  1.085222 1.420284 -4.397221
H  1.385146 1.409430 -6.533368
H -1.385302 1.419096 -6.533214
H -0.000009 1.425307 -2.534731
C  2.478117 1.403392 -3.932123
H  2.490592 1.430737 -2.841870
H  2.967028 0.489946 -4.279299
H  3.001428 2.278875 -4.323595
H -2.857359 2.491761 -4.009201
H -3.082679 0.799606 -4.542306
H -2.518128 1.142706 -2.889294
--
# monomer B
0 1     # Charge and multiplicity
C   1.22531237526482      0.70753866091955      0.00613762728373
C   1.22532433589282     -0.70753852257020     -0.00619318228664
C   -0.00000567409046      1.41496628609039     -0.00672680580738
C   2.45644923379077      1.41832825917820      0.00902448468363
C   0.00001130712078     -1.41497612663474      0.00347275151708
C   -1.22530046906674      0.70754574598412      0.00838914760619
C   2.45643823516184     -1.41832293188077     -0.00843833914343
C   -0.00000085313587      2.83680140328112     -0.00913035594137
C   3.68182717731192      0.70931832800114     -0.00808954934571
C   2.45512052870677      2.83422403348893     -0.00819210630633
C   3.68182158506039     -0.70933346742900      0.00798293467272
C   -1.22531311884624     -0.70752714354401     -0.00512042085974
C   1.22670006104402      3.54346985599427      0.00816696660346
C   0.00000526469929     -2.83678176723568      0.00832091913869
C   -2.45643555300670      1.41831729028492      0.00842454345199
C   2.45512389762097     -2.83422965658853      0.00783102630520
C   -1.22671388474763      3.54346943575023      0.00827029982280
C   4.91451777504333      1.42717324448953     -0.00160886631602
C   3.69315067131765      3.54279566454522     -0.00155906667985
C   -2.45643712022637     -1.41831290883911     -0.00846337726810
C   1.22670532178455     -3.54347386990643     -0.00780316414624
C   -2.45512491866593      2.83421703463423     -0.00818572995999
C   4.91452486062398     -1.42718653794377      0.00136387641845
C   1.22142509354026      4.97013443726031      0.00150231067809
C   4.89300870916237      2.82518837202648     -0.00039219795739
C   -1.22669652864725     -3.54347062507680     -0.00753595973677
C   -3.68181849668397      0.70932533873199     -0.00807686886569
C   3.69314758099218     -3.54280096939050      0.00148176697923
C   -1.22143177215231      4.97012866986289      0.00168580605083
C   6.13477145276790      0.68054831910577     -0.00083909176631
C   3.65678936045204      4.97295361556775     -0.00065042889723
C   -2.45512642789169     -2.83421472106065      0.00758666850712
C   -3.68181869921921     -0.70932533146830      0.00810055625144
C   4.89301309775526     -2.82519973363176      0.00021895393805
C   -0.00000059327114      5.65044773803267      0.00045449734393
C   6.13477559217374     -0.68055448207492      0.00042622874941
C   2.47813196269732      5.65357712333155      0.00063835075260
C   1.22142288457925     -4.97012668293268     -0.00129718634452
C   -3.69316190412301      3.54279732619245     -0.00139355922051
C   -1.22142804110313     -4.97011793159564     -0.00140994817719
C   -4.91452132810043      1.42717581899491     -0.00153192130862
C   3.65678749952045     -4.97295485423912      0.00080007163680
C   -2.47813805026426      5.65357479452875      0.00092287576113
C   -3.69314125872231     -3.54278984697859      0.00136564082345
C   -4.91451200321153     -1.42718062802730      0.00139857359209
C   -0.00000552908399     -5.65043791501335      0.00005899322272
C   -4.89302000425900      2.82518897091939     -0.00040227981744
C   2.47812647313991     -5.65357317188818     -0.00029052915548
C   -3.65679823041642      4.97295655404175     -0.00047374852278
C   -4.89299899901461     -2.82519139505969      0.00006491824035
C   -2.47812801824129     -5.65356579800621     -0.00056571680280
C   -6.13477002348955      0.68054913825639     -0.00086464346868
C   -3.65678835334731     -4.97294365097028      0.00058578382008
C   -6.13476456307132     -0.68055354348201      0.00040575295444
H   5.83528897565761      3.36927626695423      0.00396712770529
H   7.07385965258860      1.22821762089947     -0.00037744837300
H   4.60066374401555      5.51238117445323     -0.00014522814529
H   5.83528386714679     -3.36930568472863     -0.00423551337640
H   -0.00001167146422      6.73853104613662     -0.00389474766392
H   7.07386165167227     -1.22822657074368     -0.00008250934481
H   2.47331421164041      6.74068466339473      0.00017162982210
H   4.60066897122302     -5.51237575717576      0.00039007446835
H   -2.47331820069565      6.74068209160650      0.00047297644710
H   -0.00000978838621     -6.73852780445195      0.00458867820736
H   -5.83530143450167      3.36927132229595      0.00410314985360
H   2.47330840367253     -6.74068500242887      0.00027980126949
H   -4.60067436136587      5.51237839860371      0.00002010017831
H   -5.83527902699321     -3.36928859177951     -0.00451481925734
H   -2.47329986759855     -6.74067870613986     -0.00016951527498
H   -7.07385728692578      1.22822084484047     -0.00046143985387
H   -4.60067330624313     -5.51236229778631      0.00021776644566
H   -7.07385645456741     -1.22822025997701     -0.00017736581114

    units angstrom      # Angstroms are the default
    no_reorient         # Geometry fixed, default
    symmetry c1         # C1 symmetry, default
}

set {
    scf_type DF         # Density fitting, faster than exact integrals
    freeze_core True    # Freeze core electrons
    basis jun-cc-pVDZ   # Jun-cc-pVDZ basis set, recommended for sSAPT0 in https://doi.org/10.1063/1.4867135
}

energy('ssapt0')        # Compute sSAPT0 energy, includes also SAPT0
--------------------------------------------------------------------------

  //              Dimer HF             //
    Molecular point group: c1
  Charge       = 1
  Multiplicity = 1
  Basis Set: JUN-CC-PVDZ
    Blend: JUN-CC-PVDZ
  Basis Set: (JUN-CC-PVDZ AUX)
    Blend: JUN-CC-PVDZ-JKFIT
  @DF-RHF Final Energy: -2359.21244587700676
    Total Energy =                      -2359.2124458770067577
 Dipole X            :         -0.0020259            0.0006313           -0.0013946
 Dipole Y            :         -6.0462852            7.4856329            1.4393477
 Dipole Z            :         16.1765363          -21.5702647           -5.3937284
 Magnitude           :                                                    5.5824752
  //            Monomer A HF           //
    Molecular point group: c1
  Multiplicity = 1
  Basis Set: JUN-CC-PVDZ
    Blend: JUN-CC-PVDZ
  Basis Set: (JUN-CC-PVDZ AUX)
    Blend: JUN-CC-PVDZ-JKFIT
  @DF-RHF Final Energy:  -303.29806733047195
    Total Energy =                       -303.2980673304719517
  //            Monomer B HF           //
    Molecular point group: c1

    Geometry (in Angstrom), charge = 0, multiplicity = 1:

       Center              X                  Y                   Z               Mass
    ------------   -----------------  -----------------  -----------------  -----------------
      Gh(C)           0.680066520158     1.235968212970    -5.143558880763    12.000000000000
      Gh(C)          -0.680504479842     1.237996212970    -5.143174880763    12.000000000000
      Gh(N)          -1.085635479842     1.238994212970    -3.824850880763    14.003074004430
      Gh(C)           0.000107520158     1.242270212970    -3.043449880763    12.000000000000
      Gh(C)          -2.477365479842     1.288400212970    -3.356871880763    12.000000000000
      Gh(N)           1.085221520158     1.238994212970    -3.824850880763    14.003074004430
      Gh(H)           1.385145520158     1.228140212970    -5.960997880763     1.007825032230
      Gh(H)          -1.385302479842     1.237806212970    -5.960843880763     1.007825032230
      Gh(H)          -0.000009479842     1.244017212970    -1.962360880763     1.007825032230
      Gh(C)           2.478116520158     1.222102212970    -3.359752880763    12.000000000000
      Gh(H)           2.490591520158     1.249447212970    -2.269499880763     1.007825032230
      Gh(H)           2.967027520158     0.308656212970    -3.706928880763     1.007825032230
      Gh(H)           3.001427520158     2.097585212970    -3.751224880763     1.007825032230
      Gh(H)          -2.857359479842     2.310471212970    -3.436830880763     1.007825032230
      Gh(H)          -3.082679479842     0.618316212970    -3.969935880763     1.007825032230
      Gh(H)          -2.518128479842     0.961416212970    -2.316923880763     1.007825032230
         C            1.225311895423     0.526248873889     0.578507746521    12.000000000000
         C            1.225323856051    -0.888828309601     0.566176936951    12.000000000000
         C           -0.000006153932     1.233676499060     0.565643313430    12.000000000000
         C            2.456448753949     1.237038472148     0.581394603921    12.000000000000
         C            0.000010827279    -1.596265913665     0.575842870754    12.000000000000
         C           -1.225300948908     0.526255958954     0.580759266844    12.000000000000
         C            2.456437755320    -1.599612718911     0.563931780094    12.000000000000
         C           -0.000001332978     2.655511616251     0.563239763296    12.000000000000
         C            3.681826697470     0.528028540971     0.564280569892    12.000000000000
         C            2.455120048865     2.652934246459     0.564178012931    12.000000000000
         C            3.681821105219    -0.890623254459     0.580353053910    12.000000000000
         C           -1.225313598688    -0.888816930574     0.567249698378    12.000000000000
         C            1.226699581202     3.362180068964     0.580537085841    12.000000000000
         C            0.000004784858    -3.018071554266     0.580691038376    12.000000000000
         C           -2.456436032848     1.237027503255     0.580794662689    12.000000000000
         C            2.455123417779    -3.015519443619     0.580201145543    12.000000000000
         C           -1.226714364589     3.362179648720     0.580640419060    12.000000000000
         C            4.914517295202     1.245883457459     0.570761252921    12.000000000000
         C            3.693150191476     3.361505877515     0.570811052558    12.000000000000
         C           -2.456437600068    -1.599602695869     0.563906741969    12.000000000000
         C            1.226704841943    -3.724763656937     0.564566955091    12.000000000000
         C           -2.455125398508     2.652927247604     0.564184389277    12.000000000000
         C            4.914524380782    -1.608476324974     0.573733995656    12.000000000000
         C            1.221424613699     4.788844650230     0.573872429915    12.000000000000
         C            4.893008229321     2.643898584996     0.571977921280    12.000000000000
         C           -1.226697008489    -3.724760412107     0.564834159501    12.000000000000
         C           -3.681818976526     0.528035551702     0.564293250372    12.000000000000
         C            3.693147101150    -3.724090756421     0.573851886217    12.000000000000
         C           -1.221432251994     4.788838882833     0.574055925288    12.000000000000
         C            6.134770972926     0.499258532075     0.571531027471    12.000000000000
         C            3.656788880610     4.791663828537     0.571719690340    12.000000000000
         C           -2.455126907733    -3.015504508091     0.579956787744    12.000000000000
         C           -3.681819179061    -0.890615118499     0.580470675489    12.000000000000
         C            4.893012617914    -3.006489520662     0.572589073175    12.000000000000
         C           -0.000001073113     5.469157951002     0.572824616581    12.000000000000
         C            6.134775112332    -0.861844269105     0.572796347987    12.000000000000
         C            2.478131482856     5.472287336301     0.573008469990    12.000000000000
         C            1.221422404738    -5.151416469963     0.571072932893    12.000000000000
         C           -3.693162383965     3.361507539162     0.570976560017    12.000000000000
         C           -1.221428520945    -5.151407718626     0.570960171060    12.000000000000
         C           -4.914521807942     1.245886031965     0.570838197929    12.000000000000
         C            3.656787019679    -5.154244641269     0.573170190874    12.000000000000
         C           -2.478138530106     5.472285007498     0.573292994998    12.000000000000
         C           -3.693141738564    -3.724079634009     0.573735760061    12.000000000000
         C           -4.914512483053    -1.608470415058     0.573768692829    12.000000000000
         C           -0.000006008926    -5.831727702044     0.572429112460    12.000000000000
         C           -4.893020484101     2.643899183889     0.571967839420    12.000000000000
         C            2.478125993298    -5.834862958919     0.572079590082    12.000000000000
         C           -3.656798710258     4.791666767011     0.571896370715    12.000000000000
         C           -4.892999478856    -3.006481182090     0.572435037478    12.000000000000
         C           -2.478128498083    -5.834855585037     0.571804402435    12.000000000000
         C           -6.134770503331     0.499259351226     0.571505475769    12.000000000000
         C           -3.656788833189    -5.154233438001     0.572955903057    12.000000000000
         C           -6.134765042913    -0.861843330512     0.572775872192    12.000000000000
         H            5.835288495816     3.187986479924     0.576337246943     1.007825032230
         H            7.073859172747     1.046927833869     0.571992670864     1.007825032230
         H            4.600663264174     5.331091387423     0.572224891092     1.007825032230
         H            5.835283387305    -3.550595471759     0.568134605861     1.007825032230
         H           -0.000012151306     6.557241259106     0.568475371573     1.007825032230
         H            7.073861171831    -1.409516357774     0.572287609893     1.007825032230
         H            2.473313731799     6.559394876364     0.572541749059     1.007825032230
         H            4.600668491381    -5.693665544206     0.572760193706     1.007825032230
         H           -2.473318680537     6.559392304576     0.572843095684     1.007825032230
         H           -0.000010268228    -6.919817591482     0.576958797445     1.007825032230
         H           -5.835301914343     3.187981535266     0.576473269091     1.007825032230
         H            2.473307923831    -6.921974789459     0.572649920507     1.007825032230
         H           -4.600674841208     5.331088611573     0.572390219416     1.007825032230
         H           -5.835279506835    -3.550578378810     0.567855299980     1.007825032230
         H           -2.473300347440    -6.921968493170     0.572200603962     1.007825032230
         H           -7.073857766768     1.046931057810     0.571908679383     1.007825032230
         H           -4.600673786085    -5.693652084817     0.572587885683     1.007825032230
         H           -7.073856934409    -1.409510047007     0.572192753426     1.007825032230

  Charge       = 0
  Multiplicity = 1
  Basis Set: JUN-CC-PVDZ
    Blend: JUN-CC-PVDZ
  Basis Set: (JUN-CC-PVDZ AUX)
    Blend: JUN-CC-PVDZ-JKFIT

    Orbital Energies [Eh]
    ---------------------

    Doubly Occupied:

       1A    -11.260575     2A    -11.260112     3A    -11.260106
       4A    -11.259420     5A    -11.259395     6A    -11.259207
       7A    -11.259018     8A    -11.258940     9A    -11.258893
      10A    -11.258591    11A    -11.258567    12A    -11.258492
      13A    -11.258431    14A    -11.258426    15A    -11.258421
      16A    -11.258390    17A    -11.258384    18A    -11.258370
      19A    -11.258365    20A    -11.258357    21A    -11.258341
      22A    -11.258280    23A    -11.258262    24A    -11.257981
      25A    -11.257300    26A    -11.257249    27A    -11.257221
      28A    -11.257112    29A    -11.257098    30A    -11.257013
      31A    -11.256397    32A    -11.256335    33A    -11.256315
      34A    -11.256219    35A    -11.256216    36A    -11.256150
      37A    -11.252246    38A    -11.252243    39A    -11.252209
      40A    -11.252205    41A    -11.252201    42A    -11.252196
      43A    -11.251354    44A    -11.251353    45A    -11.251341
      46A    -11.251331    47A    -11.251328    48A    -11.251304
      49A    -11.250808    50A    -11.250804    51A    -11.250770
      52A    -11.250766    53A    -11.250762    54A    -11.250757
      55A     -1.243955    56A     -1.219718    57A     -1.219701
      58A     -1.189446    59A     -1.189431    60A     -1.180834
      61A     -1.157462    62A     -1.148882    63A     -1.135394
      64A     -1.135370    65A     -1.113098    66A     -1.113093
      67A     -1.082324    68A     -1.082318    69A     -1.078494
      70A     -1.065888    71A     -1.065881    72A     -1.039295
      73A     -1.024163    74A     -1.021658    75A     -1.021600
      76A     -1.017630    77A     -1.012704    78A     -0.986919
      79A     -0.986863    80A     -0.961782    81A     -0.961730
      82A     -0.894186    83A     -0.894165    84A     -0.887812
      85A     -0.886060    86A     -0.886015    87A     -0.881279
      88A     -0.881233    89A     -0.861798    90A     -0.837316
      91A     -0.818101    92A     -0.816498    93A     -0.812017
      94A     -0.812016    95A     -0.794589    96A     -0.794577
      97A     -0.746501    98A     -0.744741    99A     -0.733301
     100A     -0.733293   101A     -0.732078   102A     -0.732056
     103A     -0.716383   104A     -0.698873   105A     -0.698845
     106A     -0.693483   107A     -0.693447   108A     -0.661129
     109A     -0.652998   110A     -0.651039   111A     -0.650153
     112A     -0.650144   113A     -0.639261   114A     -0.639242
     115A     -0.629600   116A     -0.627404   117A     -0.627395
     118A     -0.606414   119A     -0.605724   120A     -0.601539
     121A     -0.599642   122A     -0.599582   123A     -0.593512
     124A     -0.591100   125A     -0.591072   126A     -0.585186
     127A     -0.576450   128A     -0.576345   129A     -0.567227
     130A     -0.567205   131A     -0.565840   132A     -0.565827
     133A     -0.558606   134A     -0.554746   135A     -0.554741
     136A     -0.538490   137A     -0.538488   138A     -0.538200
     139A     -0.538182   140A     -0.529604   141A     -0.528135
     142A     -0.522771   143A     -0.522744   144A     -0.500401
     145A     -0.495580   146A     -0.493130   147A     -0.487811
     148A     -0.484951   149A     -0.481637   150A     -0.481636
     151A     -0.470300   152A     -0.470292   153A     -0.450889
     154A     -0.450821   155A     -0.439028   156A     -0.439015
     157A     -0.404705   158A     -0.404682   159A     -0.403313
     160A     -0.375373   161A     -0.375369   162A     -0.349070
     163A     -0.337556   164A     -0.336493   165A     -0.336441
     166A     -0.311046   167A     -0.298044   168A     -0.284293
     169A     -0.284237   170A     -0.224853   171A     -0.224794

  @DF-RHF Final Energy: -2055.89474256520634

   => Energetics <=

    Nuclear Repulsion Energy =           6452.5568002797781446
    One-Electron Energy =              -15636.5116031458092039
    Two-Electron Energy =                7128.0600603008251710
    Total Energy =                      -2055.8947425652067977
 Dipole X            :         -0.0001431           -0.0000085           -0.0001516
 Dipole Y            :        117.1720962         -117.1648546            0.0072417
 Dipole Z            :       -369.9096383          369.9135436            0.0039053
 Magnitude           :                                                    0.0082290

    SAPT Results
  --------------------------------------------------------------------------------------------------------
    Electrostatics                -14.85688854 [mEh]      -9.32283831 [kcal/mol]     -39.00675548 [kJ/mol]
      Elst10,r                    -14.85688854 [mEh]      -9.32283831 [kcal/mol]     -39.00675548 [kJ/mol]

    Exchange                        8.76734713 [mEh]       5.50159338 [kcal/mol]      23.01866672 [kJ/mol]
      Exch10                        8.76734713 [mEh]       5.50159338 [kcal/mol]      23.01866672 [kJ/mol]
      Exch10(S^2)                   8.74332511 [mEh]       5.48651934 [kcal/mol]      22.95559691 [kJ/mol]

    Induction                     -13.54643992 [mEh]      -8.50051939 [kcal/mol]     -35.56617311 [kJ/mol]
      Ind20,r                     -13.53139258 [mEh]      -8.49107703 [kcal/mol]     -35.52666631 [kJ/mol]
      Exch-Ind20,r                  2.21115111 [mEh]       1.38751827 [kcal/mol]       5.80537645 [kJ/mol]
      delta HF,r (2)               -2.22619846 [mEh]      -1.39696062 [kcal/mol]      -5.84488324 [kJ/mol]

    Dispersion                    -16.50498133 [mEh]     -10.35703215 [kcal/mol]     -43.33382252 [kJ/mol]
      Disp20                      -17.26320214 [mEh]     -10.83282289 [kcal/mol]     -45.32453096 [kJ/mol]
      Exch-Disp20                   0.75822080 [mEh]       0.47579074 [kcal/mol]       1.99070844 [kJ/mol]
      Disp20 (SS)                  -8.63160107 [mEh]      -5.41641144 [kcal/mol]     -22.66226548 [kJ/mol]
      Disp20 (OS)                  -8.63160107 [mEh]      -5.41641144 [kcal/mol]     -22.66226548 [kJ/mol]
      Exch-Disp20 (SS)              0.46736637 [mEh]       0.29327682 [kcal/mol]       1.22707023 [kJ/mol]
      Exch-Disp20 (OS)              0.29085444 [mEh]       0.18251391 [kcal/mol]       0.76363821 [kJ/mol]

  Total HF                        -19.63598133 [mEh]     -12.32176431 [kcal/mol]     -51.55426188 [kJ/mol]
  Total SAPT0                     -36.14096266 [mEh]     -22.67879646 [kcal/mol]     -94.88808440 [kJ/mol]

  Special recipe for scaled SAPT0 (see Manual):
    Electrostatics sSAPT0         -14.85688854 [mEh]      -9.32283831 [kcal/mol]     -39.00675548 [kJ/mol]
    Exchange sSAPT0                 8.76734713 [mEh]       5.50159338 [kcal/mol]      23.01866672 [kJ/mol]
    Induction sSAPT0              -13.52816459 [mEh]      -8.48905144 [kcal/mol]     -35.51819124 [kJ/mol]
    Dispersion sSAPT0             -16.49871458 [mEh]     -10.35309971 [kcal/mol]     -43.31736917 [kJ/mol]
  Total sSAPT0                    -36.11642058 [mEh]     -22.66339607 [kcal/mol]     -94.82364917 [kJ/mol]
  --------------------------------------------------------------------------------------------------------

*** Psi4 exiting successfully. Buy a developer a beer!
