                               Psi4 1.9 release

  ==> Input File <==

--------------------------------------------------------------------------
memory 80 GB # how much memory is available ! Depends on the nodes/cores !

molecule dimer {
# monomer A
-1 1    # Charge and multiplicity
B -1.977592e-04  2.742729e-04 3.300034
F  1.123153e-16  1.430594e-17 4.712819
F  1.147860e+00  6.757812e-01 2.828893
F  1.191806e-02 -1.332011e+00 2.829095
F -1.159666e+00  6.560735e-01 2.829174
--
# monomer B
0 1     # Charge and multiplicity
C   -3.66844126402057      7.80375217008252      0.00190004133558
C   -4.84759871934653      7.13124183134024     -0.00046653359696
C   -4.89495929917518      5.69633040353158     -0.00103944469517
C   -3.65374067877320      4.98073034095895      0.00662099703436
C   -2.40942512149445      7.11398103667468      0.00209438359570
C   -2.42547734410473      5.68112195090346     -0.00491050527438
C   -1.19474401643570      7.78614419430947      0.00356656413763
C   0.03795902893699      7.09942164575698      0.00139585983271
C   0.03033258741920      5.66948955970466     -0.00408752508301
C   -1.20098450790502      4.96927034791531      0.00488220885047
C   1.27795782581485      7.77285944319479      0.00277170839332
C   2.48535808472416      7.08769688523756      0.00049722048857
C   2.48612868491717      5.65477081024076     -0.00644052849921
C   1.25408291964399      4.95607811366431      0.00518741308898
C   3.75171459140595      7.76391215098033      0.00062407186893
C   4.92356605618520      7.07878077698995     -0.00143240883900
C   4.95560727132542      5.64344746336949     -0.00159282164606
C   3.70680153420475      4.94121020833308      0.00349873852374
H   -3.65852113775815      8.89082741913536      0.00358502958574
H   -1.18921332975660      8.87412108735996      0.00753844057883
H   1.28429423888630      8.86083343548850      0.00693053253426
H   3.75354208679975      8.85103527897216      0.00214659618464
H   5.86995870320703      7.61379483465560     -0.00235777588134
H   -5.78823170750226      7.67630221293400     -0.00202638095293
C   -6.09197395869619      4.99326001364347     -0.00291168518608
C   -6.12866148031747      3.58258016879823     -0.00171050815740
C   -3.66457974004527      3.56418217974434     -0.00463560277484
C   -4.89429820469869      2.86108077590057      0.00453338221034
C   -2.43733499489796      2.84761165708481      0.00719617576166
C   -1.20922785759670      3.54788693497833     -0.00648285103018
C   1.24714157216223      3.53468075142962     -0.00729145743546
C   0.01517603956900      2.83311183930540      0.00439272578912
C   2.46764517244071      2.82128997725533      0.00449278391269
C   3.70254947457969      3.52466015442405     -0.00899517692985
C   6.14498038638375      4.92757236613191     -0.00282626685777
C   6.16658835886151      3.51658447594213     -0.00065971342101
C   4.92460995845939      2.80840792535402      0.00587903281610
H   7.08990550964105      5.46688776622306     -0.00658814770723
H   -7.03104175110130      5.54268795285765     -0.00714490013730
C   -7.33969804112295      2.85841153457957     -0.00333767559888
C   -7.36488195805880      1.47032337158330     -0.00157213747140
C   -4.90350460894690      1.44442681216000     -0.00628840166334
C   -6.13225715261081      0.73993935705394      0.00600164231964
C   -3.67687480051673      0.72669714267312      0.00433931473643
C   -2.44565658606518      1.42964113326212     -0.00597039546461
C   -1.22360068130162      0.71532450163492      0.00545886906656
C   0.00763786931376      1.41738314923765      0.00392452278437
C   1.23121980774686      0.70211669058719     -0.01490206287210
C   2.46082110053113      1.40329203612573      0.00460244601878
C   3.68443025419614      0.68719842821222      0.00377365974158
C   4.91870890153864      1.39173456118907     -0.00862816189375
C   7.36980207796101      2.77948220318441     -0.00242013321349
C   7.38016266612146      1.39121750785509     -0.00087345036788
C   6.13979953912259      0.67411862320065      0.00545489144369
H   -8.27919079934664      3.40711804112415     -0.00763522772059
H   8.31511347147953      3.31811809662368     -0.00663070901292
C   -8.59175593758115      0.72483255304480     -0.00123170985383
C   -8.59902460370342     -0.63263980622873      0.00089141472904
C   -6.13981313911873     -0.67413663715361     -0.00609792660607
C   -7.38018411213749     -1.39126618958160      0.00131813493501
C   -4.91868448025621     -1.39175501803000      0.00624257154343
C   -3.68443829568458     -0.68723731573599     -0.00478966852105
C   -2.46081704024768     -1.40334517882457      0.00575341766833
C   -1.23116201232071     -0.70217386488055     -0.00636696112346
C   -0.00756962538737     -1.41741884941102      0.00108956317991
C   1.22364771588843     -0.71527537726392      0.01109518512883
C   2.44567064933149     -1.42964328900682     -0.00065482763106
C   3.67686670284649     -0.72670743155550     -0.00479541202602
C   6.13224884641929     -0.73997883984993     -0.00632338623858
C   4.90351914550401     -1.44445752054090      0.00751768830159
C   8.59901484869081      0.63260386666793     -0.00101133422380
C   8.59174548810050     -0.72485086719319      0.00072504603735
C   7.36486276438985     -1.47033266560598      0.00049486934466
H   -9.52830597181814      1.27684744919284     -0.00270163681798
H   9.54141097460619      1.17457248844457     -0.00206336648518
C   -7.36983790976868     -2.77954514593389      0.00312634335708
C   -4.92459910905015     -2.80843725734101     -0.00460528907921
C   -6.16662249566744     -3.51665219282533      0.00169655107992
C   -3.70251035970491     -3.52468154912026      0.00571878010666
C   -2.46764698511392     -2.82132596280400     -0.00632585824990
C   -0.01513347410770     -2.83314164539971     -0.00604426974092
C   -1.24712184122656     -3.53473217556300      0.00551968366725
C   1.20924506964357     -3.54791467864352      0.00805871345849
C   2.43733602215464     -2.84764173817541     -0.00608104485234
C   4.89430234377080     -2.86112296828604     -0.00526030478103
C   3.66461525504104     -3.56421984553201      0.00761911515957
C   6.12863901474565     -3.58258405771778      0.00096495711699
C   7.33967266469532     -2.85841330737039      0.00248018319869
H   -9.54144911125902     -1.17456346666430      0.00226083090216
H   9.52826186807155     -1.27691907390448      0.00197485379837
H   -8.31516504384864     -3.31814985321231      0.00729857188773
H   8.27915514249207     -3.40714078989363      0.00681973918158
C   -6.14499418870218     -4.92764727278338      0.00302254913999
C   -3.70678334799751     -4.94126171411716     -0.00679841894792
C   -4.95559005800169     -5.64349397349412      0.00116871569699
C   -2.48612132622665     -5.65478557440947      0.00614125209662
C   -1.25405833548005     -4.95612205000132     -0.00503435388927
C   1.20101257386816     -4.96928038819302     -0.00385322963129
C   -0.03033667441341     -5.66952030313900      0.00398997003238
C   3.65375010132847     -4.98074377541453     -0.00309522988330
C   2.42549269587528     -5.68117463552727      0.00628170066869
C   6.09196561781097     -4.99325796338655      0.00325918379042
C   4.89497644461045     -5.69634842095790      0.00202298796027
H   -7.08989238804069     -5.46699984223871      0.00742531082125
H   7.03105520920009     -5.54265853633254      0.00683896355417
C   -4.92354532219813     -7.07882109967734      0.00061394679214
C   -2.48534208823777     -7.08772807792913     -0.00189594564379
C   -3.75168589177895     -7.76394715763627     -0.00170126671874
C   -0.03794895698805     -7.09946487446944     -0.00168022049625
C   -1.27795610040136     -7.77290438466689     -0.00366491325785
C   2.40944432072629     -7.11402201200282     -0.00081701968533
C   1.19474993715296     -7.78618536556242     -0.00296931056689
C   4.84762105249800     -7.13126211057943      0.00168979497423
C   3.66847160587561     -7.80378799294376     -0.00065863938960
H   -5.86994035041618     -7.61383059804164      0.00215798365757
H   5.78824962538815     -7.67633218931421      0.00281691445618
H   -3.75352693944918     -8.85107156923607     -0.00353718114765
H   -1.28430440589466     -8.86087539249706     -0.00809229711623
H   1.18922157469537     -8.87416062058945     -0.00706194725726
H   3.65854661482387     -8.89086063405326     -0.00231318081200

    units angstrom      # Angstroms are the default
    no_reorient         # Geometry fixed, default
    symmetry c1         # C1 symmetry, default
}

set {
    scf_type DF         # Density fitting, faster than exact integrals
    freeze_core True    # Freeze core electrons
    basis jun-cc-pVDZ   # Jun-cc-pVDZ basis set, recommended for sSAPT0 in https://doi.org/10.1063/1.4867135
}

energy('ssapt0')        # Compute sSAPT0 energy, includes also SAPT0
--------------------------------------------------------------------------

  //              Dimer HF             //
    Molecular point group: c1
  Charge       = -1
  Multiplicity = 1
  Basis Set: JUN-CC-PVDZ
    Blend: JUN-CC-PVDZ
  Basis Set: (JUN-CC-PVDZ AUX)
    Blend: JUN-CC-PVDZ-JKFIT
  @DF-RHF Final Energy: -4073.11011300845166
    Total Energy =                      -4073.1101130084498436
 Dipole X            :          0.0021313           -0.0000548            0.0020765
 Dipole Y            :          0.0018450           -0.0002464            0.0015986
 Dipole Z            :         15.4820334          -19.6391741           -4.1571407
 Magnitude           :                                                    4.1571415
  //            Monomer A HF           //
    Molecular point group: c1
  Multiplicity = 1
  Basis Set: JUN-CC-PVDZ
    Blend: JUN-CC-PVDZ
  Basis Set: (JUN-CC-PVDZ AUX)
    Blend: JUN-CC-PVDZ-JKFIT
  @DF-RHF Final Energy:  -422.77431542125538
    Total Energy =                       -422.7743154212553804
  //            Monomer B HF           //
    Molecular point group: c1

    Geometry (in Angstrom), charge = 0, multiplicity = 1:

       Center              X                  Y                   Z               Mass
    ------------   -----------------  -----------------  -----------------  -----------------
      Gh(B)          -0.000201921932     0.000288800891     3.072741648554    11.009305360000
      Gh(F)          -0.000004162732     0.000014527991     4.485526648554    18.998403162730
      Gh(F)           1.147855837268     0.675795727991     2.601600648554    18.998403162730
      Gh(F)           0.011913897268    -1.331996472009     2.601802648554    18.998403162730
      Gh(F)          -1.159670162732     0.656088027991     2.601881648554    18.998403162730
         C           -3.668445426752     7.803766698073    -0.225392310110    12.000000000000
         C           -4.847602882078     7.131256359331    -0.227758885042    12.000000000000
         C           -4.894963461907     5.696344931522    -0.228331796141    12.000000000000
         C           -3.653744841505     4.980744868950    -0.220671354411    12.000000000000
         C           -2.409429284226     7.113995564665    -0.225197967850    12.000000000000
         C           -2.425481506836     5.681136478894    -0.232202856720    12.000000000000
         C           -1.194748179167     7.786158722300    -0.223725787308    12.000000000000
         C            0.037954866205     7.099436173748    -0.225896491613    12.000000000000
         C            0.030328424687     5.669504087695    -0.231379876529    12.000000000000
         C           -1.200988670637     4.969284875906    -0.222410142595    12.000000000000
         C            1.277953663083     7.772873971185    -0.224520643052    12.000000000000
         C            2.485353921992     7.087711413228    -0.226795130957    12.000000000000
         C            2.486124522185     5.654785338231    -0.233732879945    12.000000000000
         C            1.254078756912     4.956092641655    -0.222104938357    12.000000000000
         C            3.751710428674     7.763926678971    -0.226668279577    12.000000000000
         C            4.923561893453     7.078795304981    -0.228724760285    12.000000000000
         C            4.955603108594     5.643461991360    -0.228885173092    12.000000000000
         C            3.706797371473     4.941224736324    -0.223793612922    12.000000000000
         H           -3.658525300490     8.890841947126    -0.223707321860     1.007825032230
         H           -1.189217492488     8.874135615351    -0.219753910867     1.007825032230
         H            1.284290076155     8.860847963479    -0.220361818911     1.007825032230
         H            3.753537924068     8.851049806963    -0.225145755261     1.007825032230
         H            5.869954540475     7.613809362646    -0.229650127327     1.007825032230
         H           -5.788235870234     7.676316740925    -0.229318732398     1.007825032230
         C           -6.091978121428     4.993274541634    -0.230204036632    12.000000000000
         C           -6.128665643049     3.582594696789    -0.229002859603    12.000000000000
         C           -3.664583902777     3.564196707735    -0.231927954220    12.000000000000
         C           -4.894302367430     2.861095303891    -0.222758969235    12.000000000000
         C           -2.437339157630     2.847626185075    -0.220096175684    12.000000000000
         C           -1.209232020328     3.547901462969    -0.233775202476    12.000000000000
         C            1.247137409430     3.534695279420    -0.234583808881    12.000000000000
         C            0.015171876837     2.833126367296    -0.222899625656    12.000000000000
         C            2.467641009709     2.821304505246    -0.222799567533    12.000000000000
         C            3.702545311848     3.524674682415    -0.236287528375    12.000000000000
         C            6.144976223652     4.927586894122    -0.230118618303    12.000000000000
         C            6.166584196130     3.516599003933    -0.227952064867    12.000000000000
         C            4.924605795728     2.808422453345    -0.221413318629    12.000000000000
         H            7.089901346909     5.466902294214    -0.233880499153     1.007825032230
         H           -7.031045913833     5.542702480848    -0.234437251583     1.007825032230
         C           -7.339702203855     2.858426062570    -0.230630027044    12.000000000000
         C           -7.364886120791     1.470337899574    -0.228864488917    12.000000000000
         C           -4.903508771679     1.444441340151    -0.233580753109    12.000000000000
         C           -6.132261315343     0.739953885044    -0.221290709126    12.000000000000
         C           -3.676878963248     0.726711670664    -0.222953036709    12.000000000000
         C           -2.445660748797     1.429655661253    -0.233262746910    12.000000000000
         C           -1.223604844033     0.715339029625    -0.221833482379    12.000000000000
         C            0.007633706582     1.417397677228    -0.223367828661    12.000000000000
         C            1.231215645015     0.702131218578    -0.242194414318    12.000000000000
         C            2.460816937799     1.403306564116    -0.222689905427    12.000000000000
         C            3.684426091464     0.687212956203    -0.223518691704    12.000000000000
         C            4.918704738807     1.391749089180    -0.235920513339    12.000000000000
         C            7.369797915229     2.779496731175    -0.229712484659    12.000000000000
         C            7.380158503390     1.391232035846    -0.228165801813    12.000000000000
         C            6.139795376391     0.674133151191    -0.221837460002    12.000000000000
         H           -8.279194962078     3.407132569115    -0.234927579166     1.007825032230
         H            8.315109308748     3.318132624614    -0.233923060458     1.007825032230
         C           -8.591760100313     0.724847081035    -0.228524061299    12.000000000000
         C           -8.599028766435    -0.632625278238    -0.226400936716    12.000000000000
         C           -6.139817301850    -0.674122109163    -0.233390278052    12.000000000000
         C           -7.380188274869    -1.391251661591    -0.225974216511    12.000000000000
         C           -4.918688642988    -1.391740490039    -0.221049779902    12.000000000000
         C           -3.684442458416    -0.687222787745    -0.232082019967    12.000000000000
         C           -2.460821202979    -1.403330650834    -0.221538933777    12.000000000000
         C           -1.231166175052    -0.702159336890    -0.233659312569    12.000000000000
         C           -0.007573788119    -1.417404321420    -0.226202788266    12.000000000000
         C            1.223643553157    -0.715260849273    -0.216197166317    12.000000000000
         C            2.445666486600    -1.429628761016    -0.227947179077    12.000000000000
         C            3.676862540115    -0.726692903565    -0.232087763472    12.000000000000
         C            6.132244683688    -0.739964311859    -0.233615737684    12.000000000000
         C            4.903514982772    -1.444442992550    -0.219774663144    12.000000000000
         C            8.599010685959     0.632618394658    -0.228303685669    12.000000000000
         C            8.591741325369    -0.724836339203    -0.226567305408    12.000000000000
         C            7.364858601658    -1.470318137615    -0.226797482101    12.000000000000
         H           -9.528310134550     1.276861977183    -0.229993988263     1.007825032230
         H            9.541406811874     1.174587016435    -0.229355717931     1.007825032230
         C           -7.369842072500    -2.779530617943    -0.224166008088    12.000000000000
         C           -4.924603271782    -2.808422729350    -0.231897640525    12.000000000000
         C           -6.166626658399    -3.516637664835    -0.225595800366    12.000000000000
         C           -3.702514522437    -3.524667021130    -0.221573571339    12.000000000000
         C           -2.467651147846    -2.821311434813    -0.233618209695    12.000000000000
         C           -0.015137636839    -2.833127117409    -0.233336621186    12.000000000000
         C           -1.247126003958    -3.534717647572    -0.221772667778    12.000000000000
         C            1.209240906912    -3.547900150653    -0.219233637987    12.000000000000
         C            2.437331859423    -2.847627210185    -0.233373396298    12.000000000000
         C            4.894298181039    -2.861108440295    -0.232552656227    12.000000000000
         C            3.664611092309    -3.564205317541    -0.219673236286    12.000000000000
         C            6.128634852014    -3.582569529727    -0.226327394329    12.000000000000
         C            7.339668501964    -2.858398779380    -0.224812168247    12.000000000000
         H           -9.541453273991    -1.174548938674    -0.225031520543     1.007825032230
         H            9.528257705340    -1.276904545914    -0.225317497647     1.007825032230
         H           -8.315169206580    -3.318135325222    -0.219993779558     1.007825032230
         H            8.279150979760    -3.407126261903    -0.220472612264     1.007825032230
         C           -6.144998351434    -4.927632744793    -0.224269802306    12.000000000000
         C           -3.706787510729    -4.941247186127    -0.234090770393    12.000000000000
         C           -4.955594220733    -5.643479445504    -0.226123635749    12.000000000000
         C           -2.486125488958    -5.654771046419    -0.221151099349    12.000000000000
         C           -1.254062498212    -4.956107522011    -0.232326705335    12.000000000000
         C            1.201008411136    -4.969265860202    -0.231145581077    12.000000000000
         C           -0.030340837145    -5.669505775148    -0.223302381413    12.000000000000
         C            3.653745938597    -4.980729247424    -0.230387581329    12.000000000000
         C            2.425488533144    -5.681160107537    -0.221010650777    12.000000000000
         C            6.091961455079    -4.993243435396    -0.224033167655    12.000000000000
         C            4.894972281879    -5.696333892967    -0.225269363485    12.000000000000
         H           -7.089896550772    -5.466985314248    -0.219867040624     1.007825032230
         H            7.031051046468    -5.542644008342    -0.220453387891     1.007825032230
         C           -4.923549484930    -7.078806571687    -0.226678404653    12.000000000000
         C           -2.485346250970    -7.087713549939    -0.229188297089    12.000000000000
         C           -3.751690054511    -7.763932629646    -0.228993618164    12.000000000000
         C           -0.037953119720    -7.099450346479    -0.228972571942    12.000000000000
         C           -1.277960263133    -7.772889856676    -0.230957264703    12.000000000000
         C            2.409440157995    -7.114007484012    -0.228109371131    12.000000000000
         C            1.194745774421    -7.786170837572    -0.230261662012    12.000000000000
         C            4.847616889766    -7.131247582589    -0.225602556471    12.000000000000
         C            3.668467443144    -7.803773464953    -0.227950990835    12.000000000000
         H           -5.869944513148    -7.613816070051    -0.225134367788     1.007825032230
         H            5.788245462656    -7.676317661324    -0.224475436989     1.007825032230
         H           -3.753531102181    -8.851057041246    -0.230829532593     1.007825032230
         H           -1.284308568626    -8.860860864507    -0.235384648562     1.007825032230
         H            1.189217411964    -8.874146092599    -0.234354298703     1.007825032230
         H            3.658542452092    -8.890846106063    -0.229605532258     1.007825032230

  Charge       = 0
  Multiplicity = 1
  Basis Set: JUN-CC-PVDZ
    Blend: JUN-CC-PVDZ
  Basis Set: (JUN-CC-PVDZ AUX)
    Blend: JUN-CC-PVDZ-JKFIT

    Orbital Energies [Eh]
    ---------------------

    Doubly Occupied:

       1A    -11.264108     2A    -11.263755     3A    -11.263751
       4A    -11.263348     5A    -11.263344     6A    -11.263302
       7A    -11.263159     8A    -11.263144     9A    -11.263135
      10A    -11.262906    11A    -11.262783    12A    -11.262778
      13A    -11.262284    14A    -11.262282    15A    -11.262244
      16A    -11.262240    17A    -11.262131    18A    -11.262124
      19A    -11.262081    20A    -11.262037    21A    -11.262033
      22A    -11.261925    23A    -11.261920    24A    -11.261770
      25A    -11.261757    26A    -11.261739    27A    -11.261733
      28A    -11.261690    29A    -11.261681    30A    -11.261581
      31A    -11.261568    32A    -11.261561    33A    -11.261560
      34A    -11.261536    35A    -11.261536    36A    -11.261519
      37A    -11.261338    38A    -11.261330    39A    -11.261324
      40A    -11.261317    41A    -11.261311    42A    -11.261308
      43A    -11.261293    44A    -11.261277    45A    -11.261273
      46A    -11.261247    47A    -11.261244    48A    -11.261235
      49A    -11.261067    50A    -11.261042    51A    -11.261034
      52A    -11.260970    53A    -11.260967    54A    -11.260913
      55A    -11.259914    56A    -11.259901    57A    -11.259898
      58A    -11.259869    59A    -11.259867    60A    -11.259851
      61A    -11.259285    62A    -11.259259    63A    -11.259257
      64A    -11.259203    65A    -11.259201    66A    -11.259171
      67A    -11.258916    68A    -11.258899    69A    -11.258896
      70A    -11.258868    71A    -11.258866    72A    -11.258853
      73A    -11.254532    74A    -11.254531    75A    -11.254526
      76A    -11.254525    77A    -11.254525    78A    -11.254524
      79A    -11.253657    80A    -11.253656    81A    -11.253654
      82A    -11.253651    83A    -11.253649    84A    -11.253648
      85A    -11.253573    86A    -11.253572    87A    -11.253569
      88A    -11.253567    89A    -11.253564    90A    -11.253563
      91A    -11.253060    92A    -11.253059    93A    -11.253054
      94A    -11.253053    95A    -11.253053    96A    -11.253052
      97A     -1.253922    98A     -1.238987    99A     -1.238986
     100A     -1.220460   101A     -1.220454   102A     -1.215417
     103A     -1.201040   104A     -1.195606   105A     -1.188126
     106A     -1.188122   107A     -1.173766   108A     -1.173763
     109A     -1.155617   110A     -1.155615   111A     -1.152692
     112A     -1.144726   113A     -1.144723   114A     -1.128559
     115A     -1.114703   116A     -1.113165   117A     -1.112463
     118A     -1.112447   119A     -1.111623   120A     -1.088420
     121A     -1.088404   122A     -1.076964   123A     -1.076962
     124A     -1.067607   125A     -1.067578   126A     -1.064954
     127A     -1.046796   128A     -1.046788   129A     -1.040474
     130A     -1.038737   131A     -1.038737   132A     -1.025229
     133A     -1.021360   134A     -1.021309   135A     -1.007180
     136A     -1.006805   137A     -1.003793   138A     -1.000477
     139A     -1.000429   140A     -0.991078   141A     -0.970980
     142A     -0.970931   143A     -0.955882   144A     -0.955826
     145A     -0.905573   146A     -0.905553   147A     -0.905529
     148A     -0.905513   149A     -0.904306   150A     -0.892348
     151A     -0.892289   152A     -0.890349   153A     -0.890291
     154A     -0.889448   155A     -0.872217   156A     -0.869061
     157A     -0.851539   158A     -0.847853   159A     -0.847832
     160A     -0.845583   161A     -0.843009   162A     -0.834557
     163A     -0.834548   164A     -0.828117   165A     -0.828113
     166A     -0.784543   167A     -0.784532   168A     -0.783649
     169A     -0.783622   170A     -0.782279   171A     -0.782258
     172A     -0.782020   173A     -0.766988   174A     -0.760774
     175A     -0.750557   176A     -0.733485   177A     -0.727065
     178A     -0.727052   179A     -0.725076   180A     -0.724538
     181A     -0.724519   182A     -0.718468   183A     -0.713756
     184A     -0.713749   185A     -0.699569   186A     -0.699557
     187A     -0.686098   188A     -0.685955   189A     -0.685951
     190A     -0.682171   191A     -0.682161   192A     -0.678757
     193A     -0.653615   194A     -0.650862   195A     -0.650832
     196A     -0.649793   197A     -0.649777   198A     -0.649564
     199A     -0.640905   200A     -0.640878   201A     -0.640086
     202A     -0.639162   203A     -0.636005   204A     -0.635978
     205A     -0.629134   206A     -0.617707   207A     -0.615302
     208A     -0.615282   209A     -0.608796   210A     -0.608790
     211A     -0.599113   212A     -0.599082   213A     -0.598731
     214A     -0.598593   215A     -0.598572   216A     -0.598010
     217A     -0.595065   218A     -0.595052   219A     -0.594714
     220A     -0.594211   221A     -0.591940   222A     -0.591937
     223A     -0.587367   224A     -0.577796   225A     -0.577786
     226A     -0.575666   227A     -0.575663   228A     -0.573377
     229A     -0.569570   230A     -0.568118   231A     -0.568094
     232A     -0.566742   233A     -0.566731   234A     -0.560913
     235A     -0.558699   236A     -0.558680   237A     -0.558426
     238A     -0.554358   239A     -0.550543   240A     -0.547474
     241A     -0.544255   242A     -0.535029   243A     -0.534992
     244A     -0.533527   245A     -0.533505   246A     -0.528071
     247A     -0.528056   248A     -0.527765   249A     -0.517140
     250A     -0.517106   251A     -0.515343   252A     -0.515337
     253A     -0.509637   254A     -0.509621   255A     -0.498021
     256A     -0.496439   257A     -0.496412   258A     -0.493799
     259A     -0.493786   260A     -0.489425   261A     -0.481446
     262A     -0.477409   263A     -0.477407   264A     -0.473987
     265A     -0.469426   266A     -0.466512   267A     -0.466508
     268A     -0.458787   269A     -0.446658   270A     -0.446597
     271A     -0.441031   272A     -0.440759   273A     -0.440736
     274A     -0.434677   275A     -0.433903   276A     -0.407363
     277A     -0.407339   278A     -0.386384   279A     -0.386335
     280A     -0.385725   281A     -0.385723   282A     -0.383722
     283A     -0.354302   284A     -0.354286   285A     -0.350642
     286A     -0.338096   287A     -0.335570   288A     -0.335495
     289A     -0.332704   290A     -0.332697   291A     -0.307024
     292A     -0.301919   293A     -0.301857   294A     -0.300842
     295A     -0.286163   296A     -0.256473   297A     -0.253464
     298A     -0.253410   299A     -0.204254   300A     -0.204165

  @DF-RHF Final Energy: -3650.34022499297134

   => Energetics <=

    Nuclear Repulsion Energy =          15611.4211649754324753
    One-Electron Energy =              -36072.1499070169156766
    Two-Electron Energy =               16810.3885170485118579
    Total Energy =                      -3650.3402249929713435
 Dipole X            :          0.0001472            0.0002304            0.0003776
 Dipole Y            :          0.0014236           -0.0013052            0.0001184
 Dipole Z            :        257.7104974         -257.7087849            0.0017126
 Magnitude           :                                                    0.0017577

    SAPT Results
  --------------------------------------------------------------------------------------------------------
    Electrostatics                  2.82527233 [mEh]       1.77288515 [kcal/mol]       7.41775149 [kJ/mol]
      Elst10,r                      2.82527233 [mEh]       1.77288515 [kcal/mol]       7.41775149 [kJ/mol]

    Exchange                       24.84247189 [mEh]      15.58888646 [kcal/mol]      65.22390095 [kJ/mol]
      Exch10                       24.84247189 [mEh]      15.58888646 [kcal/mol]      65.22390095 [kJ/mol]
      Exch10(S^2)                  24.77551105 [mEh]      15.54686790 [kcal/mol]      65.04809530 [kJ/mol]

    Induction                     -23.24033844 [mEh]     -14.58353255 [kcal/mol]     -61.01750018 [kJ/mol]
      Ind20,r                     -29.99999591 [mEh]     -18.82528165 [kcal/mol]     -78.76497840 [kJ/mol]
      Exch-Ind20,r                  8.85239842 [mEh]       5.55496387 [kcal/mol]      23.24196885 [kJ/mol]
      delta HF,r (2)               -2.09274096 [mEh]      -1.31321478 [kcal/mol]      -5.49449063 [kJ/mol]

    Dispersion                    -15.82907596 [mEh]      -9.93289513 [kcal/mol]     -41.55923321 [kJ/mol]
      Disp20                      -18.88614744 [mEh]     -11.85123644 [kcal/mol]     -49.58557327 [kJ/mol]
      Exch-Disp20                   3.05707148 [mEh]       1.91834131 [kcal/mol]       8.02634006 [kJ/mol]
      Disp20 (SS)                  -9.44307372 [mEh]      -5.92561822 [kcal/mol]     -24.79278663 [kJ/mol]
      Disp20 (OS)                  -9.44307372 [mEh]      -5.92561822 [kcal/mol]     -24.79278663 [kJ/mol]
      Exch-Disp20 (SS)              1.75146450 [mEh]       1.09906057 [kcal/mol]       4.59846941 [kJ/mol]
      Exch-Disp20 (OS)              1.30560698 [mEh]       0.81928075 [kcal/mol]       3.42787065 [kJ/mol]

  Total HF                          4.42740578 [mEh]       2.77823907 [kcal/mol]      11.62415226 [kJ/mol]
  Total SAPT0                     -11.40167019 [mEh]      -7.15465606 [kcal/mol]     -29.93508095 [kJ/mol]

  Special recipe for scaled SAPT0 (see Manual):
    Electrostatics sSAPT0           2.82527233 [mEh]       1.77288515 [kcal/mol]       7.41775149 [kJ/mol]
    Exchange sSAPT0                24.84247189 [mEh]      15.58888646 [kcal/mol]      65.22390095 [kJ/mol]
    Induction sSAPT0              -23.16836808 [mEh]     -14.53837046 [kcal/mol]     -60.82854201 [kJ/mol]
    Dispersion sSAPT0             -15.80422184 [mEh]      -9.91729893 [kcal/mol]     -41.49397873 [kJ/mol]
  Total sSAPT0                    -11.30484570 [mEh]      -7.09389778 [kcal/mol]     -29.68086830 [kJ/mol]
  --------------------------------------------------------------------------------------------------------

*** Psi4 exiting successfully. Buy a developer a beer!
