                               Psi4 1.9 release

  ==> Input File <==

--------------------------------------------------------------------------
memory 64 GB # how much memory is available ! Depends on the nodes/cores !

molecule dimer {
# monomer A
-1 1    # Charge and multiplicity
B -1.977592e-04  2.742729e-04 3.000034
F  1.123153e-16  1.430594e-17 4.412819
F  1.147860e+00  6.757812e-01 2.528893
F  1.191806e-02 -1.332011e+00 2.529095
F -1.159666e+00  6.560735e-01 2.529174
--
# monomer B
0 1     # Charge and multiplicity
C   -3.66844126402057      7.80375217008252      0.00190004133558
C   -4.84759871934653      7.13124183134024     -0.00046653359696
C   -4.89495929917518      5.69633040353158     -0.00103944469517
C   -3.65374067877320      4.98073034095895      0.00662099703436
C   -2.40942512149445      7.11398103667468      0.00209438359570
C   -2.42547734410473      5.68112195090346     -0.00491050527438
C   -1.19474401643570      7.78614419430947      0.00356656413763
C   0.03795902893699      7.09942164575698      0.00139585983271
C   0.03033258741920      5.66948955970466     -0.00408752508301
C   -1.20098450790502      4.96927034791531      0.00488220885047
C   1.27795782581485      7.77285944319479      0.00277170839332
C   2.48535808472416      7.08769688523756      0.00049722048857
C   2.48612868491717      5.65477081024076     -0.00644052849921
C   1.25408291964399      4.95607811366431      0.00518741308898
C   3.75171459140595      7.76391215098033      0.00062407186893
C   4.92356605618520      7.07878077698995     -0.00143240883900
C   4.95560727132542      5.64344746336949     -0.00159282164606
C   3.70680153420475      4.94121020833308      0.00349873852374
H   -3.65852113775815      8.89082741913536      0.00358502958574
H   -1.18921332975660      8.87412108735996      0.00753844057883
H   1.28429423888630      8.86083343548850      0.00693053253426
H   3.75354208679975      8.85103527897216      0.00214659618464
H   5.86995870320703      7.61379483465560     -0.00235777588134
H   -5.78823170750226      7.67630221293400     -0.00202638095293
C   -6.09197395869619      4.99326001364347     -0.00291168518608
C   -6.12866148031747      3.58258016879823     -0.00171050815740
C   -3.66457974004527      3.56418217974434     -0.00463560277484
C   -4.89429820469869      2.86108077590057      0.00453338221034
C   -2.43733499489796      2.84761165708481      0.00719617576166
C   -1.20922785759670      3.54788693497833     -0.00648285103018
C   1.24714157216223      3.53468075142962     -0.00729145743546
C   0.01517603956900      2.83311183930540      0.00439272578912
C   2.46764517244071      2.82128997725533      0.00449278391269
C   3.70254947457969      3.52466015442405     -0.00899517692985
C   6.14498038638375      4.92757236613191     -0.00282626685777
C   6.16658835886151      3.51658447594213     -0.00065971342101
C   4.92460995845939      2.80840792535402      0.00587903281610
H   7.08990550964105      5.46688776622306     -0.00658814770723
H   -7.03104175110130      5.54268795285765     -0.00714490013730
C   -7.33969804112295      2.85841153457957     -0.00333767559888
C   -7.36488195805880      1.47032337158330     -0.00157213747140
C   -4.90350460894690      1.44442681216000     -0.00628840166334
C   -6.13225715261081      0.73993935705394      0.00600164231964
C   -3.67687480051673      0.72669714267312      0.00433931473643
C   -2.44565658606518      1.42964113326212     -0.00597039546461
C   -1.22360068130162      0.71532450163492      0.00545886906656
C   0.00763786931376      1.41738314923765      0.00392452278437
C   1.23121980774686      0.70211669058719     -0.01490206287210
C   2.46082110053113      1.40329203612573      0.00460244601878
C   3.68443025419614      0.68719842821222      0.00377365974158
C   4.91870890153864      1.39173456118907     -0.00862816189375
C   7.36980207796101      2.77948220318441     -0.00242013321349
C   7.38016266612146      1.39121750785509     -0.00087345036788
C   6.13979953912259      0.67411862320065      0.00545489144369
H   -8.27919079934664      3.40711804112415     -0.00763522772059
H   8.31511347147953      3.31811809662368     -0.00663070901292
C   -8.59175593758115      0.72483255304480     -0.00123170985383
C   -8.59902460370342     -0.63263980622873      0.00089141472904
C   -6.13981313911873     -0.67413663715361     -0.00609792660607
C   -7.38018411213749     -1.39126618958160      0.00131813493501
C   -4.91868448025621     -1.39175501803000      0.00624257154343
C   -3.68443829568458     -0.68723731573599     -0.00478966852105
C   -2.46081704024768     -1.40334517882457      0.00575341766833
C   -1.23116201232071     -0.70217386488055     -0.00636696112346
C   -0.00756962538737     -1.41741884941102      0.00108956317991
C   1.22364771588843     -0.71527537726392      0.01109518512883
C   2.44567064933149     -1.42964328900682     -0.00065482763106
C   3.67686670284649     -0.72670743155550     -0.00479541202602
C   6.13224884641929     -0.73997883984993     -0.00632338623858
C   4.90351914550401     -1.44445752054090      0.00751768830159
C   8.59901484869081      0.63260386666793     -0.00101133422380
C   8.59174548810050     -0.72485086719319      0.00072504603735
C   7.36486276438985     -1.47033266560598      0.00049486934466
H   -9.52830597181814      1.27684744919284     -0.00270163681798
H   9.54141097460619      1.17457248844457     -0.00206336648518
C   -7.36983790976868     -2.77954514593389      0.00312634335708
C   -4.92459910905015     -2.80843725734101     -0.00460528907921
C   -6.16662249566744     -3.51665219282533      0.00169655107992
C   -3.70251035970491     -3.52468154912026      0.00571878010666
C   -2.46764698511392     -2.82132596280400     -0.00632585824990
C   -0.01513347410770     -2.83314164539971     -0.00604426974092
C   -1.24712184122656     -3.53473217556300      0.00551968366725
C   1.20924506964357     -3.54791467864352      0.00805871345849
C   2.43733602215464     -2.84764173817541     -0.00608104485234
C   4.89430234377080     -2.86112296828604     -0.00526030478103
C   3.66461525504104     -3.56421984553201      0.00761911515957
C   6.12863901474565     -3.58258405771778      0.00096495711699
C   7.33967266469532     -2.85841330737039      0.00248018319869
H   -9.54144911125902     -1.17456346666430      0.00226083090216
H   9.52826186807155     -1.27691907390448      0.00197485379837
H   -8.31516504384864     -3.31814985321231      0.00729857188773
H   8.27915514249207     -3.40714078989363      0.00681973918158
C   -6.14499418870218     -4.92764727278338      0.00302254913999
C   -3.70678334799751     -4.94126171411716     -0.00679841894792
C   -4.95559005800169     -5.64349397349412      0.00116871569699
C   -2.48612132622665     -5.65478557440947      0.00614125209662
C   -1.25405833548005     -4.95612205000132     -0.00503435388927
C   1.20101257386816     -4.96928038819302     -0.00385322963129
C   -0.03033667441341     -5.66952030313900      0.00398997003238
C   3.65375010132847     -4.98074377541453     -0.00309522988330
C   2.42549269587528     -5.68117463552727      0.00628170066869
C   6.09196561781097     -4.99325796338655      0.00325918379042
C   4.89497644461045     -5.69634842095790      0.00202298796027
H   -7.08989238804069     -5.46699984223871      0.00742531082125
H   7.03105520920009     -5.54265853633254      0.00683896355417
C   -4.92354532219813     -7.07882109967734      0.00061394679214
C   -2.48534208823777     -7.08772807792913     -0.00189594564379
C   -3.75168589177895     -7.76394715763627     -0.00170126671874
C   -0.03794895698805     -7.09946487446944     -0.00168022049625
C   -1.27795610040136     -7.77290438466689     -0.00366491325785
C   2.40944432072629     -7.11402201200282     -0.00081701968533
C   1.19474993715296     -7.78618536556242     -0.00296931056689
C   4.84762105249800     -7.13126211057943      0.00168979497423
C   3.66847160587561     -7.80378799294376     -0.00065863938960
H   -5.86994035041618     -7.61383059804164      0.00215798365757
H   5.78824962538815     -7.67633218931421      0.00281691445618
H   -3.75352693944918     -8.85107156923607     -0.00353718114765
H   -1.28430440589466     -8.86087539249706     -0.00809229711623
H   1.18922157469537     -8.87416062058945     -0.00706194725726
H   3.65854661482387     -8.89086063405326     -0.00231318081200

    units angstrom      # Angstroms are the default
    no_reorient         # Geometry fixed, default
    symmetry c1         # C1 symmetry, default
}

set {
    scf_type DF         # Density fitting, faster than exact integrals
    freeze_core True    # Freeze core electrons
    basis jun-cc-pVDZ   # Jun-cc-pVDZ basis set, recommended for sSAPT0 in https://doi.org/10.1063/1.4867135
}

energy('ssapt0')        # Compute sSAPT0 energy, includes also SAPT0
--------------------------------------------------------------------------

  //              Dimer HF             //
    Molecular point group: c1
  Charge       = -1
  Multiplicity = 1
  Basis Set: JUN-CC-PVDZ
    Blend: JUN-CC-PVDZ
  Basis Set: (JUN-CC-PVDZ AUX)
    Blend: JUN-CC-PVDZ-JKFIT
  @DF-RHF Final Energy: -4073.09384508462017
    Total Energy =                      -4073.0938450846188061
 Dipole X            :          0.0029869           -0.0000548            0.0029321
 Dipole Y            :          0.0023444           -0.0002464            0.0020980
 Dipole Z            :         14.3280765          -17.8538316           -3.5257551
 Magnitude           :                                                    3.5257570
  //            Monomer A HF           //
    Molecular point group: c1
  Multiplicity = 1
  Basis Set: JUN-CC-PVDZ
    Blend: JUN-CC-PVDZ
  Basis Set: (JUN-CC-PVDZ AUX)
    Blend: JUN-CC-PVDZ-JKFIT
  @DF-RHF Final Energy:  -422.77523171003787
    Total Energy =                       -422.7752317100378718
  //            Monomer B HF           //
    Molecular point group: c1

    Geometry (in Angstrom), charge = 0, multiplicity = 1:

       Center              X                  Y                   Z               Mass
    ------------   -----------------  -----------------  -----------------  -----------------
      Gh(B)          -0.000201921932     0.000288800891     2.793404304648    11.009305360000
      Gh(F)          -0.000004162732     0.000014527991     4.206189304648    18.998403162730
      Gh(F)           1.147855837268     0.675795727991     2.322263304648    18.998403162730
      Gh(F)           0.011913897268    -1.331996472009     2.322465304648    18.998403162730
      Gh(F)          -1.159670162732     0.656088027991     2.322544304648    18.998403162730
         C           -3.668445426752     7.803766698073    -0.204729654016    12.000000000000
         C           -4.847602882078     7.131256359331    -0.207096228949    12.000000000000
         C           -4.894963461907     5.696344931522    -0.207669140047    12.000000000000
         C           -3.653744841505     4.980744868950    -0.200008698317    12.000000000000
         C           -2.409429284226     7.113995564665    -0.204535311756    12.000000000000
         C           -2.425481506836     5.681136478894    -0.211540200626    12.000000000000
         C           -1.194748179167     7.786158722300    -0.203063131214    12.000000000000
         C            0.037954866205     7.099436173748    -0.205233835519    12.000000000000
         C            0.030328424687     5.669504087695    -0.210717220435    12.000000000000
         C           -1.200988670637     4.969284875906    -0.201747486501    12.000000000000
         C            1.277953663083     7.772873971185    -0.203857986958    12.000000000000
         C            2.485353921992     7.087711413228    -0.206132474863    12.000000000000
         C            2.486124522185     5.654785338231    -0.213070223851    12.000000000000
         C            1.254078756912     4.956092641655    -0.201442282263    12.000000000000
         C            3.751710428674     7.763926678971    -0.206005623483    12.000000000000
         C            4.923561893453     7.078795304981    -0.208062104191    12.000000000000
         C            4.955603108594     5.643461991360    -0.208222516998    12.000000000000
         C            3.706797371473     4.941224736324    -0.203130956828    12.000000000000
         H           -3.658525300490     8.890841947126    -0.203044665766     1.007825032230
         H           -1.189217492488     8.874135615351    -0.199091254773     1.007825032230
         H            1.284290076155     8.860847963479    -0.199699162817     1.007825032230
         H            3.753537924068     8.851049806963    -0.204483099167     1.007825032230
         H            5.869954540475     7.613809362646    -0.208987471233     1.007825032230
         H           -5.788235870234     7.676316740925    -0.208656076305     1.007825032230
         C           -6.091978121428     4.993274541634    -0.209541380538    12.000000000000
         C           -6.128665643049     3.582594696789    -0.208340203509    12.000000000000
         C           -3.664583902777     3.564196707735    -0.211265298126    12.000000000000
         C           -4.894302367430     2.861095303891    -0.202096313141    12.000000000000
         C           -2.437339157630     2.847626185075    -0.199433519590    12.000000000000
         C           -1.209232020328     3.547901462969    -0.213112546382    12.000000000000
         C            1.247137409430     3.534695279420    -0.213921152787    12.000000000000
         C            0.015171876837     2.833126367296    -0.202236969562    12.000000000000
         C            2.467641009709     2.821304505246    -0.202136911439    12.000000000000
         C            3.702545311848     3.524674682415    -0.215624872281    12.000000000000
         C            6.144976223652     4.927586894122    -0.209455962209    12.000000000000
         C            6.166584196130     3.516599003933    -0.207289408773    12.000000000000
         C            4.924605795728     2.808422453345    -0.200750662535    12.000000000000
         H            7.089901346909     5.466902294214    -0.213217843059     1.007825032230
         H           -7.031045913833     5.542702480848    -0.213774595489     1.007825032230
         C           -7.339702203855     2.858426062570    -0.209967370950    12.000000000000
         C           -7.364886120791     1.470337899574    -0.208201832823    12.000000000000
         C           -4.903508771679     1.444441340151    -0.212918097015    12.000000000000
         C           -6.132261315343     0.739953885044    -0.200628053032    12.000000000000
         C           -3.676878963248     0.726711670664    -0.202290380615    12.000000000000
         C           -2.445660748797     1.429655661253    -0.212600090816    12.000000000000
         C           -1.223604844033     0.715339029625    -0.201170826285    12.000000000000
         C            0.007633706582     1.417397677228    -0.202705172567    12.000000000000
         C            1.231215645015     0.702131218578    -0.221531758224    12.000000000000
         C            2.460816937799     1.403306564116    -0.202027249333    12.000000000000
         C            3.684426091464     0.687212956203    -0.202856035610    12.000000000000
         C            4.918704738807     1.391749089180    -0.215257857245    12.000000000000
         C            7.369797915229     2.779496731175    -0.209049828565    12.000000000000
         C            7.380158503390     1.391232035846    -0.207503145719    12.000000000000
         C            6.139795376391     0.674133151191    -0.201174803908    12.000000000000
         H           -8.279194962078     3.407132569115    -0.214264923072     1.007825032230
         H            8.315109308748     3.318132624614    -0.213260404365     1.007825032230
         C           -8.591760100313     0.724847081035    -0.207861405205    12.000000000000
         C           -8.599028766435    -0.632625278238    -0.205738280623    12.000000000000
         C           -6.139817301850    -0.674122109163    -0.212727621958    12.000000000000
         C           -7.380188274869    -1.391251661591    -0.205311560417    12.000000000000
         C           -4.918688642988    -1.391740490039    -0.200387123808    12.000000000000
         C           -3.684442458416    -0.687222787745    -0.211419363873    12.000000000000
         C           -2.460821202979    -1.403330650834    -0.200876277683    12.000000000000
         C           -1.231166175052    -0.702159336890    -0.212996656475    12.000000000000
         C           -0.007573788119    -1.417404321420    -0.205540132172    12.000000000000
         C            1.223643553157    -0.715260849273    -0.195534510223    12.000000000000
         C            2.445666486600    -1.429628761016    -0.207284522983    12.000000000000
         C            3.676862540115    -0.726692903565    -0.211425107378    12.000000000000
         C            6.132244683688    -0.739964311859    -0.212953081590    12.000000000000
         C            4.903514982772    -1.444442992550    -0.199112007050    12.000000000000
         C            8.599010685959     0.632618394658    -0.207641029575    12.000000000000
         C            8.591741325369    -0.724836339203    -0.205904649314    12.000000000000
         C            7.364858601658    -1.470318137615    -0.206134826007    12.000000000000
         H           -9.528310134550     1.276861977183    -0.209331332170     1.007825032230
         H            9.541406811874     1.174587016435    -0.208693061837     1.007825032230
         C           -7.369842072500    -2.779530617943    -0.203503351995    12.000000000000
         C           -4.924603271782    -2.808422729350    -0.211234984431    12.000000000000
         C           -6.166626658399    -3.516637664835    -0.204933144272    12.000000000000
         C           -3.702514522437    -3.524667021130    -0.200910915245    12.000000000000
         C           -2.467651147846    -2.821311434813    -0.212955553601    12.000000000000
         C           -0.015137636839    -2.833127117409    -0.212673965093    12.000000000000
         C           -1.247126003958    -3.534717647572    -0.201110011684    12.000000000000
         C            1.209240906912    -3.547900150653    -0.198570981893    12.000000000000
         C            2.437331859423    -2.847627210185    -0.212710740204    12.000000000000
         C            4.894298181039    -2.861108440295    -0.211890000133    12.000000000000
         C            3.664611092309    -3.564205317541    -0.199010580192    12.000000000000
         C            6.128634852014    -3.582569529727    -0.205664738235    12.000000000000
         C            7.339668501964    -2.858398779380    -0.204149512153    12.000000000000
         H           -9.541453273991    -1.174548938674    -0.204368864449     1.007825032230
         H            9.528257705340    -1.276904545914    -0.204654841553     1.007825032230
         H           -8.315169206580    -3.318135325222    -0.199331123464     1.007825032230
         H            8.279150979760    -3.407126261903    -0.199809956170     1.007825032230
         C           -6.144998351434    -4.927632744793    -0.203607146212    12.000000000000
         C           -3.706787510729    -4.941247186127    -0.213428114300    12.000000000000
         C           -4.955594220733    -5.643479445504    -0.205460979655    12.000000000000
         C           -2.486125488958    -5.654771046419    -0.200488443255    12.000000000000
         C           -1.254062498212    -4.956107522011    -0.211664049241    12.000000000000
         C            1.201008411136    -4.969265860202    -0.210482924983    12.000000000000
         C           -0.030340837145    -5.669505775148    -0.202639725319    12.000000000000
         C            3.653745938597    -4.980729247424    -0.209724925235    12.000000000000
         C            2.425488533144    -5.681160107537    -0.200347994683    12.000000000000
         C            6.091961455079    -4.993243435396    -0.203370511561    12.000000000000
         C            4.894972281879    -5.696333892967    -0.204606707391    12.000000000000
         H           -7.089896550772    -5.466985314248    -0.199204384530     1.007825032230
         H            7.031051046468    -5.542644008342    -0.199790731797     1.007825032230
         C           -4.923549484930    -7.078806571687    -0.206015748559    12.000000000000
         C           -2.485346250970    -7.087713549939    -0.208525640995    12.000000000000
         C           -3.751690054511    -7.763932629646    -0.208330962070    12.000000000000
         C           -0.037953119720    -7.099450346479    -0.208309915848    12.000000000000
         C           -1.277960263133    -7.772889856676    -0.210294608609    12.000000000000
         C            2.409440157995    -7.114007484012    -0.207446715037    12.000000000000
         C            1.194745774421    -7.786170837572    -0.209599005918    12.000000000000
         C            4.847616889766    -7.131247582589    -0.204939900377    12.000000000000
         C            3.668467443144    -7.803773464953    -0.207288334741    12.000000000000
         H           -5.869944513148    -7.613816070051    -0.204471711694     1.007825032230
         H            5.788245462656    -7.676317661324    -0.203812780895     1.007825032230
         H           -3.753531102181    -8.851057041246    -0.210166876499     1.007825032230
         H           -1.284308568626    -8.860860864507    -0.214721992468     1.007825032230
         H            1.189217411964    -8.874146092599    -0.213691642609     1.007825032230
         H            3.658542452092    -8.890846106063    -0.208942876164     1.007825032230

  Charge       = 0
  Multiplicity = 1
  Basis Set: JUN-CC-PVDZ
    Blend: JUN-CC-PVDZ
  Basis Set: (JUN-CC-PVDZ AUX)
    Blend: JUN-CC-PVDZ-JKFIT

    Orbital Energies [Eh]
    ---------------------

    Doubly Occupied:

       1A    -11.264097     2A    -11.263742     3A    -11.263736
       4A    -11.263327     5A    -11.263324     6A    -11.263282
       7A    -11.263141     8A    -11.263131     9A    -11.263122
      10A    -11.262890    11A    -11.262768    12A    -11.262763
      13A    -11.262272    14A    -11.262267    15A    -11.262239
      16A    -11.262231    17A    -11.262123    18A    -11.262118
      19A    -11.262074    20A    -11.262033    21A    -11.262029
      22A    -11.261921    23A    -11.261915    24A    -11.261766
      25A    -11.261756    26A    -11.261737    27A    -11.261731
      28A    -11.261689    29A    -11.261680    30A    -11.261582
      31A    -11.261564    32A    -11.261560    33A    -11.261557
      34A    -11.261534    35A    -11.261533    36A    -11.261515
      37A    -11.261340    38A    -11.261332    39A    -11.261326
      40A    -11.261320    41A    -11.261314    42A    -11.261311
      43A    -11.261293    44A    -11.261277    45A    -11.261273
      46A    -11.261248    47A    -11.261245    48A    -11.261237
      49A    -11.261060    50A    -11.261032    51A    -11.261026
      52A    -11.260958    53A    -11.260954    54A    -11.260899
      55A    -11.259918    56A    -11.259904    57A    -11.259902
      58A    -11.259872    59A    -11.259870    60A    -11.259854
      61A    -11.259287    62A    -11.259261    63A    -11.259259
      64A    -11.259205    65A    -11.259202    66A    -11.259173
      67A    -11.258920    68A    -11.258902    69A    -11.258899
      70A    -11.258871    71A    -11.258869    72A    -11.258857
      73A    -11.254535    74A    -11.254535    75A    -11.254531
      76A    -11.254529    77A    -11.254529    78A    -11.254527
      79A    -11.253659    80A    -11.253658    81A    -11.253656
      82A    -11.253654    83A    -11.253652    84A    -11.253651
      85A    -11.253575    86A    -11.253573    87A    -11.253571
      88A    -11.253570    89A    -11.253568    90A    -11.253566
      91A    -11.253063    92A    -11.253062    93A    -11.253058
      94A    -11.253057    95A    -11.253057    96A    -11.253055
      97A     -1.253915    98A     -1.238988    99A     -1.238986
     100A     -1.220462   101A     -1.220457   102A     -1.215407
     103A     -1.201044   104A     -1.195607   105A     -1.188121
     106A     -1.188119   107A     -1.173769   108A     -1.173766
     109A     -1.155619   110A     -1.155616   111A     -1.152684
     112A     -1.144728   113A     -1.144725   114A     -1.128563
     115A     -1.114702   116A     -1.113167   117A     -1.112457
     118A     -1.112442   119A     -1.111625   120A     -1.088421
     121A     -1.088406   122A     -1.076966   123A     -1.076964
     124A     -1.067607   125A     -1.067578   126A     -1.064950
     127A     -1.046797   128A     -1.046790   129A     -1.040478
     130A     -1.038740   131A     -1.038739   132A     -1.025225
     133A     -1.021354   134A     -1.021303   135A     -1.007180
     136A     -1.006808   137A     -1.003794   138A     -1.000476
     139A     -1.000428   140A     -0.991081   141A     -0.970977
     142A     -0.970929   143A     -0.955884   144A     -0.955828
     145A     -0.905571   146A     -0.905556   147A     -0.905528
     148A     -0.905516   149A     -0.904304   150A     -0.892348
     151A     -0.892289   152A     -0.890347   153A     -0.890289
     154A     -0.889451   155A     -0.872219   156A     -0.869064
     157A     -0.851540   158A     -0.847854   159A     -0.847832
     160A     -0.845583   161A     -0.843011   162A     -0.834560
     163A     -0.834550   164A     -0.828118   165A     -0.828114
     166A     -0.784544   167A     -0.784533   168A     -0.783646
     169A     -0.783619   170A     -0.782280   171A     -0.782260
     172A     -0.782020   173A     -0.766991   174A     -0.760774
     175A     -0.750556   176A     -0.733486   177A     -0.727066
     178A     -0.727054   179A     -0.725077   180A     -0.724541
     181A     -0.724522   182A     -0.718466   183A     -0.713754
     184A     -0.713748   185A     -0.699572   186A     -0.699560
     187A     -0.686096   188A     -0.685958   189A     -0.685954
     190A     -0.682174   191A     -0.682164   192A     -0.678755
     193A     -0.653615   194A     -0.650863   195A     -0.650833
     196A     -0.649791   197A     -0.649775   198A     -0.649567
     199A     -0.640903   200A     -0.640877   201A     -0.640089
     202A     -0.639164   203A     -0.636006   204A     -0.635979
     205A     -0.629138   206A     -0.617698   207A     -0.615305
     208A     -0.615285   209A     -0.608798   210A     -0.608792
     211A     -0.599108   212A     -0.599078   213A     -0.598732
     214A     -0.598596   215A     -0.598574   216A     -0.598006
     217A     -0.595068   218A     -0.595055   219A     -0.594715
     220A     -0.594209   221A     -0.591942   222A     -0.591939
     223A     -0.587368   224A     -0.577799   225A     -0.577789
     226A     -0.575655   227A     -0.575652   228A     -0.573380
     229A     -0.569576   230A     -0.568114   231A     -0.568091
     232A     -0.566743   233A     -0.566732   234A     -0.560916
     235A     -0.558702   236A     -0.558683   237A     -0.558429
     238A     -0.554360   239A     -0.550543   240A     -0.547477
     241A     -0.544254   242A     -0.535024   243A     -0.534987
     244A     -0.533526   245A     -0.533504   246A     -0.528073
     247A     -0.528058   248A     -0.527767   249A     -0.517137
     250A     -0.517103   251A     -0.515344   252A     -0.515338
     253A     -0.509640   254A     -0.509624   255A     -0.498024
     256A     -0.496440   257A     -0.496413   258A     -0.493777
     259A     -0.493766   260A     -0.489425   261A     -0.481449
     262A     -0.477411   263A     -0.477409   264A     -0.473990
     265A     -0.469429   266A     -0.466514   267A     -0.466509
     268A     -0.458780   269A     -0.446656   270A     -0.446596
     271A     -0.441023   272A     -0.440759   273A     -0.440736
     274A     -0.434681   275A     -0.433904   276A     -0.407362
     277A     -0.407338   278A     -0.386374   279A     -0.386325
     280A     -0.385729   281A     -0.385727   282A     -0.383722
     283A     -0.354310   284A     -0.354293   285A     -0.350640
     286A     -0.338063   287A     -0.335556   288A     -0.335482
     289A     -0.332709   290A     -0.332702   291A     -0.307021
     292A     -0.301903   293A     -0.301841   294A     -0.300840
     295A     -0.286157   296A     -0.256482   297A     -0.253452
     298A     -0.253399   299A     -0.204249   300A     -0.204160

  @DF-RHF Final Energy: -3650.34027283182695

   => Energetics <=

    Nuclear Repulsion Energy =          15611.4211649754324753
    One-Electron Energy =              -36072.1506712382615660
    Two-Electron Energy =               16810.3892334310039587
    Total Energy =                      -3650.3402728318251320
 Dipole X            :          0.0001412            0.0002304            0.0003716
 Dipole Y            :          0.0014550           -0.0013052            0.0001498
 Dipole Z            :        234.2826711         -234.2807283            0.0019428
 Magnitude           :                                                    0.0019837

    SAPT Results
  --------------------------------------------------------------------------------------------------------
    Electrostatics                -15.42186396 [mEh]      -9.67736574 [kcal/mol]     -40.49009825 [kJ/mol]
      Elst10,r                    -15.42186396 [mEh]      -9.67736574 [kcal/mol]     -40.49009825 [kJ/mol]

    Exchange                       67.41351157 [mEh]      42.30261717 [kcal/mol]     176.99415025 [kJ/mol]
      Exch10                       67.41351157 [mEh]      42.30261717 [kcal/mol]     176.99415025 [kJ/mol]
      Exch10(S^2)                  66.88080740 [mEh]      41.96834026 [kcal/mol]     175.59553564 [kJ/mol]

    Induction                     -30.33219037 [mEh]     -19.03373682 [kcal/mol]     -79.63715484 [kJ/mol]
      Ind20,r                     -52.99420683 [mEh]     -33.25436684 [kcal/mol]    -139.13627087 [kJ/mol]
      Exch-Ind20,r                 27.97638845 [mEh]      17.55544879 [kcal/mol]      73.45199775 [kJ/mol]
      delta HF,r (2)               -5.31437198 [mEh]      -3.33481876 [kcal/mol]     -13.95288171 [kJ/mol]

    Dispersion                    -24.07316394 [mEh]     -15.10613843 [kcal/mol]     -63.20408321 [kJ/mol]
      Disp20                      -30.99060603 [mEh]     -19.44689888 [kcal/mol]     -81.36582493 [kJ/mol]
      Exch-Disp20                   6.91744209 [mEh]       4.34076045 [kcal/mol]      18.16174172 [kJ/mol]
      Disp20 (SS)                 -15.49530302 [mEh]      -9.72344944 [kcal/mol]     -40.68291246 [kJ/mol]
      Disp20 (OS)                 -15.49530302 [mEh]      -9.72344944 [kcal/mol]     -40.68291246 [kJ/mol]
      Exch-Disp20 (SS)              3.82927235 [mEh]       2.40290467 [kcal/mol]      10.05375316 [kJ/mol]
      Exch-Disp20 (OS)              3.08816975 [mEh]       1.93785577 [kcal/mol]       8.10798856 [kJ/mol]

  Total HF                         21.65945724 [mEh]      13.59151462 [kcal/mol]      56.86689716 [kJ/mol]
  Total SAPT0                      -2.41370669 [mEh]      -1.51462382 [kcal/mol]      -6.33718605 [kJ/mol]

  Special recipe for scaled SAPT0 (see Manual):
    Electrostatics sSAPT0         -15.42186396 [mEh]      -9.67736574 [kcal/mol]     -40.49009825 [kJ/mol]
    Exchange sSAPT0                67.41351157 [mEh]      42.30261717 [kcal/mol]     176.99415025 [kJ/mol]
    Induction sSAPT0              -29.65835772 [mEh]     -18.61090045 [kcal/mol]     -77.86800746 [kJ/mol]
    Dispersion sSAPT0             -23.90655207 [mEh]     -15.00158791 [kcal/mol]     -62.76664381 [kJ/mol]
  Total sSAPT0                     -1.57326218 [mEh]      -0.98723692 [kcal/mol]      -4.13059928 [kJ/mol]
  --------------------------------------------------------------------------------------------------------

*** Psi4 exiting successfully. Buy a developer a beer!
