                               Psi4 1.9 release

  ==> Input File <==

--------------------------------------------------------------------------
memory 32 GB # how much memory is available ! Depends on the nodes/cores !

molecule dimer {
# monomer A
-1 1    # Charge and multiplicity
B -1.977592e-04  2.742729e-04 3.700034
F  1.123153e-16  1.430594e-17 5.112819
F  1.147860e+00  6.757812e-01 3.228893
F  1.191806e-02 -1.332011e+00 3.229095
F -1.159666e+00  6.560735e-01 3.229174
--
# monomer B
0 1     # Charge and multiplicity
C   1.22531237526482      0.70753866091955      0.00613762728373
C   1.22532433589282     -0.70753852257020     -0.00619318228664
C   -0.00000567409046      1.41496628609039     -0.00672680580738
C   2.45644923379077      1.41832825917820      0.00902448468363
C   0.00001130712078     -1.41497612663474      0.00347275151708
C   -1.22530046906674      0.70754574598412      0.00838914760619
C   2.45643823516184     -1.41832293188077     -0.00843833914343
C   -0.00000085313587      2.83680140328112     -0.00913035594137
C   3.68182717731192      0.70931832800114     -0.00808954934571
C   2.45512052870677      2.83422403348893     -0.00819210630633
C   3.68182158506039     -0.70933346742900      0.00798293467272
C   -1.22531311884624     -0.70752714354401     -0.00512042085974
C   1.22670006104402      3.54346985599427      0.00816696660346
C   0.00000526469929     -2.83678176723568      0.00832091913869
C   -2.45643555300670      1.41831729028492      0.00842454345199
C   2.45512389762097     -2.83422965658853      0.00783102630520
C   -1.22671388474763      3.54346943575023      0.00827029982280
C   4.91451777504333      1.42717324448953     -0.00160886631602
C   3.69315067131765      3.54279566454522     -0.00155906667985
C   -2.45643712022637     -1.41831290883911     -0.00846337726810
C   1.22670532178455     -3.54347386990643     -0.00780316414624
C   -2.45512491866593      2.83421703463423     -0.00818572995999
C   4.91452486062398     -1.42718653794377      0.00136387641845
C   1.22142509354026      4.97013443726031      0.00150231067809
C   4.89300870916237      2.82518837202648     -0.00039219795739
C   -1.22669652864725     -3.54347062507680     -0.00753595973677
C   -3.68181849668397      0.70932533873199     -0.00807686886569
C   3.69314758099218     -3.54280096939050      0.00148176697923
C   -1.22143177215231      4.97012866986289      0.00168580605083
C   6.13477145276790      0.68054831910577     -0.00083909176631
C   3.65678936045204      4.97295361556775     -0.00065042889723
C   -2.45512642789169     -2.83421472106065      0.00758666850712
C   -3.68181869921921     -0.70932533146830      0.00810055625144
C   4.89301309775526     -2.82519973363176      0.00021895393805
C   -0.00000059327114      5.65044773803267      0.00045449734393
C   6.13477559217374     -0.68055448207492      0.00042622874941
C   2.47813196269732      5.65357712333155      0.00063835075260
C   1.22142288457925     -4.97012668293268     -0.00129718634452
C   -3.69316190412301      3.54279732619245     -0.00139355922051
C   -1.22142804110313     -4.97011793159564     -0.00140994817719
C   -4.91452132810043      1.42717581899491     -0.00153192130862
C   3.65678749952045     -4.97295485423912      0.00080007163680
C   -2.47813805026426      5.65357479452875      0.00092287576113
C   -3.69314125872231     -3.54278984697859      0.00136564082345
C   -4.91451200321153     -1.42718062802730      0.00139857359209
C   -0.00000552908399     -5.65043791501335      0.00005899322272
C   -4.89302000425900      2.82518897091939     -0.00040227981744
C   2.47812647313991     -5.65357317188818     -0.00029052915548
C   -3.65679823041642      4.97295655404175     -0.00047374852278
C   -4.89299899901461     -2.82519139505969      0.00006491824035
C   -2.47812801824129     -5.65356579800621     -0.00056571680280
C   -6.13477002348955      0.68054913825639     -0.00086464346868
C   -3.65678835334731     -4.97294365097028      0.00058578382008
C   -6.13476456307132     -0.68055354348201      0.00040575295444
H   5.83528897565761      3.36927626695423      0.00396712770529
H   7.07385965258860      1.22821762089947     -0.00037744837300
H   4.60066374401555      5.51238117445323     -0.00014522814529
H   5.83528386714679     -3.36930568472863     -0.00423551337640
H   -0.00001167146422      6.73853104613662     -0.00389474766392
H   7.07386165167227     -1.22822657074368     -0.00008250934481
H   2.47331421164041      6.74068466339473      0.00017162982210
H   4.60066897122302     -5.51237575717576      0.00039007446835
H   -2.47331820069565      6.74068209160650      0.00047297644710
H   -0.00000978838621     -6.73852780445195      0.00458867820736
H   -5.83530143450167      3.36927132229595      0.00410314985360
H   2.47330840367253     -6.74068500242887      0.00027980126949
H   -4.60067436136587      5.51237839860371      0.00002010017831
H   -5.83527902699321     -3.36928859177951     -0.00451481925734
H   -2.47329986759855     -6.74067870613986     -0.00016951527498
H   -7.07385728692578      1.22822084484047     -0.00046143985387
H   -4.60067330624313     -5.51236229778631      0.00021776644566
H   -7.07385645456741     -1.22822025997701     -0.00017736581114

    units angstrom      # Angstroms are the default
    no_reorient         # Geometry fixed, default
    symmetry c1         # C1 symmetry, default
}

set {
    scf_type DF         # Density fitting, faster than exact integrals
    freeze_core True    # Freeze core electrons
    basis jun-cc-pVDZ   # Jun-cc-pVDZ basis set, recommended for sSAPT0 in https://doi.org/10.1063/1.4867135
}

energy('ssapt0')        # Compute sSAPT0 energy, includes also SAPT0
--------------------------------------------------------------------------

  //              Dimer HF             //
    Molecular point group: c1
  Charge       = -1
  Multiplicity = 1
  Basis Set: JUN-CC-PVDZ
    Blend: JUN-CC-PVDZ
  Basis Set: (JUN-CC-PVDZ AUX)
    Blend: JUN-CC-PVDZ-JKFIT
  @DF-RHF Final Energy: -2478.66382902036867
    Total Energy =                      -2478.6638290203682118
 Dipole X            :         -0.0005671            0.0000481           -0.0005191
 Dipole Y            :          0.0010172           -0.0001453            0.0008719
 Dipole Z            :         17.8918998          -22.6820785           -4.7901787
 Magnitude           :                                                    4.7901788
  //            Monomer A HF           //
    Molecular point group: c1
  Multiplicity = 1
  Basis Set: JUN-CC-PVDZ
    Blend: JUN-CC-PVDZ
  Basis Set: (JUN-CC-PVDZ AUX)
    Blend: JUN-CC-PVDZ-JKFIT
  @DF-RHF Final Energy:  -422.77312851370925
    Total Energy =                       -422.7731285137092527
  //            Monomer B HF           //
    Molecular point group: c1

    Geometry (in Angstrom), charge = 0, multiplicity = 1:

       Center              X                  Y                   Z               Mass
    ------------   -----------------  -----------------  -----------------  -----------------
      Gh(B)          -0.000198161052     0.000273808717     3.272613440053    11.009305360000
      Gh(F)          -0.000000401852    -0.000000464183     4.685398440053    18.998403162730
      Gh(F)           1.147859598148     0.675780735817     2.801472440053    18.998403162730
      Gh(F)           0.011917658148    -1.332011464183     2.801674440053    18.998403162730
      Gh(F)          -1.159666401852     0.656073035817     2.801753440053    18.998403162730
         C            1.225311973413     0.707538196736    -0.421282932663    12.000000000000
         C            1.225323934041    -0.707538986754    -0.433613742234    12.000000000000
         C           -0.000006075942     1.414965821907    -0.434147365755    12.000000000000
         C            2.456448831939     1.418327794995    -0.418396075263    12.000000000000
         C            0.000010905269    -1.414976590818    -0.423947808430    12.000000000000
         C           -1.225300870919     0.707545281801    -0.419031412341    12.000000000000
         C            2.456437833310    -1.418323396064    -0.435858899091    12.000000000000
         C           -0.000001254988     2.836800939098    -0.436550915888    12.000000000000
         C            3.681826775460     0.709317863818    -0.435510109293    12.000000000000
         C            2.455120126855     2.834223569306    -0.435612666253    12.000000000000
         C            3.681821183209    -0.709333931612    -0.419437625274    12.000000000000
         C           -1.225313520698    -0.707527607727    -0.432540980807    12.000000000000
         C            1.226699659192     3.543469391811    -0.419253593344    12.000000000000
         C            0.000004862847    -2.836782231419    -0.419099640808    12.000000000000
         C           -2.456435954859     1.418316826102    -0.418996016495    12.000000000000
         C            2.455123495769    -2.834230120772    -0.419589533642    12.000000000000
         C           -1.226714286599     3.543468971567    -0.419150260124    12.000000000000
         C            4.914517373191     1.427172780306    -0.429029426263    12.000000000000
         C            3.693150269466     3.542795200362    -0.428979626627    12.000000000000
         C           -2.456437522078    -1.418313373022    -0.435883937215    12.000000000000
         C            1.226704919933    -3.543474334090    -0.435223724093    12.000000000000
         C           -2.455125320518     2.834216570451    -0.435606289907    12.000000000000
         C            4.914524458772    -1.427187002127    -0.426056683529    12.000000000000
         C            1.221424691688     4.970133973077    -0.425918249269    12.000000000000
         C            4.893008307311     2.825187907843    -0.427812757905    12.000000000000
         C           -1.226696930499    -3.543471089260    -0.434956519684    12.000000000000
         C           -3.681818898536     0.709324874549    -0.435497428813    12.000000000000
         C            3.693147179140    -3.542801433574    -0.425938792968    12.000000000000
         C           -1.221432174004     4.970128205680    -0.425734753896    12.000000000000
         C            6.134771050916     0.680547854922    -0.428259651713    12.000000000000
         C            3.656788958600     4.972953151384    -0.428070988844    12.000000000000
         C           -2.455126829744    -2.834215185244    -0.419833891440    12.000000000000
         C           -3.681819101071    -0.709325795652    -0.419320003696    12.000000000000
         C            4.893012695903    -2.825200197815    -0.427201606009    12.000000000000
         C           -0.000000995123     5.650447273849    -0.426966062603    12.000000000000
         C            6.134775190322    -0.680554946258    -0.426994331198    12.000000000000
         C            2.478131560845     5.653576659148    -0.426782209195    12.000000000000
         C            1.221422482727    -4.970127147116    -0.428717746292    12.000000000000
         C           -3.693162305975     3.542796862009    -0.428814119168    12.000000000000
         C           -1.221428442955    -4.970118395779    -0.428830508124    12.000000000000
         C           -4.914521729952     1.427175354812    -0.428952481256    12.000000000000
         C            3.656787097669    -4.972955318422    -0.426620488310    12.000000000000
         C           -2.478138452116     5.653574330345    -0.426497684186    12.000000000000
         C           -3.693141660574    -3.542790311162    -0.426054919124    12.000000000000
         C           -4.914512405063    -1.427181092211    -0.426021986355    12.000000000000
         C           -0.000005930936    -5.650438379197    -0.427361566724    12.000000000000
         C           -4.893020406111     2.825188506736    -0.427822839765    12.000000000000
         C            2.478126071288    -5.653573636072    -0.427711089103    12.000000000000
         C           -3.656798632268     4.972956089858    -0.427894308470    12.000000000000
         C           -4.892999400866    -2.825191859243    -0.427355641707    12.000000000000
         C           -2.478128420093    -5.653566262190    -0.427986276750    12.000000000000
         C           -6.134770425341     0.680548674073    -0.428285203416    12.000000000000
         C           -3.656788755199    -4.972944115154    -0.426834776127    12.000000000000
         C           -6.134764964923    -0.680554007665    -0.427014806993    12.000000000000
         H            5.835288573806     3.369275802771    -0.423453432242     1.007825032230
         H            7.073859250737     1.228217156716    -0.427798008320     1.007825032230
         H            4.600663342164     5.512380710270    -0.427565788092     1.007825032230
         H            5.835283465295    -3.369306148912    -0.431656073324     1.007825032230
         H           -0.000012073316     6.738530581953    -0.431315307611     1.007825032230
         H            7.073861249820    -1.228227034927    -0.427503069292     1.007825032230
         H            2.473313809789     6.740684199211    -0.427248930125     1.007825032230
         H            4.600668569371    -5.512376221359    -0.427030485479     1.007825032230
         H           -2.473318602548     6.740681627423    -0.426947583500     1.007825032230
         H           -0.000010190238    -6.738528268635    -0.422831881740     1.007825032230
         H           -5.835301836354     3.369270858113    -0.423317410094     1.007825032230
         H            2.473308001821    -6.740685466612    -0.427140758678     1.007825032230
         H           -4.600674763218     5.512377934420    -0.427400459769     1.007825032230
         H           -5.835279428845    -3.369289055963    -0.431935379204     1.007825032230
         H           -2.473300269450    -6.740679170323    -0.427590075222     1.007825032230
         H           -7.073857688778     1.228220380657    -0.427881999801     1.007825032230
         H           -4.600673708095    -5.512362761970    -0.427202793501     1.007825032230
         H           -7.073856856419    -1.228220724160    -0.427597925758     1.007825032230

  Charge       = 0
  Multiplicity = 1
  Basis Set: JUN-CC-PVDZ
    Blend: JUN-CC-PVDZ
  Basis Set: (JUN-CC-PVDZ AUX)
    Blend: JUN-CC-PVDZ-JKFIT

    Orbital Energies [Eh]
    ---------------------

    Doubly Occupied:

       1A    -11.260683     2A    -11.260233     3A    -11.260232
       4A    -11.259483     5A    -11.259483     6A    -11.259300
       7A    -11.259048     8A    -11.258979     9A    -11.258978
      10A    -11.258643    11A    -11.258640    12A    -11.258522
      13A    -11.258466    14A    -11.258462    15A    -11.258460
      16A    -11.258426    17A    -11.258419    18A    -11.258401
      19A    -11.258398    20A    -11.258397    21A    -11.258393
      22A    -11.258332    23A    -11.258327    24A    -11.258100
      25A    -11.257324    26A    -11.257266    27A    -11.257265
      28A    -11.257137    29A    -11.257136    30A    -11.257056
      31A    -11.256422    32A    -11.256354    33A    -11.256353
      34A    -11.256246    35A    -11.256246    36A    -11.256200
      37A    -11.252269    38A    -11.252269    39A    -11.252268
      40A    -11.252266    41A    -11.252264    42A    -11.252262
      43A    -11.251375    44A    -11.251372    45A    -11.251372
      46A    -11.251365    47A    -11.251365    48A    -11.251360
      49A    -11.250831    50A    -11.250830    51A    -11.250829
      52A    -11.250826    53A    -11.250825    54A    -11.250824
      55A     -1.244012    56A     -1.219779    57A     -1.219778
      58A     -1.189512    59A     -1.189505    60A     -1.180892
      61A     -1.157535    62A     -1.148955    63A     -1.135449
      64A     -1.135443    65A     -1.113171    66A     -1.113167
      67A     -1.082398    68A     -1.082391    69A     -1.078558
      70A     -1.065963    71A     -1.065959    72A     -1.039370
      73A     -1.024237    74A     -1.021714    75A     -1.021672
      76A     -1.017710    77A     -1.012783    78A     -0.986986
      79A     -0.986941    80A     -0.961859    81A     -0.961809
      82A     -0.894268    83A     -0.894241    84A     -0.887877
      85A     -0.886134    86A     -0.886076    87A     -0.881355
      88A     -0.881308    89A     -0.861877    90A     -0.837402
      91A     -0.818180    92A     -0.816569    93A     -0.812096
      94A     -0.812087    95A     -0.794669    96A     -0.794659
      97A     -0.746575    98A     -0.744820    99A     -0.733368
     100A     -0.733359   101A     -0.732159   102A     -0.732136
     103A     -0.716456   104A     -0.698948   105A     -0.698937
     106A     -0.693550   107A     -0.693534   108A     -0.661209
     109A     -0.653057   110A     -0.651104   111A     -0.650232
     112A     -0.650227   113A     -0.639337   114A     -0.639335
     115A     -0.629674   116A     -0.627482   117A     -0.627466
     118A     -0.606452   119A     -0.605801   120A     -0.601622
     121A     -0.599701   122A     -0.599670   123A     -0.593604
     124A     -0.591157   125A     -0.591146   126A     -0.585268
     127A     -0.576399   128A     -0.576393   129A     -0.567307
     130A     -0.567293   131A     -0.565915   132A     -0.565896
     133A     -0.558673   134A     -0.554818   135A     -0.554812
     136A     -0.538572   137A     -0.538571   138A     -0.538217
     139A     -0.538210   140A     -0.529691   141A     -0.528168
     142A     -0.522842   143A     -0.522836   144A     -0.500483
     145A     -0.495597   146A     -0.493209   147A     -0.487836
     148A     -0.485034   149A     -0.481722   150A     -0.481714
     151A     -0.470345   152A     -0.470326   153A     -0.450964
     154A     -0.450886   155A     -0.439060   156A     -0.439051
     157A     -0.404747   158A     -0.404724   159A     -0.403368
     160A     -0.375404   161A     -0.375402   162A     -0.349119
     163A     -0.337643   164A     -0.336552   165A     -0.336494
     166A     -0.311056   167A     -0.298110   168A     -0.284346
     169A     -0.284292   170A     -0.224895   171A     -0.224830

  @DF-RHF Final Energy: -2055.89408490045889

   => Energetics <=

    Nuclear Repulsion Energy =           6452.5568002797781446
    One-Electron Energy =              -15636.4894559224994737
    Two-Electron Energy =                7128.0385707422628911
    Total Energy =                      -2055.8940849004593474
 Dipole X            :          0.0000251            0.0000419            0.0000670
 Dipole Y            :          0.0000433           -0.0000426            0.0000007
 Dipole Z            :        276.2378168         -276.2375101            0.0003067
 Magnitude           :                                                    0.0003139

    SAPT Results
  --------------------------------------------------------------------------------------------------------
    Electrostatics                 11.23630520 [mEh]       7.05088797 [kcal/mol]      29.50091525 [kJ/mol]
      Elst10,r                     11.23630520 [mEh]       7.05088797 [kcal/mol]      29.50091525 [kJ/mol]

    Exchange                        6.45840708 [mEh]       4.05271163 [kcal/mol]      16.95654544 [kJ/mol]
      Exch10                        6.45840708 [mEh]       4.05271163 [kcal/mol]      16.95654544 [kJ/mol]
      Exch10(S^2)                   6.45563001 [mEh]       4.05096899 [kcal/mol]      16.94925426 [kJ/mol]

    Induction                     -14.31031848 [mEh]      -8.97986042 [kcal/mol]     -37.57173599 [kJ/mol]
      Ind20,r                     -15.74717433 [mEh]      -9.88150108 [kcal/mol]     -41.34420051 [kJ/mol]
      Exch-Ind20,r                  1.86170032 [mEh]       1.16823459 [kcal/mol]       4.88789353 [kJ/mol]
      delta HF,r (2)               -0.42484447 [mEh]      -0.26659393 [kcal/mol]      -1.11542901 [kJ/mol]

    Dispersion                     -8.95971212 [mEh]      -5.62230424 [kcal/mol]     -23.52372094 [kJ/mol]
      Disp20                       -9.93519966 [mEh]      -6.23443191 [kcal/mol]     -26.08486311 [kJ/mol]
      Exch-Disp20                   0.97548753 [mEh]       0.61212767 [kcal/mol]       2.56114217 [kJ/mol]
      Disp20 (SS)                  -4.96759983 [mEh]      -3.11721595 [kcal/mol]     -13.04243155 [kJ/mol]
      Disp20 (OS)                  -4.96759983 [mEh]      -3.11721595 [kcal/mol]     -13.04243155 [kJ/mol]
      Exch-Disp20 (SS)              0.58314428 [mEh]       0.36592856 [kcal/mol]       1.53104510 [kJ/mol]
      Exch-Disp20 (OS)              0.39234325 [mEh]       0.24619911 [kcal/mol]       1.03009707 [kJ/mol]

  Total HF                          3.38439380 [mEh]       2.12373917 [kcal/mol]       8.88572470 [kJ/mol]
  Total SAPT0                      -5.57531832 [mEh]      -3.49856507 [kcal/mol]     -14.63799625 [kJ/mol]

  Special recipe for scaled SAPT0 (see Manual):
    Electrostatics sSAPT0          11.23630520 [mEh]       7.05088797 [kcal/mol]      29.50091525 [kJ/mol]
    Exchange sSAPT0                 6.45840708 [mEh]       4.05271163 [kcal/mol]      16.95654544 [kJ/mol]
    Induction sSAPT0              -14.30791486 [mEh]      -8.97835213 [kcal/mol]     -37.56542530 [kJ/mol]
    Dispersion sSAPT0              -8.95845269 [mEh]      -5.62151393 [kcal/mol]     -23.52041428 [kJ/mol]
  Total sSAPT0                     -5.57165527 [mEh]      -3.49626647 [kcal/mol]     -14.62837889 [kJ/mol]
  --------------------------------------------------------------------------------------------------------

*** Psi4 exiting successfully. Buy a developer a beer!
