                               Psi4 1.9 release

  ==> Input File <==

--------------------------------------------------------------------------
memory 64 GB # how much memory is available ! Depends on the nodes/cores !

molecule dimer {
# monomer A
+1 1    # Charge and multiplicity
C  0.680067 -0.008042 -9.015929
C -0.680504 -0.006014 -9.015545
N -1.085635 -0.005016 -7.697221
C  0.000108 -0.001740 -6.915820
C -2.477365  0.044390 -7.229242
N  1.085222 -0.005016 -7.697221
H  1.385146 -0.015870 -9.833368
H -1.385302 -0.006204 -9.833214
H -0.000009  0.000007 -5.834731
C  2.478117 -0.021908 -7.232123
H  2.490592  0.005437 -6.141870
H  2.967028 -0.935354 -7.579299
H  3.001428  0.853575 -7.623595
H -2.857359  1.066461 -7.309201
H -3.082679 -0.625694 -7.842306
H -2.518128 -0.282594 -6.189294
--
# monomer B
0 1     # Charge and multiplicity
C   -3.66844126402057      7.80375217008252      0.00190004133558
C   -4.84759871934653      7.13124183134024     -0.00046653359696
C   -4.89495929917518      5.69633040353158     -0.00103944469517
C   -3.65374067877320      4.98073034095895      0.00662099703436
C   -2.40942512149445      7.11398103667468      0.00209438359570
C   -2.42547734410473      5.68112195090346     -0.00491050527438
C   -1.19474401643570      7.78614419430947      0.00356656413763
C   0.03795902893699      7.09942164575698      0.00139585983271
C   0.03033258741920      5.66948955970466     -0.00408752508301
C   -1.20098450790502      4.96927034791531      0.00488220885047
C   1.27795782581485      7.77285944319479      0.00277170839332
C   2.48535808472416      7.08769688523756      0.00049722048857
C   2.48612868491717      5.65477081024076     -0.00644052849921
C   1.25408291964399      4.95607811366431      0.00518741308898
C   3.75171459140595      7.76391215098033      0.00062407186893
C   4.92356605618520      7.07878077698995     -0.00143240883900
C   4.95560727132542      5.64344746336949     -0.00159282164606
C   3.70680153420475      4.94121020833308      0.00349873852374
H   -3.65852113775815      8.89082741913536      0.00358502958574
H   -1.18921332975660      8.87412108735996      0.00753844057883
H   1.28429423888630      8.86083343548850      0.00693053253426
H   3.75354208679975      8.85103527897216      0.00214659618464
H   5.86995870320703      7.61379483465560     -0.00235777588134
H   -5.78823170750226      7.67630221293400     -0.00202638095293
C   -6.09197395869619      4.99326001364347     -0.00291168518608
C   -6.12866148031747      3.58258016879823     -0.00171050815740
C   -3.66457974004527      3.56418217974434     -0.00463560277484
C   -4.89429820469869      2.86108077590057      0.00453338221034
C   -2.43733499489796      2.84761165708481      0.00719617576166
C   -1.20922785759670      3.54788693497833     -0.00648285103018
C   1.24714157216223      3.53468075142962     -0.00729145743546
C   0.01517603956900      2.83311183930540      0.00439272578912
C   2.46764517244071      2.82128997725533      0.00449278391269
C   3.70254947457969      3.52466015442405     -0.00899517692985
C   6.14498038638375      4.92757236613191     -0.00282626685777
C   6.16658835886151      3.51658447594213     -0.00065971342101
C   4.92460995845939      2.80840792535402      0.00587903281610
H   7.08990550964105      5.46688776622306     -0.00658814770723
H   -7.03104175110130      5.54268795285765     -0.00714490013730
C   -7.33969804112295      2.85841153457957     -0.00333767559888
C   -7.36488195805880      1.47032337158330     -0.00157213747140
C   -4.90350460894690      1.44442681216000     -0.00628840166334
C   -6.13225715261081      0.73993935705394      0.00600164231964
C   -3.67687480051673      0.72669714267312      0.00433931473643
C   -2.44565658606518      1.42964113326212     -0.00597039546461
C   -1.22360068130162      0.71532450163492      0.00545886906656
C   0.00763786931376      1.41738314923765      0.00392452278437
C   1.23121980774686      0.70211669058719     -0.01490206287210
C   2.46082110053113      1.40329203612573      0.00460244601878
C   3.68443025419614      0.68719842821222      0.00377365974158
C   4.91870890153864      1.39173456118907     -0.00862816189375
C   7.36980207796101      2.77948220318441     -0.00242013321349
C   7.38016266612146      1.39121750785509     -0.00087345036788
C   6.13979953912259      0.67411862320065      0.00545489144369
H   -8.27919079934664      3.40711804112415     -0.00763522772059
H   8.31511347147953      3.31811809662368     -0.00663070901292
C   -8.59175593758115      0.72483255304480     -0.00123170985383
C   -8.59902460370342     -0.63263980622873      0.00089141472904
C   -6.13981313911873     -0.67413663715361     -0.00609792660607
C   -7.38018411213749     -1.39126618958160      0.00131813493501
C   -4.91868448025621     -1.39175501803000      0.00624257154343
C   -3.68443829568458     -0.68723731573599     -0.00478966852105
C   -2.46081704024768     -1.40334517882457      0.00575341766833
C   -1.23116201232071     -0.70217386488055     -0.00636696112346
C   -0.00756962538737     -1.41741884941102      0.00108956317991
C   1.22364771588843     -0.71527537726392      0.01109518512883
C   2.44567064933149     -1.42964328900682     -0.00065482763106
C   3.67686670284649     -0.72670743155550     -0.00479541202602
C   6.13224884641929     -0.73997883984993     -0.00632338623858
C   4.90351914550401     -1.44445752054090      0.00751768830159
C   8.59901484869081      0.63260386666793     -0.00101133422380
C   8.59174548810050     -0.72485086719319      0.00072504603735
C   7.36486276438985     -1.47033266560598      0.00049486934466
H   -9.52830597181814      1.27684744919284     -0.00270163681798
H   9.54141097460619      1.17457248844457     -0.00206336648518
C   -7.36983790976868     -2.77954514593389      0.00312634335708
C   -4.92459910905015     -2.80843725734101     -0.00460528907921
C   -6.16662249566744     -3.51665219282533      0.00169655107992
C   -3.70251035970491     -3.52468154912026      0.00571878010666
C   -2.46764698511392     -2.82132596280400     -0.00632585824990
C   -0.01513347410770     -2.83314164539971     -0.00604426974092
C   -1.24712184122656     -3.53473217556300      0.00551968366725
C   1.20924506964357     -3.54791467864352      0.00805871345849
C   2.43733602215464     -2.84764173817541     -0.00608104485234
C   4.89430234377080     -2.86112296828604     -0.00526030478103
C   3.66461525504104     -3.56421984553201      0.00761911515957
C   6.12863901474565     -3.58258405771778      0.00096495711699
C   7.33967266469532     -2.85841330737039      0.00248018319869
H   -9.54144911125902     -1.17456346666430      0.00226083090216
H   9.52826186807155     -1.27691907390448      0.00197485379837
H   -8.31516504384864     -3.31814985321231      0.00729857188773
H   8.27915514249207     -3.40714078989363      0.00681973918158
C   -6.14499418870218     -4.92764727278338      0.00302254913999
C   -3.70678334799751     -4.94126171411716     -0.00679841894792
C   -4.95559005800169     -5.64349397349412      0.00116871569699
C   -2.48612132622665     -5.65478557440947      0.00614125209662
C   -1.25405833548005     -4.95612205000132     -0.00503435388927
C   1.20101257386816     -4.96928038819302     -0.00385322963129
C   -0.03033667441341     -5.66952030313900      0.00398997003238
C   3.65375010132847     -4.98074377541453     -0.00309522988330
C   2.42549269587528     -5.68117463552727      0.00628170066869
C   6.09196561781097     -4.99325796338655      0.00325918379042
C   4.89497644461045     -5.69634842095790      0.00202298796027
H   -7.08989238804069     -5.46699984223871      0.00742531082125
H   7.03105520920009     -5.54265853633254      0.00683896355417
C   -4.92354532219813     -7.07882109967734      0.00061394679214
C   -2.48534208823777     -7.08772807792913     -0.00189594564379
C   -3.75168589177895     -7.76394715763627     -0.00170126671874
C   -0.03794895698805     -7.09946487446944     -0.00168022049625
C   -1.27795610040136     -7.77290438466689     -0.00366491325785
C   2.40944432072629     -7.11402201200282     -0.00081701968533
C   1.19474993715296     -7.78618536556242     -0.00296931056689
C   4.84762105249800     -7.13126211057943      0.00168979497423
C   3.66847160587561     -7.80378799294376     -0.00065863938960
H   -5.86994035041618     -7.61383059804164      0.00215798365757
H   5.78824962538815     -7.67633218931421      0.00281691445618
H   -3.75352693944918     -8.85107156923607     -0.00353718114765
H   -1.28430440589466     -8.86087539249706     -0.00809229711623
H   1.18922157469537     -8.87416062058945     -0.00706194725726
H   3.65854661482387     -8.89086063405326     -0.00231318081200

    units angstrom      # Angstroms are the default
    no_reorient         # Geometry fixed, default
    symmetry c1         # C1 symmetry, default
}

set {
    scf_type DF         # Density fitting, faster than exact integrals
    freeze_core True    # Freeze core electrons
    basis jun-cc-pVDZ   # Jun-cc-pVDZ basis set, recommended for sSAPT0 in https://doi.org/10.1063/1.4867135
}

energy('ssapt0')        # Compute sSAPT0 energy, includes also SAPT0
--------------------------------------------------------------------------

  //              Dimer HF             //
    Molecular point group: c1
  Charge       = 1
  Multiplicity = 1
  Basis Set: JUN-CC-PVDZ
    Blend: JUN-CC-PVDZ
  Basis Set: (JUN-CC-PVDZ AUX)
    Blend: JUN-CC-PVDZ-JKFIT
  @DF-RHF Final Energy: -3953.64514964673435
    Total Energy =                      -3953.6451496467343532
 Dipole X            :         -0.0020559            0.0004804           -0.0015755
 Dipole Y            :         -0.0492064            0.0561130            0.0069066
 Dipole Z            :         33.3088986          -45.4847583          -12.1758597
 Magnitude           :                                                   12.1758617
  //            Monomer A HF           //
    Molecular point group: c1
  Multiplicity = 1
  Basis Set: JUN-CC-PVDZ
    Blend: JUN-CC-PVDZ
  Basis Set: (JUN-CC-PVDZ AUX)
    Blend: JUN-CC-PVDZ-JKFIT
  @DF-RHF Final Energy:  -303.29721101934990
    Total Energy =                       -303.2972110193499020
  //            Monomer B HF           //
    Molecular point group: c1

    Geometry (in Angstrom), charge = 0, multiplicity = 1:

       Center              X                  Y                   Z               Mass
    ------------   -----------------  -----------------  -----------------  -----------------
      Gh(C)           0.680062820275    -0.008027535675    -8.421245028230    12.000000000000
      Gh(C)          -0.680508179725    -0.005999535675    -8.420861028230    12.000000000000
      Gh(N)          -1.085639179725    -0.005001535675    -7.102537028230    14.003074004430
      Gh(C)           0.000103820275    -0.001725535675    -6.321136028230    12.000000000000
      Gh(C)          -2.477369179725     0.044404464325    -6.634558028230    12.000000000000
      Gh(N)           1.085217820275    -0.005001535675    -7.102537028230    14.003074004430
      Gh(H)           1.385141820275    -0.015855535675    -9.238684028230     1.007825032230
      Gh(H)          -1.385306179725    -0.006189535675    -9.238530028230     1.007825032230
      Gh(H)          -0.000013179725     0.000021464325    -5.240047028230     1.007825032230
      Gh(C)           2.478112820275    -0.021893535675    -6.637439028230    12.000000000000
      Gh(H)           2.490587820275     0.005451464325    -5.547186028230     1.007825032230
      Gh(H)           2.967023820275    -0.935339535675    -6.984615028230     1.007825032230
      Gh(H)           3.001423820275     0.853589464325    -7.028911028230     1.007825032230
      Gh(H)          -2.857363179725     1.066475464325    -6.714517028230     1.007825032230
      Gh(H)          -3.082683179725    -0.625679535675    -7.247622028230     1.007825032230
      Gh(H)          -2.518132179725    -0.282579535675    -5.594610028230     1.007825032230
         C           -3.668445443746     7.803766634408     0.596584013106    12.000000000000
         C           -4.847602899072     7.131256295665     0.594217438173    12.000000000000
         C           -4.894963478901     5.696344867857     0.593644527075    12.000000000000
         C           -3.653744858499     4.980744805284     0.601304968805    12.000000000000
         C           -2.409429301220     7.113995501000     0.596778355366    12.000000000000
         C           -2.425481523830     5.681136415228     0.589773466496    12.000000000000
         C           -1.194748196161     7.786158658634     0.598250535908    12.000000000000
         C            0.037954849212     7.099436110082     0.596079831603    12.000000000000
         C            0.030328407694     5.669504024030     0.590596446687    12.000000000000
         C           -1.200988687630     4.969284812240     0.599566180621    12.000000000000
         C            1.277953646089     7.772873907520     0.597455680164    12.000000000000
         C            2.485353904999     7.087711349563     0.595181192259    12.000000000000
         C            2.486124505192     5.654785274566     0.588243443271    12.000000000000
         C            1.254078739919     4.956092577989     0.599871384859    12.000000000000
         C            3.751710411681     7.763926615305     0.595308043639    12.000000000000
         C            4.923561876460     7.078795241315     0.593251562931    12.000000000000
         C            4.955603091600     5.643461927694     0.593091150124    12.000000000000
         C            3.706797354479     4.941224672658     0.598182710294    12.000000000000
         H           -3.658525317484     8.890841883460     0.598269001356     1.007825032230
         H           -1.189217509482     8.874135551685     0.602222412349     1.007825032230
         H            1.284290059161     8.860847899813     0.601614504305     1.007825032230
         H            3.753537907074     8.851049743297     0.596830567955     1.007825032230
         H            5.869954523482     7.613809298981     0.592326195889     1.007825032230
         H           -5.788235887228     7.676316677259     0.592657590817     1.007825032230
         C           -6.091978138422     4.993274477968     0.591772286584    12.000000000000
         C           -6.128665660043     3.582594633123     0.592973463613    12.000000000000
         C           -3.664583919771     3.564196644069     0.590048368995    12.000000000000
         C           -4.894302384424     2.861095240226     0.599217353981    12.000000000000
         C           -2.437339174623     2.847626121410     0.601880147532    12.000000000000
         C           -1.209232037322     3.547901399303     0.588201120740    12.000000000000
         C            1.247137392437     3.534695215755     0.587392514335    12.000000000000
         C            0.015171859844     2.833126303630     0.599076697559    12.000000000000
         C            2.467640992715     2.821304441580     0.599176755683    12.000000000000
         C            3.702545294854     3.524674618749     0.585688794840    12.000000000000
         C            6.144976206658     4.927586830457     0.591857704913    12.000000000000
         C            6.166584179136     3.516598940267     0.594024258349    12.000000000000
         C            4.924605778734     2.808422389679     0.600563004586    12.000000000000
         H            7.089901329916     5.466902230548     0.588095824063     1.007825032230
         H           -7.031045930827     5.542702417183     0.587539071633     1.007825032230
         C           -7.339702220848     2.858425998905     0.591346296171    12.000000000000
         C           -7.364886137784     1.470337835908     0.593111834299    12.000000000000
         C           -4.903508788672     1.444441276485     0.588395570107    12.000000000000
         C           -6.132261332336     0.739953821379     0.600685614090    12.000000000000
         C           -3.676878980242     0.726711606998     0.599023286507    12.000000000000
         C           -2.445660765791     1.429655597587     0.588713576306    12.000000000000
         C           -1.223604861027     0.715338965960     0.600142840837    12.000000000000
         C            0.007633689588     1.417397613563     0.598608494555    12.000000000000
         C            1.231215628021     0.702131154912     0.579781908898    12.000000000000
         C            2.460816920806     1.403306500451     0.599286417789    12.000000000000
         C            3.684426074471     0.687212892537     0.598457631512    12.000000000000
         C            4.918704721813     1.391749025514     0.586055809877    12.000000000000
         C            7.369797898236     2.779496667509     0.592263838557    12.000000000000
         C            7.380158486396     1.391231972180     0.593810521402    12.000000000000
         C            6.139795359397     0.674133087526     0.600138863214    12.000000000000
         H           -8.279194979072     3.407132505449     0.587048744050     1.007825032230
         H            8.315109291754     3.318132560949     0.588053262757     1.007825032230
         C           -8.591760117307     0.724847017370     0.593452261916    12.000000000000
         C           -8.599028783429    -0.632625341904     0.595575386499    12.000000000000
         C           -6.139817318844    -0.674122172829     0.588586045164    12.000000000000
         C           -7.380188291863    -1.391251725257     0.596002106705    12.000000000000
         C           -4.918688659982    -1.391740553705     0.600926543314    12.000000000000
         C           -3.684442475410    -0.687222851411     0.589894303249    12.000000000000
         C           -2.460821219973    -1.403330714500     0.600437389439    12.000000000000
         C           -1.231166192046    -0.702159400556     0.588317010647    12.000000000000
         C           -0.007573805113    -1.417404385086     0.595773534950    12.000000000000
         C            1.223643536163    -0.715260912939     0.605779156899    12.000000000000
         C            2.445666469606    -1.429628824682     0.594029144139    12.000000000000
         C            3.676862523121    -0.726692967231     0.589888559744    12.000000000000
         C            6.132244666694    -0.739964375525     0.588360585532    12.000000000000
         C            4.903514965779    -1.444443056216     0.602201660072    12.000000000000
         C            8.599010668965     0.632618330993     0.593672637546    12.000000000000
         C            8.591741308375    -0.724836402868     0.595409017808    12.000000000000
         C            7.364858584664    -1.470318201281     0.595178841115    12.000000000000
         H           -9.528310151544     1.276861913518     0.591982334952     1.007825032230
         H            9.541406794881     1.174586952770     0.592620605285     1.007825032230
         C           -7.369842089494    -2.779530681609     0.597810315127    12.000000000000
         C           -4.924603288776    -2.808422793016     0.590078682691    12.000000000000
         C           -6.166626675393    -3.516637728500     0.596380522850    12.000000000000
         C           -3.702514539430    -3.524667084795     0.600402751877    12.000000000000
         C           -2.467651164839    -2.821311498479     0.588358113520    12.000000000000
         C           -0.015137653833    -2.833127181075     0.588639702029    12.000000000000
         C           -1.247126020952    -3.534717711238     0.600203655438    12.000000000000
         C            1.209240889918    -3.547900214319     0.602742685229    12.000000000000
         C            2.437331842429    -2.847627273850     0.588602926918    12.000000000000
         C            4.894298164045    -2.861108503961     0.589423666989    12.000000000000
         C            3.664611075316    -3.564205381207     0.602303086930    12.000000000000
         C            6.128634835020    -3.582569593393     0.595648928887    12.000000000000
         C            7.339668484970    -2.858398843045     0.597164154969    12.000000000000
         H           -9.541453290984    -1.174549002339     0.596944802672     1.007825032230
         H            9.528257688346    -1.276904609579     0.596658825569     1.007825032230
         H           -8.315169223574    -3.318135388887     0.601982543658     1.007825032230
         H            8.279150962767    -3.407126325569     0.601503710952     1.007825032230
         C           -6.144998368428    -4.927632808458     0.597706520910    12.000000000000
         C           -3.706787527723    -4.941247249792     0.587885552822    12.000000000000
         C           -4.955594237727    -5.643479509169     0.595852687467    12.000000000000
         C           -2.486125505952    -5.654771110084     0.600825223867    12.000000000000
         C           -1.254062515205    -4.956107585676     0.589649617881    12.000000000000
         C            1.201008394143    -4.969265923868     0.590830742139    12.000000000000
         C           -0.030340854139    -5.669505838814     0.598673941803    12.000000000000
         C            3.653745921603    -4.980729311090     0.591588741887    12.000000000000
         C            2.425488516150    -5.681160171202     0.600965672439    12.000000000000
         C            6.091961438086    -4.993243499062     0.597943155561    12.000000000000
         C            4.894972264885    -5.696333956633     0.596706959731    12.000000000000
         H           -7.089896567766    -5.466985377914     0.602109282592     1.007825032230
         H            7.031051029475    -5.542644072008     0.601522935324     1.007825032230
         C           -4.923549501924    -7.078806635352     0.595297918562    12.000000000000
         C           -2.485346267963    -7.087713613604     0.592788026126    12.000000000000
         C           -3.751690071504    -7.763932693311     0.592982705052    12.000000000000
         C           -0.037953136713    -7.099450410144     0.593003751274    12.000000000000
         C           -1.277960280127    -7.772889920342     0.591019058512    12.000000000000
         C            2.409440141001    -7.114007547678     0.593866952085    12.000000000000
         C            1.194745757428    -7.786170901237     0.591714661203    12.000000000000
         C            4.847616872773    -7.131247646254     0.596373766745    12.000000000000
         C            3.668467426150    -7.803773528619     0.594025332381    12.000000000000
         H           -5.869944530142    -7.613816133717     0.596841955428     1.007825032230
         H            5.788245445663    -7.676317724989     0.597500886226     1.007825032230
         H           -3.753531119175    -8.851057104911     0.591146790623     1.007825032230
         H           -1.284308585620    -8.860860928172     0.586591674654     1.007825032230
         H            1.189217394970    -8.874146156264     0.587622024513     1.007825032230
         H            3.658542435098    -8.890846169728     0.592370790958     1.007825032230

  Charge       = 0
  Multiplicity = 1
  Basis Set: JUN-CC-PVDZ
    Blend: JUN-CC-PVDZ
  Basis Set: (JUN-CC-PVDZ AUX)
    Blend: JUN-CC-PVDZ-JKFIT

    Orbital Energies [Eh]
    ---------------------

    Doubly Occupied:

       1A    -11.264050     2A    -11.263736     3A    -11.263733
       4A    -11.263393     5A    -11.263391     6A    -11.263356
       7A    -11.263198     8A    -11.263172     9A    -11.263170
      10A    -11.263013    11A    -11.262854    12A    -11.262848
      13A    -11.262371    14A    -11.262367    15A    -11.262294
      16A    -11.262293    17A    -11.262243    18A    -11.262208
      19A    -11.262163    20A    -11.262125    21A    -11.262122
      22A    -11.261968    23A    -11.261964    24A    -11.261846
      25A    -11.261832    26A    -11.261817    27A    -11.261813
      28A    -11.261766    29A    -11.261758    30A    -11.261685
      31A    -11.261659    32A    -11.261655    33A    -11.261630
      34A    -11.261628    35A    -11.261607    36A    -11.261559
      37A    -11.261421    38A    -11.261410    39A    -11.261404
      40A    -11.261397    41A    -11.261391    42A    -11.261383
      43A    -11.261379    44A    -11.261364    45A    -11.261359
      46A    -11.261337    47A    -11.261333    48A    -11.261329
      49A    -11.261175    50A    -11.261144    51A    -11.261141
      52A    -11.261061    53A    -11.261059    54A    -11.260988
      55A    -11.260022    56A    -11.260009    57A    -11.260006
      58A    -11.259977    59A    -11.259975    60A    -11.259959
      61A    -11.259399    62A    -11.259374    63A    -11.259371
      64A    -11.259320    65A    -11.259317    66A    -11.259288
      67A    -11.259026    68A    -11.259009    69A    -11.259006
      70A    -11.258979    71A    -11.258977    72A    -11.258965
      73A    -11.254595    74A    -11.254594    75A    -11.254591
      76A    -11.254590    77A    -11.254584    78A    -11.254581
      79A    -11.253746    80A    -11.253744    81A    -11.253742
      82A    -11.253740    83A    -11.253738    84A    -11.253732
      85A    -11.253661    86A    -11.253660    87A    -11.253657
      88A    -11.253656    89A    -11.253653    90A    -11.253647
      91A    -11.253123    92A    -11.253121    93A    -11.253120
      94A    -11.253117    95A    -11.253112    96A    -11.253109
      97A     -1.254143    98A     -1.239150    99A     -1.239149
     100A     -1.220592   101A     -1.220587   102A     -1.215617
     103A     -1.201153   104A     -1.195722   105A     -1.188308
     106A     -1.188306   107A     -1.173872   108A     -1.173870
     109A     -1.155782   110A     -1.155778   111A     -1.152886
     112A     -1.144825   113A     -1.144823   114A     -1.128705
     115A     -1.114863   116A     -1.113267   117A     -1.112647
     118A     -1.112632   119A     -1.111716   120A     -1.088566
     121A     -1.088551   122A     -1.077063   123A     -1.077062
     124A     -1.067760   125A     -1.067730   126A     -1.065131
     127A     -1.046925   128A     -1.046917   129A     -1.040614
     130A     -1.038836   131A     -1.038835   132A     -1.025398
     133A     -1.021569   134A     -1.021518   135A     -1.007296
     136A     -1.006941   137A     -1.003915   138A     -1.000640
     139A     -1.000592   140A     -0.991171   141A     -0.971129
     142A     -0.971080   143A     -0.955996   144A     -0.955940
     145A     -0.905768   146A     -0.905727   147A     -0.905643
     148A     -0.905603   149A     -0.904525   150A     -0.892540
     151A     -0.892480   152A     -0.890524   153A     -0.890467
     154A     -0.889599   155A     -0.872325   156A     -0.869139
     157A     -0.851655   158A     -0.848019   159A     -0.847998
     160A     -0.845756   161A     -0.843160   162A     -0.834690
     163A     -0.834677   164A     -0.828218   165A     -0.828213
     166A     -0.784679   167A     -0.784668   168A     -0.783806
     169A     -0.783780   170A     -0.782426   171A     -0.782405
     172A     -0.782189   173A     -0.767114   174A     -0.760962
     175A     -0.750737   176A     -0.733591   177A     -0.727197
     178A     -0.727182   179A     -0.725221   180A     -0.724664
     181A     -0.724645   182A     -0.718664   183A     -0.713927
     184A     -0.713921   185A     -0.699700   186A     -0.699686
     187A     -0.686297   188A     -0.686065   189A     -0.686062
     190A     -0.682288   191A     -0.682278   192A     -0.678921
     193A     -0.653751   194A     -0.651000   195A     -0.650970
     196A     -0.649974   197A     -0.649959   198A     -0.649673
     199A     -0.641094   200A     -0.641065   201A     -0.640198
     202A     -0.639262   203A     -0.636166   204A     -0.636139
     205A     -0.629268   206A     -0.617666   207A     -0.615407
     208A     -0.615386   209A     -0.608919   210A     -0.608912
     211A     -0.599183   212A     -0.599146   213A     -0.598876
     214A     -0.598750   215A     -0.598726   216A     -0.598202
     217A     -0.595174   218A     -0.595161   219A     -0.594846
     220A     -0.594407   221A     -0.592093   222A     -0.592090
     223A     -0.587563   224A     -0.577880   225A     -0.577870
     226A     -0.575733   227A     -0.575732   228A     -0.573494
     229A     -0.569576   230A     -0.568301   231A     -0.568276
     232A     -0.566882   233A     -0.566873   234A     -0.561000
     235A     -0.558861   236A     -0.558841   237A     -0.558516
     238A     -0.554493   239A     -0.550630   240A     -0.547558
     241A     -0.544340   242A     -0.535035   243A     -0.535005
     244A     -0.533656   245A     -0.533634   246A     -0.528183
     247A     -0.528168   248A     -0.527960   249A     -0.517320
     250A     -0.517286   251A     -0.515425   252A     -0.515420
     253A     -0.509746   254A     -0.509730   255A     -0.498141
     256A     -0.496573   257A     -0.496546   258A     -0.493843
     259A     -0.493832   260A     -0.489479   261A     -0.481555
     262A     -0.477488   263A     -0.477485   264A     -0.474106
     265A     -0.469576   266A     -0.466653   267A     -0.466648
     268A     -0.458877   269A     -0.446863   270A     -0.446803
     271A     -0.441100   272A     -0.440827   273A     -0.440801
     274A     -0.434756   275A     -0.433973   276A     -0.407449
     277A     -0.407425   278A     -0.386486   279A     -0.386437
     280A     -0.385798   281A     -0.385797   282A     -0.383830
     283A     -0.354400   284A     -0.354383   285A     -0.350738
     286A     -0.338169   287A     -0.335668   288A     -0.335601
     289A     -0.332780   290A     -0.332774   291A     -0.307165
     292A     -0.302027   293A     -0.301965   294A     -0.300913
     295A     -0.286243   296A     -0.256528   297A     -0.253578
     298A     -0.253526   299A     -0.204336   300A     -0.204248

  @DF-RHF Final Energy: -3650.33766575878553

   => Energetics <=

    Nuclear Repulsion Energy =          15611.4211649754306563
    One-Electron Energy =              -36072.0775628723422415
    Two-Electron Energy =               16810.3187321381265065
    Total Energy =                      -3650.3376657587868976
 Dipole X            :         -0.0009249            0.0002112           -0.0007137
 Dipole Y            :          0.0011290           -0.0013774           -0.0002484
 Dipole Z            :       -674.2741487          674.2772946            0.0031459
 Magnitude           :                                                    0.0032354

    SAPT Results
  --------------------------------------------------------------------------------------------------------
    Electrostatics                 -7.63625454 [mEh]      -4.79182206 [kcal/mol]     -20.04898352 [kJ/mol]
      Elst10,r                     -7.63625454 [mEh]      -4.79182206 [kcal/mol]     -20.04898352 [kJ/mol]

    Exchange                       -0.00023379 [mEh]      -0.00014671 [kcal/mol]      -0.00061382 [kJ/mol]
      Exch10                       -0.00023379 [mEh]      -0.00014671 [kcal/mol]      -0.00061382 [kJ/mol]
      Exch10(S^2)                  -0.00023379 [mEh]      -0.00014671 [kcal/mol]      -0.00061382 [kJ/mol]

    Induction                      -2.63638027 [mEh]      -1.65435360 [kcal/mol]      -6.92181545 [kJ/mol]
      Ind20,r                      -2.59733952 [mEh]      -1.62985516 [kcal/mol]      -6.81931398 [kJ/mol]
      Exch-Ind20,r                  0.00020890 [mEh]       0.00013108 [kcal/mol]       0.00054846 [kJ/mol]
      delta HF,r (2)               -0.03924965 [mEh]      -0.02462953 [kcal/mol]      -0.10304993 [kJ/mol]

    Dispersion                     -1.10389649 [mEh]      -0.69270551 [kcal/mol]      -2.89827985 [kJ/mol]
      Disp20                       -1.10396897 [mEh]      -0.69275099 [kcal/mol]      -2.89847014 [kJ/mol]
      Exch-Disp20                   0.00007248 [mEh]       0.00004548 [kcal/mol]       0.00019029 [kJ/mol]
      Disp20 (SS)                  -0.55198449 [mEh]      -0.34637549 [kcal/mol]      -1.44923507 [kJ/mol]
      Disp20 (OS)                  -0.55198449 [mEh]      -0.34637549 [kcal/mol]      -1.44923507 [kJ/mol]
      Exch-Disp20 (SS)              0.00005439 [mEh]       0.00003413 [kcal/mol]       0.00014281 [kJ/mol]
      Exch-Disp20 (OS)              0.00001808 [mEh]       0.00001135 [kcal/mol]       0.00004748 [kJ/mol]

  Total HF                        -10.27286860 [mEh]      -6.44632237 [kcal/mol]     -26.97141279 [kJ/mol]
  Total SAPT0                     -11.37676509 [mEh]      -7.13902788 [kcal/mol]     -29.86969264 [kJ/mol]

  Special recipe for scaled SAPT0 (see Manual):
    Electrostatics sSAPT0          -7.63625454 [mEh]      -4.79182206 [kcal/mol]     -20.04898352 [kJ/mol]
    Exchange sSAPT0                -0.00023379 [mEh]      -0.00014671 [kcal/mol]      -0.00061382 [kJ/mol]
    Induction sSAPT0               -2.63638027 [mEh]      -1.65435360 [kcal/mol]      -6.92181545 [kJ/mol]
    Dispersion sSAPT0              -1.10389649 [mEh]      -0.69270551 [kcal/mol]      -2.89827985 [kJ/mol]
  Total sSAPT0                    -11.37676509 [mEh]      -7.13902788 [kcal/mol]     -29.86969264 [kJ/mol]
  --------------------------------------------------------------------------------------------------------

*** Psi4 exiting successfully. Buy a developer a beer!
