                               Psi4 1.9 release

  ==> Input File <==

--------------------------------------------------------------------------
memory 32 GB # how much memory is available ! Depends on the nodes/cores !

molecule dimer {
# monomer A
-1 1    # Charge and multiplicity
B -1.977592e-04  2.742729e-04 -5.599966
F  1.123153e-16  1.430594e-17 -4.187181
F  1.147860e+00  6.757812e-01 -6.071107
F  1.191806e-02 -1.332011e+00 -6.070905
F -1.159666e+00  6.560735e-01 -6.070826
--
# monomer B
0 1     # Charge and multiplicity
C   1.22531237526482      0.70753866091955      0.00613762728373
C   1.22532433589282     -0.70753852257020     -0.00619318228664
C   -0.00000567409046      1.41496628609039     -0.00672680580738
C   2.45644923379077      1.41832825917820      0.00902448468363
C   0.00001130712078     -1.41497612663474      0.00347275151708
C   -1.22530046906674      0.70754574598412      0.00838914760619
C   2.45643823516184     -1.41832293188077     -0.00843833914343
C   -0.00000085313587      2.83680140328112     -0.00913035594137
C   3.68182717731192      0.70931832800114     -0.00808954934571
C   2.45512052870677      2.83422403348893     -0.00819210630633
C   3.68182158506039     -0.70933346742900      0.00798293467272
C   -1.22531311884624     -0.70752714354401     -0.00512042085974
C   1.22670006104402      3.54346985599427      0.00816696660346
C   0.00000526469929     -2.83678176723568      0.00832091913869
C   -2.45643555300670      1.41831729028492      0.00842454345199
C   2.45512389762097     -2.83422965658853      0.00783102630520
C   -1.22671388474763      3.54346943575023      0.00827029982280
C   4.91451777504333      1.42717324448953     -0.00160886631602
C   3.69315067131765      3.54279566454522     -0.00155906667985
C   -2.45643712022637     -1.41831290883911     -0.00846337726810
C   1.22670532178455     -3.54347386990643     -0.00780316414624
C   -2.45512491866593      2.83421703463423     -0.00818572995999
C   4.91452486062398     -1.42718653794377      0.00136387641845
C   1.22142509354026      4.97013443726031      0.00150231067809
C   4.89300870916237      2.82518837202648     -0.00039219795739
C   -1.22669652864725     -3.54347062507680     -0.00753595973677
C   -3.68181849668397      0.70932533873199     -0.00807686886569
C   3.69314758099218     -3.54280096939050      0.00148176697923
C   -1.22143177215231      4.97012866986289      0.00168580605083
C   6.13477145276790      0.68054831910577     -0.00083909176631
C   3.65678936045204      4.97295361556775     -0.00065042889723
C   -2.45512642789169     -2.83421472106065      0.00758666850712
C   -3.68181869921921     -0.70932533146830      0.00810055625144
C   4.89301309775526     -2.82519973363176      0.00021895393805
C   -0.00000059327114      5.65044773803267      0.00045449734393
C   6.13477559217374     -0.68055448207492      0.00042622874941
C   2.47813196269732      5.65357712333155      0.00063835075260
C   1.22142288457925     -4.97012668293268     -0.00129718634452
C   -3.69316190412301      3.54279732619245     -0.00139355922051
C   -1.22142804110313     -4.97011793159564     -0.00140994817719
C   -4.91452132810043      1.42717581899491     -0.00153192130862
C   3.65678749952045     -4.97295485423912      0.00080007163680
C   -2.47813805026426      5.65357479452875      0.00092287576113
C   -3.69314125872231     -3.54278984697859      0.00136564082345
C   -4.91451200321153     -1.42718062802730      0.00139857359209
C   -0.00000552908399     -5.65043791501335      0.00005899322272
C   -4.89302000425900      2.82518897091939     -0.00040227981744
C   2.47812647313991     -5.65357317188818     -0.00029052915548
C   -3.65679823041642      4.97295655404175     -0.00047374852278
C   -4.89299899901461     -2.82519139505969      0.00006491824035
C   -2.47812801824129     -5.65356579800621     -0.00056571680280
C   -6.13477002348955      0.68054913825639     -0.00086464346868
C   -3.65678835334731     -4.97294365097028      0.00058578382008
C   -6.13476456307132     -0.68055354348201      0.00040575295444
H   5.83528897565761      3.36927626695423      0.00396712770529
H   7.07385965258860      1.22821762089947     -0.00037744837300
H   4.60066374401555      5.51238117445323     -0.00014522814529
H   5.83528386714679     -3.36930568472863     -0.00423551337640
H   -0.00001167146422      6.73853104613662     -0.00389474766392
H   7.07386165167227     -1.22822657074368     -0.00008250934481
H   2.47331421164041      6.74068466339473      0.00017162982210
H   4.60066897122302     -5.51237575717576      0.00039007446835
H   -2.47331820069565      6.74068209160650      0.00047297644710
H   -0.00000978838621     -6.73852780445195      0.00458867820736
H   -5.83530143450167      3.36927132229595      0.00410314985360
H   2.47330840367253     -6.74068500242887      0.00027980126949
H   -4.60067436136587      5.51237839860371      0.00002010017831
H   -5.83527902699321     -3.36928859177951     -0.00451481925734
H   -2.47329986759855     -6.74067870613986     -0.00016951527498
H   -7.07385728692578      1.22822084484047     -0.00046143985387
H   -4.60067330624313     -5.51236229778631      0.00021776644566
H   -7.07385645456741     -1.22822025997701     -0.00017736581114

    units angstrom      # Angstroms are the default
    no_reorient         # Geometry fixed, default
    symmetry c1         # C1 symmetry, default
}

set {
    scf_type DF         # Density fitting, faster than exact integrals
    freeze_core True    # Freeze core electrons
    basis jun-cc-pVDZ   # Jun-cc-pVDZ basis set, recommended for sSAPT0 in https://doi.org/10.1063/1.4867135
}

energy('ssapt0')        # Compute sSAPT0 energy, includes also SAPT0
--------------------------------------------------------------------------

  //              Dimer HF             //
    Molecular point group: c1
  Charge       = -1
  Multiplicity = 1
  Basis Set: JUN-CC-PVDZ
    Blend: JUN-CC-PVDZ
  Basis Set: (JUN-CC-PVDZ AUX)
    Blend: JUN-CC-PVDZ-JKFIT
  @DF-RHF Final Energy: -2478.65934960367485
    Total Energy =                      -2478.6593496036748547
 Dipole X            :         -0.0004812            0.0000481           -0.0004332
 Dipole Y            :          0.0009794           -0.0001453            0.0008341
 Dipole Z            :        -25.9456177           34.3300233            8.3844056
 Magnitude           :                                                    8.3844057
  //            Monomer A HF           //
    Molecular point group: c1
  Multiplicity = 1
  Basis Set: JUN-CC-PVDZ
    Blend: JUN-CC-PVDZ
  Basis Set: (JUN-CC-PVDZ AUX)
    Blend: JUN-CC-PVDZ-JKFIT
  @DF-RHF Final Energy:  -422.77182132402135
    Total Energy =                       -422.7718213240213458
  //            Monomer B HF           //
    Molecular point group: c1

    Geometry (in Angstrom), charge = 0, multiplicity = 1:

       Center              X                  Y                   Z               Mass
    ------------   -----------------  -----------------  -----------------  -----------------
      Gh(B)          -0.000198161052     0.000273808717    -4.953053648695    11.009305360000
      Gh(F)          -0.000000401852    -0.000000464183    -3.540268648695    18.998403162730
      Gh(F)           1.147859598148     0.675780735817    -5.424194648695    18.998403162730
      Gh(F)           0.011917658148    -1.332011464183    -5.423992648695    18.998403162730
      Gh(F)          -1.159666401852     0.656073035817    -5.423913648695    18.998403162730
         C            1.225311973413     0.707538196736     0.653049978588    12.000000000000
         C            1.225323934041    -0.707538986754     0.640719169018    12.000000000000
         C           -0.000006075942     1.414965821907     0.640185545497    12.000000000000
         C            2.456448831939     1.418327794995     0.655936835988    12.000000000000
         C            0.000010905269    -1.414976590818     0.650385102822    12.000000000000
         C           -1.225300870919     0.707545281801     0.655301498911    12.000000000000
         C            2.456437833310    -1.418323396064     0.638474012161    12.000000000000
         C           -0.000001254988     2.836800939098     0.637781995363    12.000000000000
         C            3.681826775460     0.709317863818     0.638822801959    12.000000000000
         C            2.455120126855     2.834223569306     0.638720244998    12.000000000000
         C            3.681821183209    -0.709333931612     0.654895285977    12.000000000000
         C           -1.225313520698    -0.707527607727     0.641791930445    12.000000000000
         C            1.226699659192     3.543469391811     0.655079317908    12.000000000000
         C            0.000004862847    -2.836782231419     0.655233270443    12.000000000000
         C           -2.456435954859     1.418316826102     0.655336894757    12.000000000000
         C            2.455123495769    -2.834230120772     0.654743377610    12.000000000000
         C           -1.226714286599     3.543468971567     0.655182651127    12.000000000000
         C            4.914517373191     1.427172780306     0.645303484989    12.000000000000
         C            3.693150269466     3.542795200362     0.645353284625    12.000000000000
         C           -2.456437522078    -1.418313373022     0.638448974037    12.000000000000
         C            1.226704919933    -3.543474334090     0.639109187158    12.000000000000
         C           -2.455125320518     2.834216570451     0.638726621345    12.000000000000
         C            4.914524458772    -1.427187002127     0.648276227723    12.000000000000
         C            1.221424691688     4.970133973077     0.648414661983    12.000000000000
         C            4.893008307311     2.825187907843     0.646520153347    12.000000000000
         C           -1.226696930499    -3.543471089260     0.639376391568    12.000000000000
         C           -3.681818898536     0.709324874549     0.638835482439    12.000000000000
         C            3.693147179140    -3.542801433574     0.648394118284    12.000000000000
         C           -1.221432174004     4.970128205680     0.648598157355    12.000000000000
         C            6.134771050916     0.680547854922     0.646073259538    12.000000000000
         C            3.656788958600     4.972953151384     0.646261922407    12.000000000000
         C           -2.455126829744    -2.834215185244     0.654499019812    12.000000000000
         C           -3.681819101071    -0.709325795652     0.655012907556    12.000000000000
         C            4.893012695903    -2.825200197815     0.647131305243    12.000000000000
         C           -0.000000995123     5.650447273849     0.647366848649    12.000000000000
         C            6.134775190322    -0.680554946258     0.647338580054    12.000000000000
         C            2.478131560845     5.653576659148     0.647550702057    12.000000000000
         C            1.221422482727    -4.970127147116     0.645615164960    12.000000000000
         C           -3.693162305975     3.542796862009     0.645518792084    12.000000000000
         C           -1.221428442955    -4.970118395779     0.645502403127    12.000000000000
         C           -4.914521729952     1.427175354812     0.645380429996    12.000000000000
         C            3.656787097669    -4.972955318422     0.647712422941    12.000000000000
         C           -2.478138452116     5.653574330345     0.647835227066    12.000000000000
         C           -3.693141660574    -3.542790311162     0.648277992128    12.000000000000
         C           -4.914512405063    -1.427181092211     0.648310924897    12.000000000000
         C           -0.000005930936    -5.650438379197     0.646971344527    12.000000000000
         C           -4.893020406111     2.825188506736     0.646510071487    12.000000000000
         C            2.478126071288    -5.653573636072     0.646621822149    12.000000000000
         C           -3.656798632268     4.972956089858     0.646438602782    12.000000000000
         C           -4.892999400866    -2.825191859243     0.646977269545    12.000000000000
         C           -2.478128420093    -5.653566262190     0.646346634502    12.000000000000
         C           -6.134770425341     0.680548674073     0.646047707836    12.000000000000
         C           -3.656788755199    -4.972944115154     0.647498135125    12.000000000000
         C           -6.134764964923    -0.680554007665     0.647318104259    12.000000000000
         H            5.835288573806     3.369275802771     0.650879479010     1.007825032230
         H            7.073859250737     1.228217156716     0.646534902932     1.007825032230
         H            4.600663342164     5.512380710270     0.646767123159     1.007825032230
         H            5.835283465295    -3.369306148912     0.642676837928     1.007825032230
         H           -0.000012073316     6.738530581953     0.643017603641     1.007825032230
         H            7.073861249820    -1.228227034927     0.646829841960     1.007825032230
         H            2.473313809789     6.740684199211     0.647083981127     1.007825032230
         H            4.600668569371    -5.512376221359     0.647302425773     1.007825032230
         H           -2.473318602548     6.740681627423     0.647385327752     1.007825032230
         H           -0.000010190238    -6.738528268635     0.651501029512     1.007825032230
         H           -5.835301836354     3.369270858113     0.651015501158     1.007825032230
         H            2.473308001821    -6.740685466612     0.647192152574     1.007825032230
         H           -4.600674763218     5.512377934420     0.646932451483     1.007825032230
         H           -5.835279428845    -3.369289055963     0.642397532047     1.007825032230
         H           -2.473300269450    -6.740679170323     0.646742836030     1.007825032230
         H           -7.073857688778     1.228220380657     0.646450911451     1.007825032230
         H           -4.600673708095    -5.512362761970     0.647130117750     1.007825032230
         H           -7.073856856419    -1.228220724160     0.646734985493     1.007825032230

  Charge       = 0
  Multiplicity = 1
  Basis Set: JUN-CC-PVDZ
    Blend: JUN-CC-PVDZ
  Basis Set: (JUN-CC-PVDZ AUX)
    Blend: JUN-CC-PVDZ-JKFIT

    Orbital Energies [Eh]
    ---------------------

    Doubly Occupied:

       1A    -11.260683     2A    -11.260234     3A    -11.260231
       4A    -11.259484     5A    -11.259483     6A    -11.259296
       7A    -11.259076     8A    -11.259003     9A    -11.259002
      10A    -11.258697    11A    -11.258694    12A    -11.258608
      13A    -11.258550    14A    -11.258546    15A    -11.258544
      16A    -11.258511    17A    -11.258505    18A    -11.258490
      19A    -11.258474    20A    -11.258469    21A    -11.258464
      22A    -11.258381    23A    -11.258377    24A    -11.258110
      25A    -11.257394    26A    -11.257331    27A    -11.257330
      28A    -11.257194    29A    -11.257194    30A    -11.257109
      31A    -11.256486    32A    -11.256415    33A    -11.256414
      34A    -11.256305    35A    -11.256304    36A    -11.256257
      37A    -11.252357    38A    -11.252357    39A    -11.252355
      40A    -11.252354    41A    -11.252352    42A    -11.252350
      43A    -11.251478    44A    -11.251475    45A    -11.251474
      46A    -11.251468    47A    -11.251468    48A    -11.251463
      49A    -11.250919    50A    -11.250918    51A    -11.250917
      52A    -11.250915    53A    -11.250913    54A    -11.250912
      55A     -1.244172    56A     -1.219928    57A     -1.219927
      58A     -1.189653    59A     -1.189645    60A     -1.181045
      61A     -1.157665    62A     -1.149089    63A     -1.135593
      64A     -1.135586    65A     -1.113297    66A     -1.113293
      67A     -1.082539    68A     -1.082532    69A     -1.078707
      70A     -1.066082    71A     -1.066079    72A     -1.039509
      73A     -1.024391    74A     -1.021870    75A     -1.021827
      76A     -1.017833    77A     -1.012892    78A     -0.987134
      79A     -0.987088    80A     -0.961981    81A     -0.961931
      82A     -0.894396    83A     -0.894370    84A     -0.888044
      85A     -0.886292    86A     -0.886234    87A     -0.881514
      88A     -0.881466    89A     -0.862004    90A     -0.837504
      91A     -0.818324    92A     -0.816724    93A     -0.812245
      94A     -0.812236    95A     -0.794789    96A     -0.794779
      97A     -0.746744    98A     -0.744964    99A     -0.733521
     100A     -0.733512   101A     -0.732287   102A     -0.732263
     103A     -0.716601   104A     -0.699079   105A     -0.699069
     106A     -0.693694   107A     -0.693679   108A     -0.661335
     109A     -0.653201   110A     -0.651268   111A     -0.650351
     112A     -0.650345   113A     -0.639468   114A     -0.639465
     115A     -0.629824   116A     -0.627632   117A     -0.627617
     118A     -0.606522   119A     -0.605892   120A     -0.601774
     121A     -0.599846   122A     -0.599815   123A     -0.593751
     124A     -0.591331   125A     -0.591321   126A     -0.585371
     127A     -0.576394   128A     -0.576389   129A     -0.567421
     130A     -0.567407   131A     -0.566056   132A     -0.566037
     133A     -0.558828   134A     -0.554945   135A     -0.554939
     136A     -0.538695   137A     -0.538693   138A     -0.538241
     139A     -0.538235   140A     -0.529825   141A     -0.528247
     142A     -0.522976   143A     -0.522970   144A     -0.500607
     145A     -0.495674   146A     -0.493340   147A     -0.487902
     148A     -0.485188   149A     -0.481866   150A     -0.481858
     151A     -0.470403   152A     -0.470386   153A     -0.451133
     154A     -0.451055   155A     -0.439145   156A     -0.439136
     157A     -0.404810   158A     -0.404787   159A     -0.403459
     160A     -0.375498   161A     -0.375495   162A     -0.349200
     163A     -0.337644   164A     -0.336636   165A     -0.336579
     166A     -0.311176   167A     -0.298174   168A     -0.284416
     169A     -0.284362   170A     -0.224999   171A     -0.224934

  @DF-RHF Final Energy: -2055.89253009372624

   => Energetics <=

    Nuclear Repulsion Energy =           6452.5568002797772351
    One-Electron Energy =              -15636.4506184767542436
    Two-Electron Energy =                7128.0012881032507721
    Total Energy =                      -2055.8925300937262364
 Dipole X            :          0.0000355            0.0000419            0.0000774
 Dipole Y            :          0.0000424           -0.0000426           -0.0000001
 Dipole Z            :       -418.0866768          418.0891696            0.0024927
 Magnitude           :                                                    0.0024939

    SAPT Results
  --------------------------------------------------------------------------------------------------------
    Electrostatics                  9.89143115 [mEh]       6.20696676 [kcal/mol]      25.96994891 [kJ/mol]
      Elst10,r                      9.89143115 [mEh]       6.20696676 [kcal/mol]      25.96994891 [kJ/mol]

    Exchange                        0.04539717 [mEh]       0.02848715 [kcal/mol]       0.11919024 [kJ/mol]
      Exch10                        0.04539717 [mEh]       0.02848715 [kcal/mol]       0.11919024 [kJ/mol]
      Exch10(S^2)                   0.04539872 [mEh]       0.02848813 [kcal/mol]       0.11919434 [kJ/mol]

    Induction                      -4.93501425 [mEh]      -3.09676819 [kcal/mol]     -12.95687812 [kJ/mol]
      Ind20,r                      -4.99474863 [mEh]      -3.13425208 [kcal/mol]     -13.11371072 [kJ/mol]
      Exch-Ind20,r                  0.00903037 [mEh]       0.00566664 [kcal/mol]       0.02370924 [kJ/mol]
      delta HF,r (2)                0.05070401 [mEh]       0.03181725 [kcal/mol]       0.13312336 [kJ/mol]

    Dispersion                     -1.43396929 [mEh]      -0.89982931 [kcal/mol]      -3.76488585 [kJ/mol]
      Disp20                       -1.44859279 [mEh]      -0.90900570 [kcal/mol]      -3.80327985 [kJ/mol]
      Exch-Disp20                   0.01462350 [mEh]       0.00917639 [kcal/mol]       0.03839401 [kJ/mol]
      Disp20 (SS)                  -0.72429640 [mEh]      -0.45450285 [kcal/mol]      -1.90163993 [kJ/mol]
      Disp20 (OS)                  -0.72429640 [mEh]      -0.45450285 [kcal/mol]      -1.90163993 [kJ/mol]
      Exch-Disp20 (SS)              0.01022049 [mEh]       0.00641345 [kcal/mol]       0.02683389 [kJ/mol]
      Exch-Disp20 (OS)              0.00440302 [mEh]       0.00276293 [kcal/mol]       0.01156012 [kJ/mol]

  Total HF                          5.00181407 [mEh]       3.13868572 [kcal/mol]      13.13226104 [kJ/mol]
  Total SAPT0                       3.56784478 [mEh]       2.23885640 [kcal/mol]       9.36737519 [kJ/mol]

  Special recipe for scaled SAPT0 (see Manual):
    Electrostatics sSAPT0           9.89143115 [mEh]       6.20696676 [kcal/mol]      25.96994891 [kJ/mol]
    Exchange sSAPT0                 0.04539717 [mEh]       0.02848715 [kcal/mol]       0.11919024 [kJ/mol]
    Induction sSAPT0               -4.93501518 [mEh]      -3.09676878 [kcal/mol]     -12.95688056 [kJ/mol]
    Dispersion sSAPT0              -1.43397080 [mEh]      -0.89983026 [kcal/mol]      -3.76488980 [kJ/mol]
  Total sSAPT0                      3.56784235 [mEh]       2.23885487 [kcal/mol]       9.36736879 [kJ/mol]
  --------------------------------------------------------------------------------------------------------

*** Psi4 exiting successfully. Buy a developer a beer!
