                               Psi4 1.9 release

  ==> Input File <==

--------------------------------------------------------------------------
memory 47 GB # how much memory is available ! Depends on the nodes/cores !

molecule dimer {
# monomer A
-1 1    # Charge and multiplicity
B -1.977592e-04  2.742729e-04 5.800034
F  1.123153e-16  1.430594e-17 7.212819
F  1.147860e+00  6.757812e-01 5.328893
F  1.191806e-02 -1.332011e+00 5.329095
F -1.159666e+00  6.560735e-01 5.329174
--
# monomer B
0 1     # Charge and multiplicity
C   -3.66844126402057      7.80375217008252      0.00190004133558
C   -4.84759871934653      7.13124183134024     -0.00046653359696
C   -4.89495929917518      5.69633040353158     -0.00103944469517
C   -3.65374067877320      4.98073034095895      0.00662099703436
C   -2.40942512149445      7.11398103667468      0.00209438359570
C   -2.42547734410473      5.68112195090346     -0.00491050527438
C   -1.19474401643570      7.78614419430947      0.00356656413763
C   0.03795902893699      7.09942164575698      0.00139585983271
C   0.03033258741920      5.66948955970466     -0.00408752508301
C   -1.20098450790502      4.96927034791531      0.00488220885047
C   1.27795782581485      7.77285944319479      0.00277170839332
C   2.48535808472416      7.08769688523756      0.00049722048857
C   2.48612868491717      5.65477081024076     -0.00644052849921
C   1.25408291964399      4.95607811366431      0.00518741308898
C   3.75171459140595      7.76391215098033      0.00062407186893
C   4.92356605618520      7.07878077698995     -0.00143240883900
C   4.95560727132542      5.64344746336949     -0.00159282164606
C   3.70680153420475      4.94121020833308      0.00349873852374
H   -3.65852113775815      8.89082741913536      0.00358502958574
H   -1.18921332975660      8.87412108735996      0.00753844057883
H   1.28429423888630      8.86083343548850      0.00693053253426
H   3.75354208679975      8.85103527897216      0.00214659618464
H   5.86995870320703      7.61379483465560     -0.00235777588134
H   -5.78823170750226      7.67630221293400     -0.00202638095293
C   -6.09197395869619      4.99326001364347     -0.00291168518608
C   -6.12866148031747      3.58258016879823     -0.00171050815740
C   -3.66457974004527      3.56418217974434     -0.00463560277484
C   -4.89429820469869      2.86108077590057      0.00453338221034
C   -2.43733499489796      2.84761165708481      0.00719617576166
C   -1.20922785759670      3.54788693497833     -0.00648285103018
C   1.24714157216223      3.53468075142962     -0.00729145743546
C   0.01517603956900      2.83311183930540      0.00439272578912
C   2.46764517244071      2.82128997725533      0.00449278391269
C   3.70254947457969      3.52466015442405     -0.00899517692985
C   6.14498038638375      4.92757236613191     -0.00282626685777
C   6.16658835886151      3.51658447594213     -0.00065971342101
C   4.92460995845939      2.80840792535402      0.00587903281610
H   7.08990550964105      5.46688776622306     -0.00658814770723
H   -7.03104175110130      5.54268795285765     -0.00714490013730
C   -7.33969804112295      2.85841153457957     -0.00333767559888
C   -7.36488195805880      1.47032337158330     -0.00157213747140
C   -4.90350460894690      1.44442681216000     -0.00628840166334
C   -6.13225715261081      0.73993935705394      0.00600164231964
C   -3.67687480051673      0.72669714267312      0.00433931473643
C   -2.44565658606518      1.42964113326212     -0.00597039546461
C   -1.22360068130162      0.71532450163492      0.00545886906656
C   0.00763786931376      1.41738314923765      0.00392452278437
C   1.23121980774686      0.70211669058719     -0.01490206287210
C   2.46082110053113      1.40329203612573      0.00460244601878
C   3.68443025419614      0.68719842821222      0.00377365974158
C   4.91870890153864      1.39173456118907     -0.00862816189375
C   7.36980207796101      2.77948220318441     -0.00242013321349
C   7.38016266612146      1.39121750785509     -0.00087345036788
C   6.13979953912259      0.67411862320065      0.00545489144369
H   -8.27919079934664      3.40711804112415     -0.00763522772059
H   8.31511347147953      3.31811809662368     -0.00663070901292
C   -8.59175593758115      0.72483255304480     -0.00123170985383
C   -8.59902460370342     -0.63263980622873      0.00089141472904
C   -6.13981313911873     -0.67413663715361     -0.00609792660607
C   -7.38018411213749     -1.39126618958160      0.00131813493501
C   -4.91868448025621     -1.39175501803000      0.00624257154343
C   -3.68443829568458     -0.68723731573599     -0.00478966852105
C   -2.46081704024768     -1.40334517882457      0.00575341766833
C   -1.23116201232071     -0.70217386488055     -0.00636696112346
C   -0.00756962538737     -1.41741884941102      0.00108956317991
C   1.22364771588843     -0.71527537726392      0.01109518512883
C   2.44567064933149     -1.42964328900682     -0.00065482763106
C   3.67686670284649     -0.72670743155550     -0.00479541202602
C   6.13224884641929     -0.73997883984993     -0.00632338623858
C   4.90351914550401     -1.44445752054090      0.00751768830159
C   8.59901484869081      0.63260386666793     -0.00101133422380
C   8.59174548810050     -0.72485086719319      0.00072504603735
C   7.36486276438985     -1.47033266560598      0.00049486934466
H   -9.52830597181814      1.27684744919284     -0.00270163681798
H   9.54141097460619      1.17457248844457     -0.00206336648518
C   -7.36983790976868     -2.77954514593389      0.00312634335708
C   -4.92459910905015     -2.80843725734101     -0.00460528907921
C   -6.16662249566744     -3.51665219282533      0.00169655107992
C   -3.70251035970491     -3.52468154912026      0.00571878010666
C   -2.46764698511392     -2.82132596280400     -0.00632585824990
C   -0.01513347410770     -2.83314164539971     -0.00604426974092
C   -1.24712184122656     -3.53473217556300      0.00551968366725
C   1.20924506964357     -3.54791467864352      0.00805871345849
C   2.43733602215464     -2.84764173817541     -0.00608104485234
C   4.89430234377080     -2.86112296828604     -0.00526030478103
C   3.66461525504104     -3.56421984553201      0.00761911515957
C   6.12863901474565     -3.58258405771778      0.00096495711699
C   7.33967266469532     -2.85841330737039      0.00248018319869
H   -9.54144911125902     -1.17456346666430      0.00226083090216
H   9.52826186807155     -1.27691907390448      0.00197485379837
H   -8.31516504384864     -3.31814985321231      0.00729857188773
H   8.27915514249207     -3.40714078989363      0.00681973918158
C   -6.14499418870218     -4.92764727278338      0.00302254913999
C   -3.70678334799751     -4.94126171411716     -0.00679841894792
C   -4.95559005800169     -5.64349397349412      0.00116871569699
C   -2.48612132622665     -5.65478557440947      0.00614125209662
C   -1.25405833548005     -4.95612205000132     -0.00503435388927
C   1.20101257386816     -4.96928038819302     -0.00385322963129
C   -0.03033667441341     -5.66952030313900      0.00398997003238
C   3.65375010132847     -4.98074377541453     -0.00309522988330
C   2.42549269587528     -5.68117463552727      0.00628170066869
C   6.09196561781097     -4.99325796338655      0.00325918379042
C   4.89497644461045     -5.69634842095790      0.00202298796027
H   -7.08989238804069     -5.46699984223871      0.00742531082125
H   7.03105520920009     -5.54265853633254      0.00683896355417
C   -4.92354532219813     -7.07882109967734      0.00061394679214
C   -2.48534208823777     -7.08772807792913     -0.00189594564379
C   -3.75168589177895     -7.76394715763627     -0.00170126671874
C   -0.03794895698805     -7.09946487446944     -0.00168022049625
C   -1.27795610040136     -7.77290438466689     -0.00366491325785
C   2.40944432072629     -7.11402201200282     -0.00081701968533
C   1.19474993715296     -7.78618536556242     -0.00296931056689
C   4.84762105249800     -7.13126211057943      0.00168979497423
C   3.66847160587561     -7.80378799294376     -0.00065863938960
H   -5.86994035041618     -7.61383059804164      0.00215798365757
H   5.78824962538815     -7.67633218931421      0.00281691445618
H   -3.75352693944918     -8.85107156923607     -0.00353718114765
H   -1.28430440589466     -8.86087539249706     -0.00809229711623
H   1.18922157469537     -8.87416062058945     -0.00706194725726
H   3.65854661482387     -8.89086063405326     -0.00231318081200

    units angstrom      # Angstroms are the default
    no_reorient         # Geometry fixed, default
    symmetry c1         # C1 symmetry, default
}

set {
    scf_type DF         # Density fitting, faster than exact integrals
    freeze_core True    # Freeze core electrons
    basis jun-cc-pVDZ   # Jun-cc-pVDZ basis set, recommended for sSAPT0 in https://doi.org/10.1063/1.4867135
}

energy('ssapt0')        # Compute sSAPT0 energy, includes also SAPT0
--------------------------------------------------------------------------

  //              Dimer HF             //
    Molecular point group: c1
  Charge       = -1
  Multiplicity = 1
  Basis Set: JUN-CC-PVDZ
    Blend: JUN-CC-PVDZ
  Basis Set: (JUN-CC-PVDZ AUX)
    Blend: JUN-CC-PVDZ-JKFIT
  @DF-RHF Final Energy: -4073.10495147446227
    Total Energy =                      -4073.1049514744627231
 Dipole X            :         -0.0003919           -0.0000548           -0.0004466
 Dipole Y            :          0.0010441           -0.0002464            0.0007977
 Dipole Z            :         25.4415090          -34.5170281           -9.0755191
 Magnitude           :                                                    9.0755192
  //            Monomer A HF           //
    Molecular point group: c1
  Multiplicity = 1
  Basis Set: JUN-CC-PVDZ
    Blend: JUN-CC-PVDZ
  Basis Set: (JUN-CC-PVDZ AUX)
    Blend: JUN-CC-PVDZ-JKFIT
  @DF-RHF Final Energy:  -422.77164874929031
    Total Energy =                       -422.7716487492903070
  //            Monomer B HF           //
    Molecular point group: c1

    Geometry (in Angstrom), charge = 0, multiplicity = 1:

       Center              X                  Y                   Z               Mass
    ------------   -----------------  -----------------  -----------------  -----------------
      Gh(B)          -0.000201921932     0.000288800891     5.400552847772    11.009305360000
      Gh(F)          -0.000004162732     0.000014527991     6.813337847772    18.998403162730
      Gh(F)           1.147855837268     0.675795727991     4.929411847772    18.998403162730
      Gh(F)           0.011913897268    -1.331996472009     4.929613847772    18.998403162730
      Gh(F)          -1.159670162732     0.656088027991     4.929692847772    18.998403162730
         C           -3.668445426752     7.803766698073    -0.397581110893    12.000000000000
         C           -4.847602882078     7.131256359331    -0.399947685825    12.000000000000
         C           -4.894963461907     5.696344931522    -0.400520596923    12.000000000000
         C           -3.653744841505     4.980744868950    -0.392860155194    12.000000000000
         C           -2.409429284226     7.113995564665    -0.397386768632    12.000000000000
         C           -2.425481506836     5.681136478894    -0.404391657503    12.000000000000
         C           -1.194748179167     7.786158722300    -0.395914588091    12.000000000000
         C            0.037954866205     7.099436173748    -0.398085292395    12.000000000000
         C            0.030328424687     5.669504087695    -0.403568677311    12.000000000000
         C           -1.200988670637     4.969284875906    -0.394598943378    12.000000000000
         C            1.277953663083     7.772873971185    -0.396709443835    12.000000000000
         C            2.485353921992     7.087711413228    -0.398983931740    12.000000000000
         C            2.486124522185     5.654785338231    -0.405921680727    12.000000000000
         C            1.254078756912     4.956092641655    -0.394293739139    12.000000000000
         C            3.751710428674     7.763926678971    -0.398857080359    12.000000000000
         C            4.923561893453     7.078795304981    -0.400913561067    12.000000000000
         C            4.955603108594     5.643461991360    -0.401073973874    12.000000000000
         C            3.706797371473     4.941224736324    -0.395982413704    12.000000000000
         H           -3.658525300490     8.890841947126    -0.395896122642     1.007825032230
         H           -1.189217492488     8.874135615351    -0.391942711649     1.007825032230
         H            1.284290076155     8.860847963479    -0.392550619694     1.007825032230
         H            3.753537924068     8.851049806963    -0.397334556044     1.007825032230
         H            5.869954540475     7.613809362646    -0.401838928110     1.007825032230
         H           -5.788235870234     7.676316740925    -0.401507533181     1.007825032230
         C           -6.091978121428     4.993274541634    -0.402392837414    12.000000000000
         C           -6.128665643049     3.582594696789    -0.401191660386    12.000000000000
         C           -3.664583902777     3.564196707735    -0.404116755003    12.000000000000
         C           -4.894302367430     2.861095303891    -0.394947770018    12.000000000000
         C           -2.437339157630     2.847626185075    -0.392284976467    12.000000000000
         C           -1.209232020328     3.547901462969    -0.405964003258    12.000000000000
         C            1.247137409430     3.534695279420    -0.406772609664    12.000000000000
         C            0.015171876837     2.833126367296    -0.395088426439    12.000000000000
         C            2.467641009709     2.821304505246    -0.394988368316    12.000000000000
         C            3.702545311848     3.524674682415    -0.408476329158    12.000000000000
         C            6.144976223652     4.927586894122    -0.402307419086    12.000000000000
         C            6.166584196130     3.516599003933    -0.400140865649    12.000000000000
         C            4.924605795728     2.808422453345    -0.393602119412    12.000000000000
         H            7.089901346909     5.466902294214    -0.406069299935     1.007825032230
         H           -7.031045913833     5.542702480848    -0.406626052365     1.007825032230
         C           -7.339702203855     2.858426062570    -0.402818827827    12.000000000000
         C           -7.364886120791     1.470337899574    -0.401053289700    12.000000000000
         C           -4.903508771679     1.444441340151    -0.405769553892    12.000000000000
         C           -6.132261315343     0.739953885044    -0.393479509909    12.000000000000
         C           -3.676878963248     0.726711670664    -0.395141837492    12.000000000000
         C           -2.445660748797     1.429655661253    -0.405451547693    12.000000000000
         C           -1.223604844033     0.715339029625    -0.394022283162    12.000000000000
         C            0.007633706582     1.417397677228    -0.395556629444    12.000000000000
         C            1.231215645015     0.702131218578    -0.414383215100    12.000000000000
         C            2.460816937799     1.403306564116    -0.394878706209    12.000000000000
         C            3.684426091464     0.687212956203    -0.395707492487    12.000000000000
         C            4.918704738807     1.391749089180    -0.408109314122    12.000000000000
         C            7.369797915229     2.779496731175    -0.401901285442    12.000000000000
         C            7.380158503390     1.391232035846    -0.400354602596    12.000000000000
         C            6.139795376391     0.674133151191    -0.394026260785    12.000000000000
         H           -8.279194962078     3.407132569115    -0.407116379949     1.007825032230
         H            8.315109308748     3.318132624614    -0.406111861241     1.007825032230
         C           -8.591760100313     0.724847081035    -0.400712862082    12.000000000000
         C           -8.599028766435    -0.632625278238    -0.398589737499    12.000000000000
         C           -6.139817301850    -0.674122109163    -0.405579078834    12.000000000000
         C           -7.380188274869    -1.391251661591    -0.398163017293    12.000000000000
         C           -4.918688642988    -1.391740490039    -0.393238580685    12.000000000000
         C           -3.684442458416    -0.687222787745    -0.404270820749    12.000000000000
         C           -2.460821202979    -1.403330650834    -0.393727734560    12.000000000000
         C           -1.231166175052    -0.702159336890    -0.405848113352    12.000000000000
         C           -0.007573788119    -1.417404321420    -0.398391589048    12.000000000000
         C            1.223643553157    -0.715260849273    -0.388385967099    12.000000000000
         C            2.445666486600    -1.429628761016    -0.400135979859    12.000000000000
         C            3.676862540115    -0.726692903565    -0.404276564254    12.000000000000
         C            6.132244683688    -0.739964311859    -0.405804538467    12.000000000000
         C            4.903514982772    -1.444442992550    -0.391963463927    12.000000000000
         C            8.599010685959     0.632618394658    -0.400492486452    12.000000000000
         C            8.591741325369    -0.724836339203    -0.398756106191    12.000000000000
         C            7.364858601658    -1.470318137615    -0.398986282884    12.000000000000
         H           -9.528310134550     1.276861977183    -0.402182789046     1.007825032230
         H            9.541406811874     1.174587016435    -0.401544518713     1.007825032230
         C           -7.369842072500    -2.779530617943    -0.396354808871    12.000000000000
         C           -4.924603271782    -2.808422729350    -0.404086441307    12.000000000000
         C           -6.166626658399    -3.516637664835    -0.397784601148    12.000000000000
         C           -3.702514522437    -3.524667021130    -0.393762372122    12.000000000000
         C           -2.467651147846    -2.821311434813    -0.405807010478    12.000000000000
         C           -0.015137636839    -2.833127117409    -0.405525421969    12.000000000000
         C           -1.247126003958    -3.534717647572    -0.393961468561    12.000000000000
         C            1.209240906912    -3.547900150653    -0.391422438770    12.000000000000
         C            2.437331859423    -2.847627210185    -0.405562197081    12.000000000000
         C            4.894298181039    -2.861108440295    -0.404741457009    12.000000000000
         C            3.664611092309    -3.564205317541    -0.391862037069    12.000000000000
         C            6.128634852014    -3.582569529727    -0.398516195111    12.000000000000
         C            7.339668501964    -2.858398779380    -0.397000969030    12.000000000000
         H           -9.541453273991    -1.174548938674    -0.397220321326     1.007825032230
         H            9.528257705340    -1.276904545914    -0.397506298430     1.007825032230
         H           -8.315169206580    -3.318135325222    -0.392182580340     1.007825032230
         H            8.279150979760    -3.407126261903    -0.392661413047     1.007825032230
         C           -6.144998351434    -4.927632744793    -0.396458603088    12.000000000000
         C           -3.706787510729    -4.941247186127    -0.406279571176    12.000000000000
         C           -4.955594220733    -5.643479445504    -0.398312436531    12.000000000000
         C           -2.486125488958    -5.654771046419    -0.393339900132    12.000000000000
         C           -1.254062498212    -4.956107522011    -0.404515506117    12.000000000000
         C            1.201008411136    -4.969265860202    -0.403334381859    12.000000000000
         C           -0.030340837145    -5.669505775148    -0.395491182196    12.000000000000
         C            3.653745938597    -4.980729247424    -0.402576382111    12.000000000000
         C            2.425488533144    -5.681160107537    -0.393199451560    12.000000000000
         C            6.091961455079    -4.993243435396    -0.396221968438    12.000000000000
         C            4.894972281879    -5.696333892967    -0.397458164268    12.000000000000
         H           -7.089896550772    -5.466985314248    -0.392055841407     1.007825032230
         H            7.031051046468    -5.542644008342    -0.392642188674     1.007825032230
         C           -4.923549484930    -7.078806571687    -0.398867205436    12.000000000000
         C           -2.485346250970    -7.087713549939    -0.401377097872    12.000000000000
         C           -3.751690054511    -7.763932629646    -0.401182418947    12.000000000000
         C           -0.037953119720    -7.099450346479    -0.401161372724    12.000000000000
         C           -1.277960263133    -7.772889856676    -0.403146065486    12.000000000000
         C            2.409440157995    -7.114007484012    -0.400298171914    12.000000000000
         C            1.194745774421    -7.786170837572    -0.402450462795    12.000000000000
         C            4.847616889766    -7.131247582589    -0.397791357254    12.000000000000
         C            3.668467443144    -7.803773464953    -0.400139791618    12.000000000000
         H           -5.869944513148    -7.613816070051    -0.397323168571     1.007825032230
         H            5.788245462656    -7.676317661324    -0.396664237772     1.007825032230
         H           -3.753531102181    -8.851057041246    -0.403018333376     1.007825032230
         H           -1.284308568626    -8.860860864507    -0.407573449344     1.007825032230
         H            1.189217411964    -8.874146092599    -0.406543099485     1.007825032230
         H            3.658542452092    -8.890846106063    -0.401794333040     1.007825032230

  Charge       = 0
  Multiplicity = 1
  Basis Set: JUN-CC-PVDZ
    Blend: JUN-CC-PVDZ
  Basis Set: (JUN-CC-PVDZ AUX)
    Blend: JUN-CC-PVDZ-JKFIT

    Orbital Energies [Eh]
    ---------------------

    Doubly Occupied:

       1A    -11.264034     2A    -11.263719     3A    -11.263718
       4A    -11.263377     5A    -11.263375     6A    -11.263339
       7A    -11.263182     8A    -11.263156     9A    -11.263153
      10A    -11.262996    11A    -11.262836    12A    -11.262832
      13A    -11.262354    14A    -11.262352    15A    -11.262279
      16A    -11.262278    17A    -11.262227    18A    -11.262194
      19A    -11.262149    20A    -11.262111    21A    -11.262109
      22A    -11.261955    23A    -11.261951    24A    -11.261834
      25A    -11.261820    26A    -11.261806    27A    -11.261802
      28A    -11.261754    29A    -11.261746    30A    -11.261673
      31A    -11.261646    32A    -11.261643    33A    -11.261617
      34A    -11.261615    35A    -11.261594    36A    -11.261544
      37A    -11.261411    38A    -11.261400    39A    -11.261394
      40A    -11.261387    41A    -11.261382    42A    -11.261374
      43A    -11.261368    44A    -11.261353    45A    -11.261348
      46A    -11.261326    47A    -11.261322    48A    -11.261318
      49A    -11.261160    50A    -11.261128    51A    -11.261125
      52A    -11.261044    53A    -11.261043    54A    -11.260972
      55A    -11.260010    56A    -11.259997    57A    -11.259994
      58A    -11.259965    59A    -11.259963    60A    -11.259948
      61A    -11.259387    62A    -11.259361    63A    -11.259359
      64A    -11.259307    65A    -11.259304    66A    -11.259275
      67A    -11.259014    68A    -11.258997    69A    -11.258995
      70A    -11.258967    71A    -11.258965    72A    -11.258953
      73A    -11.254587    74A    -11.254586    75A    -11.254584
      76A    -11.254582    77A    -11.254576    78A    -11.254574
      79A    -11.253736    80A    -11.253734    81A    -11.253731
      82A    -11.253730    83A    -11.253727    84A    -11.253722
      85A    -11.253651    86A    -11.253650    87A    -11.253646
      88A    -11.253645    89A    -11.253643    90A    -11.253638
      91A    -11.253115    92A    -11.253113    93A    -11.253112
      94A    -11.253109    95A    -11.253104    96A    -11.253102
      97A     -1.254113    98A     -1.239130    99A     -1.239130
     100A     -1.220577   101A     -1.220572   102A     -1.215590
     103A     -1.201140   104A     -1.195709   105A     -1.188285
     106A     -1.188283   107A     -1.173860   108A     -1.173857
     109A     -1.155762   110A     -1.155759   111A     -1.152862
     112A     -1.144814   113A     -1.144811   114A     -1.128688
     115A     -1.114845   116A     -1.113255   117A     -1.112624
     118A     -1.112610   119A     -1.111705   120A     -1.088549
     121A     -1.088534   122A     -1.077051   123A     -1.077050
     124A     -1.067742   125A     -1.067712   126A     -1.065109
     127A     -1.046911   128A     -1.046903   129A     -1.040598
     130A     -1.038824   131A     -1.038823   132A     -1.025377
     133A     -1.021542   134A     -1.021492   135A     -1.007282
     136A     -1.006926   137A     -1.003901   138A     -1.000620
     139A     -1.000572   140A     -0.991160   141A     -0.971110
     142A     -0.971062   143A     -0.955982   144A     -0.955927
     145A     -0.905745   146A     -0.905703   147A     -0.905633
     148A     -0.905592   149A     -0.904498   150A     -0.892517
     151A     -0.892457   152A     -0.890502   153A     -0.890445
     154A     -0.889581   155A     -0.872312   156A     -0.869129
     157A     -0.851641   158A     -0.847999   159A     -0.847977
     160A     -0.845734   161A     -0.843142   162A     -0.834674
     163A     -0.834661   164A     -0.828205   165A     -0.828202
     166A     -0.784662   167A     -0.784651   168A     -0.783786
     169A     -0.783760   170A     -0.782408   171A     -0.782387
     172A     -0.782168   173A     -0.767100   174A     -0.760939
     175A     -0.750714   176A     -0.733578   177A     -0.727181
     178A     -0.727168   179A     -0.725203   180A     -0.724649
     181A     -0.724630   182A     -0.718639   183A     -0.713906
     184A     -0.713900   185A     -0.699683   186A     -0.699671
     187A     -0.686272   188A     -0.686053   189A     -0.686050
     190A     -0.682274   191A     -0.682264   192A     -0.678900
     193A     -0.653734   194A     -0.650983   195A     -0.650953
     196A     -0.649951   197A     -0.649935   198A     -0.649660
     199A     -0.641070   200A     -0.641043   201A     -0.640185
     202A     -0.639250   203A     -0.636146   204A     -0.636119
     205A     -0.629252   206A     -0.617689   207A     -0.615394
     208A     -0.615374   209A     -0.608904   210A     -0.608897
     211A     -0.599173   212A     -0.599135   213A     -0.598858
     214A     -0.598732   215A     -0.598706   216A     -0.598177
     217A     -0.595161   218A     -0.595148   219A     -0.594829
     220A     -0.594382   221A     -0.592074   222A     -0.592071
     223A     -0.587538   224A     -0.577870   225A     -0.577860
     226A     -0.575723   227A     -0.575720   228A     -0.573480
     229A     -0.569572   230A     -0.568277   231A     -0.568253
     232A     -0.566865   233A     -0.566855   234A     -0.560989
     235A     -0.558841   236A     -0.558822   237A     -0.558506
     238A     -0.554477   239A     -0.550620   240A     -0.547549
     241A     -0.544330   242A     -0.535032   243A     -0.534993
     244A     -0.533640   245A     -0.533617   246A     -0.528170
     247A     -0.528155   248A     -0.527936   249A     -0.517296
     250A     -0.517262   251A     -0.515416   252A     -0.515410
     253A     -0.509733   254A     -0.509717   255A     -0.498127
     256A     -0.496556   257A     -0.496530   258A     -0.493833
     259A     -0.493823   260A     -0.489468   261A     -0.481542
     262A     -0.477479   263A     -0.477476   264A     -0.474092
     265A     -0.469558   266A     -0.466636   267A     -0.466631
     268A     -0.458865   269A     -0.446837   270A     -0.446776
     271A     -0.441089   272A     -0.440816   273A     -0.440791
     274A     -0.434747   275A     -0.433964   276A     -0.407438
     277A     -0.407414   278A     -0.386474   279A     -0.386426
     280A     -0.385789   281A     -0.385788   282A     -0.383817
     283A     -0.354389   284A     -0.354372   285A     -0.350726
     286A     -0.338156   287A     -0.335655   288A     -0.335585
     289A     -0.332771   290A     -0.332765   291A     -0.307151
     292A     -0.302013   293A     -0.301951   294A     -0.300903
     295A     -0.286233   296A     -0.256519   297A     -0.253565
     298A     -0.253513   299A     -0.204325   300A     -0.204236

  @DF-RHF Final Energy: -3650.33790123194376

   => Energetics <=

    Nuclear Repulsion Energy =          15611.4211649754324753
    One-Electron Energy =              -36072.0867542768755811
    Two-Electron Energy =               16810.3276880694975262
    Total Energy =                      -3650.3379012319455796
 Dipole X            :         -0.0008794            0.0002304           -0.0006489
 Dipole Y            :          0.0011062           -0.0013052           -0.0001990
 Dipole Z            :        452.9373232         -452.9425901           -0.0052669
 Magnitude           :                                                    0.0053104

    SAPT Results
  --------------------------------------------------------------------------------------------------------
    Electrostatics                 10.05196706 [mEh]       6.30770456 [kcal/mol]      26.39143588 [kJ/mol]
      Elst10,r                     10.05196706 [mEh]       6.30770456 [kcal/mol]      26.39143588 [kJ/mol]

    Exchange                        0.00159441 [mEh]       0.00100051 [kcal/mol]       0.00418613 [kJ/mol]
      Exch10                        0.00159441 [mEh]       0.00100051 [kcal/mol]       0.00418613 [kJ/mol]
      Exch10(S^2)                   0.00159443 [mEh]       0.00100052 [kcal/mol]       0.00418619 [kJ/mol]

    Induction                      -5.45505470 [mEh]      -3.42309850 [kcal/mol]     -14.32224414 [kJ/mol]
      Ind20,r                      -5.49175492 [mEh]      -3.44612824 [kcal/mol]     -14.41860054 [kJ/mol]
      Exch-Ind20,r                  0.00155715 [mEh]       0.00097712 [kcal/mol]       0.00408829 [kJ/mol]
      delta HF,r (2)                0.03514307 [mEh]       0.02205261 [kcal/mol]       0.09226812 [kJ/mol]

    Dispersion                     -1.09817724 [mEh]      -0.68911662 [kcal/mol]      -2.88326394 [kJ/mol]
      Disp20                       -1.09999889 [mEh]      -0.69025972 [kcal/mol]      -2.88804669 [kJ/mol]
      Exch-Disp20                   0.00182165 [mEh]       0.00114310 [kcal/mol]       0.00478274 [kJ/mol]
      Disp20 (SS)                  -0.54999944 [mEh]      -0.34512986 [kcal/mol]      -1.44402334 [kJ/mol]
      Disp20 (OS)                  -0.54999944 [mEh]      -0.34512986 [kcal/mol]      -1.44402334 [kJ/mol]
      Exch-Disp20 (SS)              0.00139451 [mEh]       0.00087507 [kcal/mol]       0.00366129 [kJ/mol]
      Exch-Disp20 (OS)              0.00042714 [mEh]       0.00026803 [kcal/mol]       0.00112145 [kJ/mol]

  Total HF                          4.59850677 [mEh]       2.88560656 [kcal/mol]      12.07337787 [kJ/mol]
  Total SAPT0                       3.50032953 [mEh]       2.19648994 [kcal/mol]       9.19011392 [kJ/mol]

  Special recipe for scaled SAPT0 (see Manual):
    Electrostatics sSAPT0          10.05196706 [mEh]       6.30770456 [kcal/mol]      26.39143588 [kJ/mol]
    Exchange sSAPT0                 0.00159441 [mEh]       0.00100051 [kcal/mol]       0.00418613 [kJ/mol]
    Induction sSAPT0               -5.45505470 [mEh]      -3.42309850 [kcal/mol]     -14.32224414 [kJ/mol]
    Dispersion sSAPT0              -1.09817724 [mEh]      -0.68911662 [kcal/mol]      -2.88326394 [kJ/mol]
  Total sSAPT0                      3.50032953 [mEh]       2.19648994 [kcal/mol]       9.19011392 [kJ/mol]
  --------------------------------------------------------------------------------------------------------

*** Psi4 exiting successfully. Buy a developer a beer!
