                               Psi4 1.9 release

  ==> Input File <==

--------------------------------------------------------------------------
memory 80 GB # how much memory is available ! Depends on the nodes/cores !

molecule dimer {
# monomer A
-1 1    # Charge and multiplicity
B -1.977592e-04  2.742729e-04 -3.699966
F  1.123153e-16  1.430594e-17 -2.287181
F  1.147860e+00  6.757812e-01 -4.171107
F  1.191806e-02 -1.332011e+00 -4.170905
F -1.159666e+00  6.560735e-01 -4.170826
--
# monomer B
0 1     # Charge and multiplicity
C   -3.66844126402057      7.80375217008252      0.00190004133558
C   -4.84759871934653      7.13124183134024     -0.00046653359696
C   -4.89495929917518      5.69633040353158     -0.00103944469517
C   -3.65374067877320      4.98073034095895      0.00662099703436
C   -2.40942512149445      7.11398103667468      0.00209438359570
C   -2.42547734410473      5.68112195090346     -0.00491050527438
C   -1.19474401643570      7.78614419430947      0.00356656413763
C   0.03795902893699      7.09942164575698      0.00139585983271
C   0.03033258741920      5.66948955970466     -0.00408752508301
C   -1.20098450790502      4.96927034791531      0.00488220885047
C   1.27795782581485      7.77285944319479      0.00277170839332
C   2.48535808472416      7.08769688523756      0.00049722048857
C   2.48612868491717      5.65477081024076     -0.00644052849921
C   1.25408291964399      4.95607811366431      0.00518741308898
C   3.75171459140595      7.76391215098033      0.00062407186893
C   4.92356605618520      7.07878077698995     -0.00143240883900
C   4.95560727132542      5.64344746336949     -0.00159282164606
C   3.70680153420475      4.94121020833308      0.00349873852374
H   -3.65852113775815      8.89082741913536      0.00358502958574
H   -1.18921332975660      8.87412108735996      0.00753844057883
H   1.28429423888630      8.86083343548850      0.00693053253426
H   3.75354208679975      8.85103527897216      0.00214659618464
H   5.86995870320703      7.61379483465560     -0.00235777588134
H   -5.78823170750226      7.67630221293400     -0.00202638095293
C   -6.09197395869619      4.99326001364347     -0.00291168518608
C   -6.12866148031747      3.58258016879823     -0.00171050815740
C   -3.66457974004527      3.56418217974434     -0.00463560277484
C   -4.89429820469869      2.86108077590057      0.00453338221034
C   -2.43733499489796      2.84761165708481      0.00719617576166
C   -1.20922785759670      3.54788693497833     -0.00648285103018
C   1.24714157216223      3.53468075142962     -0.00729145743546
C   0.01517603956900      2.83311183930540      0.00439272578912
C   2.46764517244071      2.82128997725533      0.00449278391269
C   3.70254947457969      3.52466015442405     -0.00899517692985
C   6.14498038638375      4.92757236613191     -0.00282626685777
C   6.16658835886151      3.51658447594213     -0.00065971342101
C   4.92460995845939      2.80840792535402      0.00587903281610
H   7.08990550964105      5.46688776622306     -0.00658814770723
H   -7.03104175110130      5.54268795285765     -0.00714490013730
C   -7.33969804112295      2.85841153457957     -0.00333767559888
C   -7.36488195805880      1.47032337158330     -0.00157213747140
C   -4.90350460894690      1.44442681216000     -0.00628840166334
C   -6.13225715261081      0.73993935705394      0.00600164231964
C   -3.67687480051673      0.72669714267312      0.00433931473643
C   -2.44565658606518      1.42964113326212     -0.00597039546461
C   -1.22360068130162      0.71532450163492      0.00545886906656
C   0.00763786931376      1.41738314923765      0.00392452278437
C   1.23121980774686      0.70211669058719     -0.01490206287210
C   2.46082110053113      1.40329203612573      0.00460244601878
C   3.68443025419614      0.68719842821222      0.00377365974158
C   4.91870890153864      1.39173456118907     -0.00862816189375
C   7.36980207796101      2.77948220318441     -0.00242013321349
C   7.38016266612146      1.39121750785509     -0.00087345036788
C   6.13979953912259      0.67411862320065      0.00545489144369
H   -8.27919079934664      3.40711804112415     -0.00763522772059
H   8.31511347147953      3.31811809662368     -0.00663070901292
C   -8.59175593758115      0.72483255304480     -0.00123170985383
C   -8.59902460370342     -0.63263980622873      0.00089141472904
C   -6.13981313911873     -0.67413663715361     -0.00609792660607
C   -7.38018411213749     -1.39126618958160      0.00131813493501
C   -4.91868448025621     -1.39175501803000      0.00624257154343
C   -3.68443829568458     -0.68723731573599     -0.00478966852105
C   -2.46081704024768     -1.40334517882457      0.00575341766833
C   -1.23116201232071     -0.70217386488055     -0.00636696112346
C   -0.00756962538737     -1.41741884941102      0.00108956317991
C   1.22364771588843     -0.71527537726392      0.01109518512883
C   2.44567064933149     -1.42964328900682     -0.00065482763106
C   3.67686670284649     -0.72670743155550     -0.00479541202602
C   6.13224884641929     -0.73997883984993     -0.00632338623858
C   4.90351914550401     -1.44445752054090      0.00751768830159
C   8.59901484869081      0.63260386666793     -0.00101133422380
C   8.59174548810050     -0.72485086719319      0.00072504603735
C   7.36486276438985     -1.47033266560598      0.00049486934466
H   -9.52830597181814      1.27684744919284     -0.00270163681798
H   9.54141097460619      1.17457248844457     -0.00206336648518
C   -7.36983790976868     -2.77954514593389      0.00312634335708
C   -4.92459910905015     -2.80843725734101     -0.00460528907921
C   -6.16662249566744     -3.51665219282533      0.00169655107992
C   -3.70251035970491     -3.52468154912026      0.00571878010666
C   -2.46764698511392     -2.82132596280400     -0.00632585824990
C   -0.01513347410770     -2.83314164539971     -0.00604426974092
C   -1.24712184122656     -3.53473217556300      0.00551968366725
C   1.20924506964357     -3.54791467864352      0.00805871345849
C   2.43733602215464     -2.84764173817541     -0.00608104485234
C   4.89430234377080     -2.86112296828604     -0.00526030478103
C   3.66461525504104     -3.56421984553201      0.00761911515957
C   6.12863901474565     -3.58258405771778      0.00096495711699
C   7.33967266469532     -2.85841330737039      0.00248018319869
H   -9.54144911125902     -1.17456346666430      0.00226083090216
H   9.52826186807155     -1.27691907390448      0.00197485379837
H   -8.31516504384864     -3.31814985321231      0.00729857188773
H   8.27915514249207     -3.40714078989363      0.00681973918158
C   -6.14499418870218     -4.92764727278338      0.00302254913999
C   -3.70678334799751     -4.94126171411716     -0.00679841894792
C   -4.95559005800169     -5.64349397349412      0.00116871569699
C   -2.48612132622665     -5.65478557440947      0.00614125209662
C   -1.25405833548005     -4.95612205000132     -0.00503435388927
C   1.20101257386816     -4.96928038819302     -0.00385322963129
C   -0.03033667441341     -5.66952030313900      0.00398997003238
C   3.65375010132847     -4.98074377541453     -0.00309522988330
C   2.42549269587528     -5.68117463552727      0.00628170066869
C   6.09196561781097     -4.99325796338655      0.00325918379042
C   4.89497644461045     -5.69634842095790      0.00202298796027
H   -7.08989238804069     -5.46699984223871      0.00742531082125
H   7.03105520920009     -5.54265853633254      0.00683896355417
C   -4.92354532219813     -7.07882109967734      0.00061394679214
C   -2.48534208823777     -7.08772807792913     -0.00189594564379
C   -3.75168589177895     -7.76394715763627     -0.00170126671874
C   -0.03794895698805     -7.09946487446944     -0.00168022049625
C   -1.27795610040136     -7.77290438466689     -0.00366491325785
C   2.40944432072629     -7.11402201200282     -0.00081701968533
C   1.19474993715296     -7.78618536556242     -0.00296931056689
C   4.84762105249800     -7.13126211057943      0.00168979497423
C   3.66847160587561     -7.80378799294376     -0.00065863938960
H   -5.86994035041618     -7.61383059804164      0.00215798365757
H   5.78824962538815     -7.67633218931421      0.00281691445618
H   -3.75352693944918     -8.85107156923607     -0.00353718114765
H   -1.28430440589466     -8.86087539249706     -0.00809229711623
H   1.18922157469537     -8.87416062058945     -0.00706194725726
H   3.65854661482387     -8.89086063405326     -0.00231318081200

    units angstrom      # Angstroms are the default
    no_reorient         # Geometry fixed, default
    symmetry c1         # C1 symmetry, default
}

set {
    scf_type DF         # Density fitting, faster than exact integrals
    freeze_core True    # Freeze core electrons
    basis jun-cc-pVDZ   # Jun-cc-pVDZ basis set, recommended for sSAPT0 in https://doi.org/10.1063/1.4867135
}

energy('ssapt0')        # Compute sSAPT0 energy, includes also SAPT0
--------------------------------------------------------------------------

  //              Dimer HF             //
    Molecular point group: c1
  Charge       = -1
  Multiplicity = 1
  Basis Set: JUN-CC-PVDZ
    Blend: JUN-CC-PVDZ
  Basis Set: (JUN-CC-PVDZ AUX)
    Blend: JUN-CC-PVDZ-JKFIT
  @DF-RHF Final Energy: -4073.10275101638490
    Total Energy =                      -4073.1027510163839906
 Dipole X            :          0.0005419           -0.0000548            0.0004871
 Dipole Y            :          0.0007688           -0.0002464            0.0005225
 Dipole Z            :        -17.0741710           22.0188172            4.9446462
 Magnitude           :                                                    4.9446462
  //            Monomer A HF           //
    Molecular point group: c1
  Multiplicity = 1
  Basis Set: JUN-CC-PVDZ
    Blend: JUN-CC-PVDZ
  Basis Set: (JUN-CC-PVDZ AUX)
    Blend: JUN-CC-PVDZ-JKFIT
  @DF-RHF Final Energy:  -422.77362823232164
    Total Energy =                       -422.7736282323216415
  //            Monomer B HF           //
    Molecular point group: c1

    Geometry (in Angstrom), charge = 0, multiplicity = 1:

       Center              X                  Y                   Z               Mass
    ------------   -----------------  -----------------  -----------------  -----------------
      Gh(B)          -0.000201921932     0.000288800891    -3.445129709254    11.009305360000
      Gh(F)          -0.000004162732     0.000014527991    -2.032344709254    18.998403162730
      Gh(F)           1.147855837268     0.675795727991    -3.916270709254    18.998403162730
      Gh(F)           0.011913897268    -1.331996472009    -3.916068709254    18.998403162730
      Gh(F)          -1.159670162732     0.656088027991    -3.915989709254    18.998403162730
         C           -3.668445426752     7.803766698073     0.256736332082    12.000000000000
         C           -4.847602882078     7.131256359331     0.254369757149    12.000000000000
         C           -4.894963461907     5.696344931522     0.253796846051    12.000000000000
         C           -3.653744841505     4.980744868950     0.261457287780    12.000000000000
         C           -2.409429284226     7.113995564665     0.256930674342    12.000000000000
         C           -2.425481506836     5.681136478894     0.249925785472    12.000000000000
         C           -1.194748179167     7.786158722300     0.258402854884    12.000000000000
         C            0.037954866205     7.099436173748     0.256232150579    12.000000000000
         C            0.030328424687     5.669504087695     0.250748765663    12.000000000000
         C           -1.200988670637     4.969284875906     0.259718499596    12.000000000000
         C            1.277953663083     7.772873971185     0.257607999139    12.000000000000
         C            2.485353921992     7.087711413228     0.255333511235    12.000000000000
         C            2.486124522185     5.654785338231     0.248395762247    12.000000000000
         C            1.254078756912     4.956092641655     0.260023703835    12.000000000000
         C            3.751710428674     7.763926678971     0.255460362615    12.000000000000
         C            4.923561893453     7.078795304981     0.253403881907    12.000000000000
         C            4.955603108594     5.643461991360     0.253243469100    12.000000000000
         C            3.706797371473     4.941224736324     0.258335029270    12.000000000000
         H           -3.658525300490     8.890841947126     0.258421320332     1.007825032230
         H           -1.189217492488     8.874135615351     0.262374731325     1.007825032230
         H            1.284290076155     8.860847963479     0.261766823280     1.007825032230
         H            3.753537924068     8.851049806963     0.256982886931     1.007825032230
         H            5.869954540475     7.613809362646     0.252478514865     1.007825032230
         H           -5.788235870234     7.676316740925     0.252809909793     1.007825032230
         C           -6.091978121428     4.993274541634     0.251924605560    12.000000000000
         C           -6.128665643049     3.582594696789     0.253125782589    12.000000000000
         C           -3.664583902777     3.564196707735     0.250200687971    12.000000000000
         C           -4.894302367430     2.861095303891     0.259369672956    12.000000000000
         C           -2.437339157630     2.847626185075     0.262032466508    12.000000000000
         C           -1.209232020328     3.547901462969     0.248353439716    12.000000000000
         C            1.247137409430     3.534695279420     0.247544833311    12.000000000000
         C            0.015171876837     2.833126367296     0.259229016535    12.000000000000
         C            2.467641009709     2.821304505246     0.259329074659    12.000000000000
         C            3.702545311848     3.524674682415     0.245841113816    12.000000000000
         C            6.144976223652     4.927586894122     0.252010023888    12.000000000000
         C            6.166584196130     3.516599003933     0.254176577325    12.000000000000
         C            4.924605795728     2.808422453345     0.260715323562    12.000000000000
         H            7.089901346909     5.466902294214     0.248248143039     1.007825032230
         H           -7.031045913833     5.542702480848     0.247691390609     1.007825032230
         C           -7.339702203855     2.858426062570     0.251498615147    12.000000000000
         C           -7.364886120791     1.470337899574     0.253264153275    12.000000000000
         C           -4.903508771679     1.444441340151     0.248547889083    12.000000000000
         C           -6.132261315343     0.739953885044     0.260837933066    12.000000000000
         C           -3.676878963248     0.726711670664     0.259175605482    12.000000000000
         C           -2.445660748797     1.429655661253     0.248865895281    12.000000000000
         C           -1.223604844033     0.715339029625     0.260295159813    12.000000000000
         C            0.007633706582     1.417397677228     0.258760813530    12.000000000000
         C            1.231215645015     0.702131218578     0.239934227874    12.000000000000
         C            2.460816937799     1.403306564116     0.259438736765    12.000000000000
         C            3.684426091464     0.687212956203     0.258609950488    12.000000000000
         C            4.918704738807     1.391749089180     0.246208128852    12.000000000000
         C            7.369797915229     2.779496731175     0.252416157532    12.000000000000
         C            7.380158503390     1.391232035846     0.253962840378    12.000000000000
         C            6.139795376391     0.674133151191     0.260291182190    12.000000000000
         H           -8.279194962078     3.407132569115     0.247201063025     1.007825032230
         H            8.315109308748     3.318132624614     0.248205581733     1.007825032230
         C           -8.591760100313     0.724847081035     0.253604580892    12.000000000000
         C           -8.599028766435    -0.632625278238     0.255727705475    12.000000000000
         C           -6.139817301850    -0.674122109163     0.248738364140    12.000000000000
         C           -7.380188274869    -1.391251661591     0.256154425681    12.000000000000
         C           -4.918688642988    -1.391740490039     0.261078862289    12.000000000000
         C           -3.684442458416    -0.687222787745     0.250046622225    12.000000000000
         C           -2.460821202979    -1.403330650834     0.260589708414    12.000000000000
         C           -1.231166175052    -0.702159336890     0.248469329623    12.000000000000
         C           -0.007573788119    -1.417404321420     0.255925853926    12.000000000000
         C            1.223643553157    -0.715260849273     0.265931475875    12.000000000000
         C            2.445666486600    -1.429628761016     0.254181463115    12.000000000000
         C            3.676862540115    -0.726692903565     0.250040878720    12.000000000000
         C            6.132244683688    -0.739964311859     0.248512904507    12.000000000000
         C            4.903514982772    -1.444442992550     0.262353979048    12.000000000000
         C            8.599010685959     0.632618394658     0.253824956522    12.000000000000
         C            8.591741325369    -0.724836339203     0.255561336783    12.000000000000
         C            7.364858601658    -1.470318137615     0.255331160091    12.000000000000
         H           -9.528310134550     1.276861977183     0.252134653928     1.007825032230
         H            9.541406811874     1.174587016435     0.252772924261     1.007825032230
         C           -7.369842072500    -2.779530617943     0.257962634103    12.000000000000
         C           -4.924603271782    -2.808422729350     0.250231001667    12.000000000000
         C           -6.166626658399    -3.516637664835     0.256532841826    12.000000000000
         C           -3.702514522437    -3.524667021130     0.260555070853    12.000000000000
         C           -2.467651147846    -2.821311434813     0.248510432496    12.000000000000
         C           -0.015137636839    -2.833127117409     0.248792021005    12.000000000000
         C           -1.247126003958    -3.534717647572     0.260355974413    12.000000000000
         C            1.209240906912    -3.547900150653     0.262895004204    12.000000000000
         C            2.437331859423    -2.847627210185     0.248755245894    12.000000000000
         C            4.894298181039    -2.861108440295     0.249575985965    12.000000000000
         C            3.664611092309    -3.564205317541     0.262455405906    12.000000000000
         C            6.128634852014    -3.582569529727     0.255801247863    12.000000000000
         C            7.339668501964    -2.858398779380     0.257316473945    12.000000000000
         H           -9.541453273991    -1.174548938674     0.257097121648     1.007825032230
         H            9.528257705340    -1.276904545914     0.256811144544     1.007825032230
         H           -8.315169206580    -3.318135325222     0.262134862634     1.007825032230
         H            8.279150979760    -3.407126261903     0.261656029928     1.007825032230
         C           -6.144998351434    -4.927632744793     0.257858839886    12.000000000000
         C           -3.706787510729    -4.941247186127     0.248037871798    12.000000000000
         C           -4.955594220733    -5.643479445504     0.256005006443    12.000000000000
         C           -2.486125488958    -5.654771046419     0.260977542843    12.000000000000
         C           -1.254062498212    -4.956107522011     0.249801936857    12.000000000000
         C            1.201008411136    -4.969265860202     0.250983061115    12.000000000000
         C           -0.030340837145    -5.669505775148     0.258826260778    12.000000000000
         C            3.653745938597    -4.980729247424     0.251741060863    12.000000000000
         C            2.425488533144    -5.681160107537     0.261117991415    12.000000000000
         C            6.091961455079    -4.993243435396     0.258095474536    12.000000000000
         C            4.894972281879    -5.696333892967     0.256859278706    12.000000000000
         H           -7.089896550772    -5.466985314248     0.262261601567     1.007825032230
         H            7.031051046468    -5.542644008342     0.261675254300     1.007825032230
         C           -4.923549484930    -7.078806571687     0.255450237538    12.000000000000
         C           -2.485346250970    -7.087713549939     0.252940345102    12.000000000000
         C           -3.751690054511    -7.763932629646     0.253135024027    12.000000000000
         C           -0.037953119720    -7.099450346479     0.253156070250    12.000000000000
         C           -1.277960263133    -7.772889856676     0.251171377488    12.000000000000
         C            2.409440157995    -7.114007484012     0.254019271061    12.000000000000
         C            1.194745774421    -7.786170837572     0.251866980179    12.000000000000
         C            4.847616889766    -7.131247582589     0.256526085720    12.000000000000
         C            3.668467443144    -7.803773464953     0.254177651356    12.000000000000
         H           -5.869944513148    -7.613816070051     0.256994274404     1.007825032230
         H            5.788245462656    -7.676317661324     0.257653205202     1.007825032230
         H           -3.753531102181    -8.851057041246     0.251299109598     1.007825032230
         H           -1.284308568626    -8.860860864507     0.246743993630     1.007825032230
         H            1.189217411964    -8.874146092599     0.247774343489     1.007825032230
         H            3.658542452092    -8.890846106063     0.252523109934     1.007825032230

  Charge       = 0
  Multiplicity = 1
  Basis Set: JUN-CC-PVDZ
    Blend: JUN-CC-PVDZ
  Basis Set: (JUN-CC-PVDZ AUX)
    Blend: JUN-CC-PVDZ-JKFIT

    Orbital Energies [Eh]
    ---------------------

    Doubly Occupied:

       1A    -11.264108     2A    -11.263742     3A    -11.263737
       4A    -11.263313     5A    -11.263310     6A    -11.263276
       7A    -11.263132     8A    -11.263129     9A    -11.263120
      10A    -11.262893    11A    -11.262770    12A    -11.262765
      13A    -11.262275    14A    -11.262270    15A    -11.262254
      16A    -11.262253    17A    -11.262138    18A    -11.262136
      19A    -11.262083    20A    -11.262046    21A    -11.262044
      22A    -11.261938    23A    -11.261934    24A    -11.261775
      25A    -11.261772    26A    -11.261749    27A    -11.261741
      28A    -11.261706    29A    -11.261698    30A    -11.261605
      31A    -11.261585    32A    -11.261580    33A    -11.261576
      34A    -11.261549    35A    -11.261547    36A    -11.261525
      37A    -11.261356    38A    -11.261348    39A    -11.261342
      40A    -11.261336    41A    -11.261331    42A    -11.261327
      43A    -11.261311    44A    -11.261294    45A    -11.261289
      46A    -11.261267    47A    -11.261264    48A    -11.261259
      49A    -11.261076    50A    -11.261041    51A    -11.261038
      52A    -11.260958    53A    -11.260957    54A    -11.260898
      55A    -11.259944    56A    -11.259931    57A    -11.259928
      58A    -11.259900    59A    -11.259897    60A    -11.259881
      61A    -11.259316    62A    -11.259291    63A    -11.259289
      64A    -11.259236    65A    -11.259234    66A    -11.259204
      67A    -11.258947    68A    -11.258930    69A    -11.258927
      70A    -11.258899    71A    -11.258897    72A    -11.258885
      73A    -11.254549    74A    -11.254548    75A    -11.254543
      76A    -11.254542    77A    -11.254541    78A    -11.254541
      79A    -11.253679    80A    -11.253678    81A    -11.253675
      82A    -11.253673    83A    -11.253672    84A    -11.253669
      85A    -11.253594    86A    -11.253593    87A    -11.253591
      88A    -11.253589    89A    -11.253587    90A    -11.253584
      91A    -11.253077    92A    -11.253076    93A    -11.253071
      94A    -11.253069    95A    -11.253069    96A    -11.253069
      97A     -1.253967    98A     -1.239022    99A     -1.239022
     100A     -1.220492   101A     -1.220487   102A     -1.215467
     103A     -1.201070   104A     -1.195633   105A     -1.188158
     106A     -1.188156   107A     -1.173792   108A     -1.173789
     109A     -1.155650   110A     -1.155646   111A     -1.152748
     112A     -1.144750   113A     -1.144747   114A     -1.128594
     115A     -1.114736   116A     -1.113191   117A     -1.112503
     118A     -1.112488   119A     -1.111646   120A     -1.088453
     121A     -1.088438   122A     -1.076988   123A     -1.076987
     124A     -1.067636   125A     -1.067606   126A     -1.065002
     127A     -1.046828   128A     -1.046821   129A     -1.040506
     130A     -1.038761   131A     -1.038760   132A     -1.025258
     133A     -1.021410   134A     -1.021360   135A     -1.007208
     136A     -1.006839   137A     -1.003819   138A     -1.000509
     139A     -1.000461   140A     -0.991100   141A     -0.971015
     142A     -0.970967   143A     -0.955907   144A     -0.955852
     145A     -0.905611   146A     -0.905575   147A     -0.905569
     148A     -0.905535   149A     -0.904365   150A     -0.892395
     151A     -0.892336   152A     -0.890384   153A     -0.890327
     154A     -0.889479   155A     -0.872244   156A     -0.869080
     157A     -0.851564   158A     -0.847894   159A     -0.847872
     160A     -0.845616   161A     -0.843043   162A     -0.834591
     163A     -0.834578   164A     -0.828141   165A     -0.828137
     166A     -0.784573   167A     -0.784562   168A     -0.783682
     169A     -0.783655   170A     -0.782314   171A     -0.782293
     172A     -0.782063   173A     -0.767019   174A     -0.760823
     175A     -0.750588   176A     -0.733508   177A     -0.727097
     178A     -0.727084   179A     -0.725107   180A     -0.724567
     181A     -0.724549   182A     -0.718503   183A     -0.713797
     184A     -0.713791   185A     -0.699598   186A     -0.699586
     187A     -0.686150   188A     -0.685982   189A     -0.685979
     190A     -0.682199   191A     -0.682189   192A     -0.678787
     193A     -0.653643   194A     -0.650895   195A     -0.650865
     196A     -0.649833   197A     -0.649817   198A     -0.649592
     199A     -0.640951   200A     -0.640924   201A     -0.640112
     202A     -0.639187   203A     -0.636038   204A     -0.636011
     205A     -0.629167   206A     -0.617761   207A     -0.615327
     208A     -0.615306   209A     -0.608826   210A     -0.608819
     211A     -0.599124   212A     -0.599089   213A     -0.598768
     214A     -0.598631   215A     -0.598607   216A     -0.598048
     217A     -0.595090   218A     -0.595077   219A     -0.594742
     220A     -0.594249   221A     -0.591976   222A     -0.591973
     223A     -0.587405   224A     -0.577816   225A     -0.577806
     226A     -0.575667   227A     -0.575664   228A     -0.573404
     229A     -0.569607   230A     -0.568163   231A     -0.568140
     232A     -0.566775   233A     -0.566764   234A     -0.560935
     235A     -0.558736   236A     -0.558717   237A     -0.558447
     238A     -0.554388   239A     -0.550564   240A     -0.547495
     241A     -0.544275   242A     -0.535013   243A     -0.534975
     244A     -0.533554   245A     -0.533533   246A     -0.528099
     247A     -0.528084   248A     -0.527809   249A     -0.517179
     250A     -0.517145   251A     -0.515363   252A     -0.515358
     253A     -0.509663   254A     -0.509647   255A     -0.498049
     256A     -0.496469   257A     -0.496443   258A     -0.493769
     259A     -0.493758   260A     -0.489454   261A     -0.481472
     262A     -0.477430   263A     -0.477427   264A     -0.474015
     265A     -0.469461   266A     -0.466546   267A     -0.466541
     268A     -0.458797   269A     -0.446703   270A     -0.446642
     271A     -0.441034   272A     -0.440786   273A     -0.440762
     274A     -0.434699   275A     -0.433917   276A     -0.407375
     277A     -0.407351   278A     -0.386393   279A     -0.386345
     280A     -0.385746   281A     -0.385745   282A     -0.383748
     283A     -0.354340   284A     -0.354323   285A     -0.350655
     286A     -0.338057   287A     -0.335605   288A     -0.335535
     289A     -0.332722   290A     -0.332716   291A     -0.307057
     292A     -0.301919   293A     -0.301856   294A     -0.300861
     295A     -0.286172   296A     -0.256481   297A     -0.253488
     298A     -0.253435   299A     -0.204265   300A     -0.204176

  @DF-RHF Final Energy: -3650.33957450780554

   => Energetics <=

    Nuclear Repulsion Energy =          15611.4211649754324753
    One-Electron Energy =              -36072.1345271596728708
    Two-Electron Energy =               16810.3737876764353132
    Total Energy =                      -3650.3395745078050822
 Dipole X            :         -0.0000464            0.0002304            0.0001841
 Dipole Y            :          0.0013285           -0.0013052            0.0000233
 Dipole Z            :       -288.9425802          288.9458697            0.0032896
 Magnitude           :                                                    0.0032948

    SAPT Results
  --------------------------------------------------------------------------------------------------------
    Electrostatics                 -1.88766517 [mEh]      -1.18452777 [kcal/mol]      -4.95606421 [kJ/mol]
      Elst10,r                     -1.88766517 [mEh]      -1.18452777 [kcal/mol]      -4.95606421 [kJ/mol]

    Exchange                       33.65344790 [mEh]      21.11785738 [kcal/mol]      88.35711530 [kJ/mol]
      Exch10                       33.65344790 [mEh]      21.11785738 [kcal/mol]      88.35711530 [kJ/mol]
      Exch10(S^2)                  33.53332203 [mEh]      21.04247726 [kcal/mol]      88.04172485 [kJ/mol]

    Induction                     -21.31405900 [mEh]     -13.37477394 [kcal/mol]     -55.96005418 [kJ/mol]
      Ind20,r                     -30.07934976 [mEh]     -18.87507694 [kcal/mol]     -78.97332190 [kJ/mol]
      Exch-Ind20,r                 10.86795119 [mEh]       6.81974233 [kcal/mol]      28.53380193 [kJ/mol]
      delta HF,r (2)               -2.10266043 [mEh]      -1.31943934 [kcal/mol]      -5.52053420 [kJ/mol]

    Dispersion                    -13.48870549 [mEh]      -8.46429048 [kcal/mol]     -35.41459138 [kJ/mol]
      Disp20                      -16.80663811 [mEh]     -10.54632464 [kcal/mol]     -44.12582228 [kJ/mol]
      Exch-Disp20                   3.31793262 [mEh]       2.08203415 [kcal/mol]       8.71123089 [kJ/mol]
      Disp20 (SS)                  -8.40331905 [mEh]      -5.27316232 [kcal/mol]     -22.06291114 [kJ/mol]
      Disp20 (OS)                  -8.40331905 [mEh]      -5.27316232 [kcal/mol]     -22.06291114 [kJ/mol]
      Exch-Disp20 (SS)              1.83945424 [mEh]       1.15427496 [kcal/mol]       4.82948644 [kJ/mol]
      Exch-Disp20 (OS)              1.47847838 [mEh]       0.92775919 [kcal/mol]       3.88174445 [kJ/mol]

  Total HF                         10.45172374 [mEh]       6.55855567 [kcal/mol]      27.44099690 [kJ/mol]
  Total SAPT0                      -3.03698175 [mEh]      -1.90573482 [kcal/mol]      -7.97359448 [kJ/mol]

  Special recipe for scaled SAPT0 (see Manual):
    Electrostatics sSAPT0          -1.88766517 [mEh]      -1.18452777 [kcal/mol]      -4.95606421 [kJ/mol]
    Exchange sSAPT0                33.65344790 [mEh]      21.11785738 [kcal/mol]      88.35711530 [kJ/mol]
    Induction sSAPT0              -21.19684384 [mEh]     -13.30122032 [kcal/mol]     -55.65230583 [kJ/mol]
    Dispersion sSAPT0             -13.45292027 [mEh]      -8.44183492 [kcal/mol]     -35.32063731 [kJ/mol]
  Total sSAPT0                     -2.88398137 [mEh]      -1.80972563 [kcal/mol]      -7.57189206 [kJ/mol]
  --------------------------------------------------------------------------------------------------------

*** Psi4 exiting successfully. Buy a developer a beer!
