                               Psi4 1.9 release

  ==> Input File <==

--------------------------------------------------------------------------
memory 32 GB # how much memory is available ! Depends on the nodes/cores !

molecule dimer {
# monomer A
+1 1    # Charge and multiplicity
C  0.680067 -1.215929 4.608042
C -0.680504 -1.215545 4.606014
N -1.085635  0.102779 4.605016
C  0.000108  0.884180 4.601740
C -2.477365  0.570758 4.555610
N  1.085222  0.102779 4.605016
H  1.385146 -2.033368 4.615870
H -1.385302 -2.033214 4.606204
H -0.000009  1.965269 4.599993
C  2.478117  0.567877 4.621908
H  2.490592  1.658130 4.594563
H  2.967028  0.220701 5.535354
H  3.001428  0.176405 3.746425
H -2.857359  0.490799 3.533539
H -3.082679 -0.042306 5.225694
H -2.518128  1.610706 4.882594
--
# monomer B
0 1     # Charge and multiplicity
C   1.22531237526482      0.70753866091955      0.00613762728373
C   1.22532433589282     -0.70753852257020     -0.00619318228664
C   -0.00000567409046      1.41496628609039     -0.00672680580738
C   2.45644923379077      1.41832825917820      0.00902448468363
C   0.00001130712078     -1.41497612663474      0.00347275151708
C   -1.22530046906674      0.70754574598412      0.00838914760619
C   2.45643823516184     -1.41832293188077     -0.00843833914343
C   -0.00000085313587      2.83680140328112     -0.00913035594137
C   3.68182717731192      0.70931832800114     -0.00808954934571
C   2.45512052870677      2.83422403348893     -0.00819210630633
C   3.68182158506039     -0.70933346742900      0.00798293467272
C   -1.22531311884624     -0.70752714354401     -0.00512042085974
C   1.22670006104402      3.54346985599427      0.00816696660346
C   0.00000526469929     -2.83678176723568      0.00832091913869
C   -2.45643555300670      1.41831729028492      0.00842454345199
C   2.45512389762097     -2.83422965658853      0.00783102630520
C   -1.22671388474763      3.54346943575023      0.00827029982280
C   4.91451777504333      1.42717324448953     -0.00160886631602
C   3.69315067131765      3.54279566454522     -0.00155906667985
C   -2.45643712022637     -1.41831290883911     -0.00846337726810
C   1.22670532178455     -3.54347386990643     -0.00780316414624
C   -2.45512491866593      2.83421703463423     -0.00818572995999
C   4.91452486062398     -1.42718653794377      0.00136387641845
C   1.22142509354026      4.97013443726031      0.00150231067809
C   4.89300870916237      2.82518837202648     -0.00039219795739
C   -1.22669652864725     -3.54347062507680     -0.00753595973677
C   -3.68181849668397      0.70932533873199     -0.00807686886569
C   3.69314758099218     -3.54280096939050      0.00148176697923
C   -1.22143177215231      4.97012866986289      0.00168580605083
C   6.13477145276790      0.68054831910577     -0.00083909176631
C   3.65678936045204      4.97295361556775     -0.00065042889723
C   -2.45512642789169     -2.83421472106065      0.00758666850712
C   -3.68181869921921     -0.70932533146830      0.00810055625144
C   4.89301309775526     -2.82519973363176      0.00021895393805
C   -0.00000059327114      5.65044773803267      0.00045449734393
C   6.13477559217374     -0.68055448207492      0.00042622874941
C   2.47813196269732      5.65357712333155      0.00063835075260
C   1.22142288457925     -4.97012668293268     -0.00129718634452
C   -3.69316190412301      3.54279732619245     -0.00139355922051
C   -1.22142804110313     -4.97011793159564     -0.00140994817719
C   -4.91452132810043      1.42717581899491     -0.00153192130862
C   3.65678749952045     -4.97295485423912      0.00080007163680
C   -2.47813805026426      5.65357479452875      0.00092287576113
C   -3.69314125872231     -3.54278984697859      0.00136564082345
C   -4.91451200321153     -1.42718062802730      0.00139857359209
C   -0.00000552908399     -5.65043791501335      0.00005899322272
C   -4.89302000425900      2.82518897091939     -0.00040227981744
C   2.47812647313991     -5.65357317188818     -0.00029052915548
C   -3.65679823041642      4.97295655404175     -0.00047374852278
C   -4.89299899901461     -2.82519139505969      0.00006491824035
C   -2.47812801824129     -5.65356579800621     -0.00056571680280
C   -6.13477002348955      0.68054913825639     -0.00086464346868
C   -3.65678835334731     -4.97294365097028      0.00058578382008
C   -6.13476456307132     -0.68055354348201      0.00040575295444
H   5.83528897565761      3.36927626695423      0.00396712770529
H   7.07385965258860      1.22821762089947     -0.00037744837300
H   4.60066374401555      5.51238117445323     -0.00014522814529
H   5.83528386714679     -3.36930568472863     -0.00423551337640
H   -0.00001167146422      6.73853104613662     -0.00389474766392
H   7.07386165167227     -1.22822657074368     -0.00008250934481
H   2.47331421164041      6.74068466339473      0.00017162982210
H   4.60066897122302     -5.51237575717576      0.00039007446835
H   -2.47331820069565      6.74068209160650      0.00047297644710
H   -0.00000978838621     -6.73852780445195      0.00458867820736
H   -5.83530143450167      3.36927132229595      0.00410314985360
H   2.47330840367253     -6.74068500242887      0.00027980126949
H   -4.60067436136587      5.51237839860371      0.00002010017831
H   -5.83527902699321     -3.36928859177951     -0.00451481925734
H   -2.47329986759855     -6.74067870613986     -0.00016951527498
H   -7.07385728692578      1.22822084484047     -0.00046143985387
H   -4.60067330624313     -5.51236229778631      0.00021776644566
H   -7.07385645456741     -1.22822025997701     -0.00017736581114

    units angstrom      # Angstroms are the default
    no_reorient         # Geometry fixed, default
    symmetry c1         # C1 symmetry, default
}

set {
    scf_type DF         # Density fitting, faster than exact integrals
    freeze_core True    # Freeze core electrons
    basis jun-cc-pVDZ   # Jun-cc-pVDZ basis set, recommended for sSAPT0 in https://doi.org/10.1063/1.4867135
}

energy('ssapt0')        # Compute sSAPT0 energy, includes also SAPT0
--------------------------------------------------------------------------

  //              Dimer HF             //
    Molecular point group: c1
  Charge       = 1
  Multiplicity = 1
  Basis Set: JUN-CC-PVDZ
    Blend: JUN-CC-PVDZ
  Basis Set: (JUN-CC-PVDZ AUX)
    Blend: JUN-CC-PVDZ-JKFIT
  @DF-RHF Final Energy: -2359.20961554772202
    Total Energy =                      -2359.2096155477211141
 Dipole X            :          0.0039817            0.0006313            0.0046129
 Dipole Y            :         -1.5642916            1.8864948            0.3222032
 Dipole Z            :        -17.6078685           23.9224026            6.3145341
 Magnitude           :                                                    6.3227507
  //            Monomer A HF           //
    Molecular point group: c1
  Multiplicity = 1
  Basis Set: JUN-CC-PVDZ
    Blend: JUN-CC-PVDZ
  Basis Set: (JUN-CC-PVDZ AUX)
    Blend: JUN-CC-PVDZ-JKFIT
  @DF-RHF Final Energy:  -303.29804073920548
    Total Energy =                       -303.2980407392054758
  //            Monomer B HF           //
    Molecular point group: c1

    Geometry (in Angstrom), charge = 0, multiplicity = 1:

       Center              X                  Y                   Z               Mass
    ------------   -----------------  -----------------  -----------------  -----------------
      Gh(C)           0.680066520158    -1.215933861162     4.022952404700    12.000000000000
      Gh(C)          -0.680504479842    -1.215549861162     4.020924404700    12.000000000000
      Gh(N)          -1.085635479842     0.102774138838     4.019926404700    14.003074004430
      Gh(C)           0.000107520158     0.884175138838     4.016650404700    12.000000000000
      Gh(C)          -2.477365479842     0.570753138838     3.970520404700    12.000000000000
      Gh(N)           1.085221520158     0.102774138838     4.019926404700    14.003074004430
      Gh(H)           1.385145520158    -2.033372861162     4.030780404700     1.007825032230
      Gh(H)          -1.385302479842    -2.033218861162     4.021114404700     1.007825032230
      Gh(H)          -0.000009479842     1.965264138838     4.014903404700     1.007825032230
      Gh(C)           2.478116520158     0.567872138838     4.036818404700    12.000000000000
      Gh(H)           2.490591520158     1.658125138838     4.009473404700     1.007825032230
      Gh(H)           2.967027520158     0.220696138838     4.950264404700     1.007825032230
      Gh(H)           3.001427520158     0.176400138838     3.161335404700     1.007825032230
      Gh(H)          -2.857359479842     0.490794138838     2.948449404700     1.007825032230
      Gh(H)          -3.082679479842    -0.042310861162     4.640604404700     1.007825032230
      Gh(H)          -2.518128479842     1.610701138838     4.297504404700     1.007825032230
         C            1.225311895423     0.707533799757    -0.578951968016    12.000000000000
         C            1.225323856051    -0.707543383733    -0.591282777586    12.000000000000
         C           -0.000006153932     1.414961424928    -0.591816401107    12.000000000000
         C            2.456448753949     1.418323398016    -0.576065110616    12.000000000000
         C            0.000010827279    -1.414980987797    -0.581616843783    12.000000000000
         C           -1.225300948908     0.707540884822    -0.576700447693    12.000000000000
         C            2.456437755320    -1.418327793043    -0.593527934443    12.000000000000
         C           -0.000001332978     2.836796542119    -0.594219951241    12.000000000000
         C            3.681826697470     0.709313466839    -0.593179144645    12.000000000000
         C            2.455120048865     2.834219172327    -0.593281701606    12.000000000000
         C            3.681821105219    -0.709338328591    -0.577106660627    12.000000000000
         C           -1.225313598688    -0.707532004706    -0.590210016159    12.000000000000
         C            1.226699581202     3.543464994832    -0.576922628696    12.000000000000
         C            0.000004784858    -2.836786628398    -0.576768676161    12.000000000000
         C           -2.456436032848     1.418312429123    -0.576665051848    12.000000000000
         C            2.455123417779    -2.834234517751    -0.577258568994    12.000000000000
         C           -1.226714364589     3.543464574588    -0.576819295477    12.000000000000
         C            4.914517295202     1.427168383327    -0.586698461616    12.000000000000
         C            3.693150191476     3.542790803383    -0.586648661979    12.000000000000
         C           -2.456437600068    -1.418317770001    -0.593552972568    12.000000000000
         C            1.226704841943    -3.543478731069    -0.592892759446    12.000000000000
         C           -2.455125398508     2.834212173472    -0.593275325260    12.000000000000
         C            4.914524380782    -1.427191399106    -0.583725718881    12.000000000000
         C            1.221424613699     4.970129576098    -0.583587284622    12.000000000000
         C            4.893008229321     2.825183510864    -0.585481793257    12.000000000000
         C           -1.226697008489    -3.543475486239    -0.592625555036    12.000000000000
         C           -3.681818976526     0.709320477570    -0.593166464165    12.000000000000
         C            3.693147101150    -3.542805830553    -0.583607828320    12.000000000000
         C           -1.221432251994     4.970123808701    -0.583403789249    12.000000000000
         C            6.134770972926     0.680543457943    -0.585928687066    12.000000000000
         C            3.656788880610     4.972948754405    -0.585740024197    12.000000000000
         C           -2.455126907733    -2.834219582223    -0.577502926792    12.000000000000
         C           -3.681819179061    -0.709330192631    -0.576989039048    12.000000000000
         C            4.893012617914    -2.825204594794    -0.584870641362    12.000000000000
         C           -0.000001073113     5.650442876870    -0.584635097956    12.000000000000
         C            6.134775112332    -0.680559343237    -0.584663366550    12.000000000000
         C            2.478131482856     5.653572262169    -0.584451244547    12.000000000000
         C            1.221422404738    -4.970131544095    -0.586386781644    12.000000000000
         C           -3.693162383965     3.542792465030    -0.586483154520    12.000000000000
         C           -1.221428520945    -4.970122792758    -0.586499543477    12.000000000000
         C           -4.914521807942     1.427170957833    -0.586621516608    12.000000000000
         C            3.656787019679    -4.972959715401    -0.584289523663    12.000000000000
         C           -2.478138530106     5.653569933366    -0.584166719538    12.000000000000
         C           -3.693141738564    -3.542794708141    -0.583723954476    12.000000000000
         C           -4.914512483053    -1.427185489190    -0.583691021708    12.000000000000
         C           -0.000006008926    -5.650442776176    -0.585030602077    12.000000000000
         C           -4.893020484101     2.825184109757    -0.585491875117    12.000000000000
         C            2.478125993298    -5.653578033051    -0.585380124455    12.000000000000
         C           -3.656798710258     4.972951692879    -0.585563343822    12.000000000000
         C           -4.892999478856    -2.825196256222    -0.585024677059    12.000000000000
         C           -2.478128498083    -5.653570659169    -0.585655312102    12.000000000000
         C           -6.134770503331     0.680544277094    -0.585954238768    12.000000000000
         C           -3.656788833189    -4.972948512133    -0.584503811480    12.000000000000
         C           -6.134765042913    -0.680558404644    -0.584683842345    12.000000000000
         H            5.835288495816     3.369271405792    -0.581122467594     1.007825032230
         H            7.073859172747     1.228212759737    -0.585467043673     1.007825032230
         H            4.600663264174     5.512376313291    -0.585234823445     1.007825032230
         H            5.835283387305    -3.369310545891    -0.589325108676     1.007825032230
         H           -0.000012151306     6.738526184974    -0.588984342964     1.007825032230
         H            7.073861171831    -1.228231431906    -0.585172104644     1.007825032230
         H            2.473313731799     6.740679802232    -0.584917965478     1.007825032230
         H            4.600668491381    -5.512380618338    -0.584699520831     1.007825032230
         H           -2.473318680537     6.740677230444    -0.584616618853     1.007825032230
         H           -0.000010268228    -6.738532665614    -0.580500917092     1.007825032230
         H           -5.835301914343     3.369266461134    -0.580986445446     1.007825032230
         H            2.473307923831    -6.740689863591    -0.584809794030     1.007825032230
         H           -4.600674841208     5.512373537441    -0.585069495121     1.007825032230
         H           -5.835279506835    -3.369293452942    -0.589604414557     1.007825032230
         H           -2.473300347440    -6.740683567302    -0.585259110575     1.007825032230
         H           -7.073857766768     1.228215983678    -0.585551035153     1.007825032230
         H           -4.600673786085    -5.512367158949    -0.584871828854     1.007825032230
         H           -7.073856934409    -1.228225121139    -0.585266961111     1.007825032230

  Charge       = 0
  Multiplicity = 1
  Basis Set: JUN-CC-PVDZ
    Blend: JUN-CC-PVDZ
  Basis Set: (JUN-CC-PVDZ AUX)
    Blend: JUN-CC-PVDZ-JKFIT

    Orbital Energies [Eh]
    ---------------------

    Doubly Occupied:

       1A    -11.260575     2A    -11.260141     3A    -11.260115
       4A    -11.259413     5A    -11.259391     6A    -11.259224
       7A    -11.259004     8A    -11.258935     9A    -11.258915
      10A    -11.258589    11A    -11.258587    12A    -11.258496
      13A    -11.258436    14A    -11.258428    15A    -11.258425
      16A    -11.258398    17A    -11.258386    18A    -11.258369
      19A    -11.258368    20A    -11.258355    21A    -11.258352
      22A    -11.258282    23A    -11.258275    24A    -11.258009
      25A    -11.257310    26A    -11.257262    27A    -11.257233
      28A    -11.257128    29A    -11.257099    30A    -11.257029
      31A    -11.256412    32A    -11.256358    33A    -11.256319
      34A    -11.256242    35A    -11.256210    36A    -11.256177
      37A    -11.252250    38A    -11.252247    39A    -11.252241
      40A    -11.252239    41A    -11.252236    42A    -11.252225
      43A    -11.251351    44A    -11.251347    45A    -11.251345
      46A    -11.251339    47A    -11.251335    48A    -11.251330
      49A    -11.250811    50A    -11.250807    51A    -11.250802
      52A    -11.250800    53A    -11.250797    54A    -11.250786
      55A     -1.243970    56A     -1.219742    57A     -1.219722
      58A     -1.189469    59A     -1.189458    60A     -1.180859
      61A     -1.157493    62A     -1.148905    63A     -1.135419
      64A     -1.135397    65A     -1.113126    66A     -1.113124
      67A     -1.082351    68A     -1.082342    69A     -1.078519
      70A     -1.065920    71A     -1.065912    72A     -1.039324
      73A     -1.024182    74A     -1.021682    75A     -1.021628
      76A     -1.017661    77A     -1.012734    78A     -0.986940
      79A     -0.986891    80A     -0.961812    81A     -0.961760
      82A     -0.894217    83A     -0.894190    84A     -0.887832
      85A     -0.886085    86A     -0.886038    87A     -0.881305
      88A     -0.881257    89A     -0.861826    90A     -0.837352
      91A     -0.818127    92A     -0.816521    93A     -0.812043
      94A     -0.812041    95A     -0.794622    96A     -0.794608
      97A     -0.746519    98A     -0.744768    99A     -0.733322
     100A     -0.733318   101A     -0.732109   102A     -0.732084
     103A     -0.716411   104A     -0.698904   105A     -0.698878
     106A     -0.693508   107A     -0.693476   108A     -0.661159
     109A     -0.653026   110A     -0.651060   111A     -0.650186
     112A     -0.650181   113A     -0.639289   114A     -0.639272
     115A     -0.629626   116A     -0.627431   117A     -0.627420
     118A     -0.606463   119A     -0.605761   120A     -0.601566
     121A     -0.599665   122A     -0.599614   123A     -0.593543
     124A     -0.591123   125A     -0.591096   126A     -0.585219
     127A     -0.576449   128A     -0.576383   129A     -0.567259
     130A     -0.567243   131A     -0.565866   132A     -0.565854
     133A     -0.558632   134A     -0.554774   135A     -0.554771
     136A     -0.538521   137A     -0.538520   138A     -0.538214
     139A     -0.538206   140A     -0.529633   141A     -0.528155
     142A     -0.522799   143A     -0.522777   144A     -0.500432
     145A     -0.495591   146A     -0.493158   147A     -0.487804
     148A     -0.484978   149A     -0.481667   150A     -0.481663
     151A     -0.470331   152A     -0.470304   153A     -0.450913
     154A     -0.450843   155A     -0.439039   156A     -0.439031
     157A     -0.404734   158A     -0.404691   159A     -0.403346
     160A     -0.375391   161A     -0.375384   162A     -0.349101
     163A     -0.337552   164A     -0.336508   165A     -0.336494
     166A     -0.311060   167A     -0.298063   168A     -0.284304
     169A     -0.284252   170A     -0.224874   171A     -0.224812

  @DF-RHF Final Energy: -2055.89447909278670

   => Energetics <=

    Nuclear Repulsion Energy =           6452.5568002797772351
    One-Electron Energy =              -15636.5038942717219470
    Two-Electron Energy =                7128.0526148991575610
    Total Energy =                      -2055.8944790927871509
 Dipole X            :         -0.0000140           -0.0000085           -0.0000225
 Dipole Y            :          0.0033788           -0.0028843            0.0004945
 Dipole Z            :        378.1280984         -378.1368531           -0.0087547
 Magnitude           :                                                    0.0087687

    SAPT Results
  --------------------------------------------------------------------------------------------------------
    Electrostatics                -11.65682795 [mEh]      -7.31476997 [kcal/mol]     -30.60499757 [kJ/mol]
      Elst10,r                    -11.65682795 [mEh]      -7.31476997 [kcal/mol]     -30.60499757 [kJ/mol]

    Exchange                        0.50160148 [mEh]       0.31475968 [kcal/mol]       1.31695449 [kJ/mol]
      Exch10                        0.50160148 [mEh]       0.31475968 [kcal/mol]       1.31695449 [kJ/mol]
      Exch10(S^2)                   0.50158172 [mEh]       0.31474728 [kcal/mol]       1.31690263 [kJ/mol]

    Induction                      -5.94048926 [mEh]      -3.72771329 [kcal/mol]     -15.59675239 [kJ/mol]
      Ind20,r                      -5.77622985 [mEh]      -3.62463895 [kcal/mol]     -15.16548939 [kJ/mol]
      Exch-Ind20,r                  0.10252163 [mEh]       0.06433329 [kcal/mol]       0.26917050 [kJ/mol]
      delta HF,r (2)               -0.26678103 [mEh]      -0.16740763 [kcal/mol]      -0.70043351 [kJ/mol]

    Dispersion                     -9.02614233 [mEh]      -5.66398982 [kcal/mol]     -23.69813343 [kJ/mol]
      Disp20                       -9.11292730 [mEh]      -5.71844822 [kcal/mol]     -23.92598733 [kJ/mol]
      Exch-Disp20                   0.08678497 [mEh]       0.05445839 [kcal/mol]       0.22785391 [kJ/mol]
      Disp20 (SS)                  -4.55646365 [mEh]      -2.85922411 [kcal/mol]     -11.96299367 [kJ/mol]
      Disp20 (OS)                  -4.55646365 [mEh]      -2.85922411 [kcal/mol]     -11.96299367 [kJ/mol]
      Exch-Disp20 (SS)              0.05694369 [mEh]       0.03573271 [kcal/mol]       0.14950564 [kJ/mol]
      Exch-Disp20 (OS)              0.02984128 [mEh]       0.01872568 [kcal/mol]       0.07834826 [kJ/mol]

  Total HF                        -17.09571573 [mEh]     -10.72772358 [kcal/mol]     -44.88479546 [kJ/mol]
  Total SAPT0                     -26.12185806 [mEh]     -16.39171341 [kcal/mol]     -68.58292889 [kJ/mol]

  Special recipe for scaled SAPT0 (see Manual):
    Electrostatics sSAPT0         -11.65682795 [mEh]      -7.31476997 [kcal/mol]     -30.60499757 [kJ/mol]
    Exchange sSAPT0                 0.50160148 [mEh]       0.31475968 [kcal/mol]       1.31695449 [kJ/mol]
    Induction sSAPT0               -5.94047714 [mEh]      -3.72770569 [kcal/mol]     -15.59672059 [kJ/mol]
    Dispersion sSAPT0              -9.02613208 [mEh]      -5.66398339 [kcal/mol]     -23.69810651 [kJ/mol]
  Total sSAPT0                    -26.12183569 [mEh]     -16.39169937 [kcal/mol]     -68.58287017 [kJ/mol]
  --------------------------------------------------------------------------------------------------------

*** Psi4 exiting successfully. Buy a developer a beer!
