                               Psi4 1.9 release

  ==> Input File <==

--------------------------------------------------------------------------
memory 32 GB # how much memory is available ! Depends on the nodes/cores !

molecule dimer {
# monomer A
+1 1    # Charge and multiplicity
C  0.680067 -0.008042 -4.815929
C -0.680504 -0.006014 -4.815545
N -1.085635 -0.005016 -3.497221
C  0.000108 -0.001740 -2.715820
C -2.477365  0.044390 -3.029242
N  1.085222 -0.005016 -3.497221
H  1.385146 -0.015870 -5.633368
H -1.385302 -0.006204 -5.633214
H -0.000009  0.000007 -1.634731
C  2.478117 -0.021908 -3.032123
H  2.490592  0.005437 -1.941870
H  2.967028 -0.935354 -3.379299
H  3.001428  0.853575 -3.423595
H -2.857359  1.066461 -3.109201
H -3.082679 -0.625694 -3.642306
H -2.518128 -0.282594 -1.989294
--
# monomer B
0 1     # Charge and multiplicity
C   1.22531237526482      0.70753866091955      0.00613762728373
C   1.22532433589282     -0.70753852257020     -0.00619318228664
C   -0.00000567409046      1.41496628609039     -0.00672680580738
C   2.45644923379077      1.41832825917820      0.00902448468363
C   0.00001130712078     -1.41497612663474      0.00347275151708
C   -1.22530046906674      0.70754574598412      0.00838914760619
C   2.45643823516184     -1.41832293188077     -0.00843833914343
C   -0.00000085313587      2.83680140328112     -0.00913035594137
C   3.68182717731192      0.70931832800114     -0.00808954934571
C   2.45512052870677      2.83422403348893     -0.00819210630633
C   3.68182158506039     -0.70933346742900      0.00798293467272
C   -1.22531311884624     -0.70752714354401     -0.00512042085974
C   1.22670006104402      3.54346985599427      0.00816696660346
C   0.00000526469929     -2.83678176723568      0.00832091913869
C   -2.45643555300670      1.41831729028492      0.00842454345199
C   2.45512389762097     -2.83422965658853      0.00783102630520
C   -1.22671388474763      3.54346943575023      0.00827029982280
C   4.91451777504333      1.42717324448953     -0.00160886631602
C   3.69315067131765      3.54279566454522     -0.00155906667985
C   -2.45643712022637     -1.41831290883911     -0.00846337726810
C   1.22670532178455     -3.54347386990643     -0.00780316414624
C   -2.45512491866593      2.83421703463423     -0.00818572995999
C   4.91452486062398     -1.42718653794377      0.00136387641845
C   1.22142509354026      4.97013443726031      0.00150231067809
C   4.89300870916237      2.82518837202648     -0.00039219795739
C   -1.22669652864725     -3.54347062507680     -0.00753595973677
C   -3.68181849668397      0.70932533873199     -0.00807686886569
C   3.69314758099218     -3.54280096939050      0.00148176697923
C   -1.22143177215231      4.97012866986289      0.00168580605083
C   6.13477145276790      0.68054831910577     -0.00083909176631
C   3.65678936045204      4.97295361556775     -0.00065042889723
C   -2.45512642789169     -2.83421472106065      0.00758666850712
C   -3.68181869921921     -0.70932533146830      0.00810055625144
C   4.89301309775526     -2.82519973363176      0.00021895393805
C   -0.00000059327114      5.65044773803267      0.00045449734393
C   6.13477559217374     -0.68055448207492      0.00042622874941
C   2.47813196269732      5.65357712333155      0.00063835075260
C   1.22142288457925     -4.97012668293268     -0.00129718634452
C   -3.69316190412301      3.54279732619245     -0.00139355922051
C   -1.22142804110313     -4.97011793159564     -0.00140994817719
C   -4.91452132810043      1.42717581899491     -0.00153192130862
C   3.65678749952045     -4.97295485423912      0.00080007163680
C   -2.47813805026426      5.65357479452875      0.00092287576113
C   -3.69314125872231     -3.54278984697859      0.00136564082345
C   -4.91451200321153     -1.42718062802730      0.00139857359209
C   -0.00000552908399     -5.65043791501335      0.00005899322272
C   -4.89302000425900      2.82518897091939     -0.00040227981744
C   2.47812647313991     -5.65357317188818     -0.00029052915548
C   -3.65679823041642      4.97295655404175     -0.00047374852278
C   -4.89299899901461     -2.82519139505969      0.00006491824035
C   -2.47812801824129     -5.65356579800621     -0.00056571680280
C   -6.13477002348955      0.68054913825639     -0.00086464346868
C   -3.65678835334731     -4.97294365097028      0.00058578382008
C   -6.13476456307132     -0.68055354348201      0.00040575295444
H   5.83528897565761      3.36927626695423      0.00396712770529
H   7.07385965258860      1.22821762089947     -0.00037744837300
H   4.60066374401555      5.51238117445323     -0.00014522814529
H   5.83528386714679     -3.36930568472863     -0.00423551337640
H   -0.00001167146422      6.73853104613662     -0.00389474766392
H   7.07386165167227     -1.22822657074368     -0.00008250934481
H   2.47331421164041      6.74068466339473      0.00017162982210
H   4.60066897122302     -5.51237575717576      0.00039007446835
H   -2.47331820069565      6.74068209160650      0.00047297644710
H   -0.00000978838621     -6.73852780445195      0.00458867820736
H   -5.83530143450167      3.36927132229595      0.00410314985360
H   2.47330840367253     -6.74068500242887      0.00027980126949
H   -4.60067436136587      5.51237839860371      0.00002010017831
H   -5.83527902699321     -3.36928859177951     -0.00451481925734
H   -2.47329986759855     -6.74067870613986     -0.00016951527498
H   -7.07385728692578      1.22822084484047     -0.00046143985387
H   -4.60067330624313     -5.51236229778631      0.00021776644566
H   -7.07385645456741     -1.22822025997701     -0.00017736581114

    units angstrom      # Angstroms are the default
    no_reorient         # Geometry fixed, default
    symmetry c1         # C1 symmetry, default
}

set {
    scf_type DF         # Density fitting, faster than exact integrals
    freeze_core True    # Freeze core electrons
    basis jun-cc-pVDZ   # Jun-cc-pVDZ basis set, recommended for sSAPT0 in https://doi.org/10.1063/1.4867135
}

energy('ssapt0')        # Compute sSAPT0 energy, includes also SAPT0
--------------------------------------------------------------------------

  //              Dimer HF             //
    Molecular point group: c1
  Charge       = 1
  Multiplicity = 1
  Basis Set: JUN-CC-PVDZ
    Blend: JUN-CC-PVDZ
  Basis Set: (JUN-CC-PVDZ AUX)
    Blend: JUN-CC-PVDZ-JKFIT
  @DF-RHF Final Energy: -2359.17052702967248
    Total Energy =                      -2359.1705270296733943
 Dipole X            :         -0.0034829            0.0006313           -0.0028516
 Dipole Y            :         -0.0601808            0.0560211           -0.0041597
 Dipole Z            :         13.3556854          -16.8788659           -3.5231805
 Magnitude           :                                                    3.5231841
  //            Monomer A HF           //
    Molecular point group: c1
  Multiplicity = 1
  Basis Set: JUN-CC-PVDZ
    Blend: JUN-CC-PVDZ
  Basis Set: (JUN-CC-PVDZ AUX)
    Blend: JUN-CC-PVDZ-JKFIT
  @DF-RHF Final Energy:  -303.29882715097528
    Total Energy =                       -303.2988271509752849
  //            Monomer B HF           //
    Molecular point group: c1

    Geometry (in Angstrom), charge = 0, multiplicity = 1:

       Center              X                  Y                   Z               Mass
    ------------   -----------------  -----------------  -----------------  -----------------
      Gh(C)           0.680066520158    -0.008042372515    -4.358033358461    12.000000000000
      Gh(C)          -0.680504479842    -0.006014372515    -4.357649358461    12.000000000000
      Gh(N)          -1.085635479842    -0.005016372515    -3.039325358461    14.003074004430
      Gh(C)           0.000107520158    -0.001740372515    -2.257924358461    12.000000000000
      Gh(C)          -2.477365479842     0.044389627485    -2.571346358461    12.000000000000
      Gh(N)           1.085221520158    -0.005016372515    -3.039325358461    14.003074004430
      Gh(H)           1.385145520158    -0.015870372515    -5.175472358461     1.007825032230
      Gh(H)          -1.385302479842    -0.006204372515    -5.175318358461     1.007825032230
      Gh(H)          -0.000009479842     0.000006627485    -1.176835358461     1.007825032230
      Gh(C)           2.478116520158    -0.021908372515    -2.574227358461    12.000000000000
      Gh(H)           2.490591520158     0.005436627485    -1.483974358461     1.007825032230
      Gh(H)           2.967027520158    -0.935354372515    -2.921403358461     1.007825032230
      Gh(H)           3.001427520158     0.853574627485    -2.965699358461     1.007825032230
      Gh(H)          -2.857359479842     1.066460627485    -2.651305358461     1.007825032230
      Gh(H)          -3.082679479842    -0.625694372515    -3.184410358461     1.007825032230
      Gh(H)          -2.518128479842    -0.282594372515    -1.531398358461     1.007825032230
         C            1.225311895423     0.707538288405     0.464033268822    12.000000000000
         C            1.225323856051    -0.707538895085     0.451702459252    12.000000000000
         C           -0.000006153932     1.414965913575     0.451168835731    12.000000000000
         C            2.456448753949     1.418327886663     0.466920126222    12.000000000000
         C            0.000010827279    -1.414976499150     0.461368393056    12.000000000000
         C           -1.225300948908     0.707545373469     0.466284789145    12.000000000000
         C            2.456437755320    -1.418323304396     0.449457302395    12.000000000000
         C           -0.000001332978     2.836801030766     0.448765285597    12.000000000000
         C            3.681826697470     0.709317955486     0.449806092193    12.000000000000
         C            2.455120048865     2.834223660974     0.449703535232    12.000000000000
         C            3.681821105219    -0.709333839944     0.465878576211    12.000000000000
         C           -1.225313598688    -0.707527516059     0.452775220679    12.000000000000
         C            1.226699581202     3.543469483479     0.466062608142    12.000000000000
         C            0.000004784858    -2.836782139751     0.466216560677    12.000000000000
         C           -2.456436032848     1.418316917770     0.466320184991    12.000000000000
         C            2.455123417779    -2.834230029103     0.465726667844    12.000000000000
         C           -1.226714364589     3.543469063235     0.466165941362    12.000000000000
         C            4.914517295202     1.427172871975     0.456286775223    12.000000000000
         C            3.693150191476     3.542795292030     0.456336574859    12.000000000000
         C           -2.456437600068    -1.418313281354     0.449432264271    12.000000000000
         C            1.226704841943    -3.543474242421     0.450092477393    12.000000000000
         C           -2.455125398508     2.834216662119     0.449709911579    12.000000000000
         C            4.914524380782    -1.427186910459     0.459259517957    12.000000000000
         C            1.221424613699     4.970134064745     0.459397952217    12.000000000000
         C            4.893008229321     2.825187999512     0.457503443581    12.000000000000
         C           -1.226697008489    -3.543470997592     0.450359681802    12.000000000000
         C           -3.681818976526     0.709324966217     0.449818772673    12.000000000000
         C            3.693147101150    -3.542801341905     0.459377408518    12.000000000000
         C           -1.221432251994     4.970128297348     0.459581447590    12.000000000000
         C            6.134770972926     0.680547946591     0.457056549772    12.000000000000
         C            3.656788880610     4.972953243053     0.457245212642    12.000000000000
         C           -2.455126907733    -2.834215093576     0.465482310046    12.000000000000
         C           -3.681819179061    -0.709325703983     0.465996197790    12.000000000000
         C            4.893012617914    -2.825200106147     0.458114595477    12.000000000000
         C           -0.000001073113     5.650447365518     0.458350138883    12.000000000000
         C            6.134775112332    -0.680554854590     0.458321870288    12.000000000000
         C            2.478131482856     5.653576750817     0.458533992291    12.000000000000
         C            1.221422404738    -4.970127055448     0.456598455194    12.000000000000
         C           -3.693162383965     3.542796953677     0.456502082318    12.000000000000
         C           -1.221428520945    -4.970118304111     0.456485693362    12.000000000000
         C           -4.914521807942     1.427175446480     0.456363720230    12.000000000000
         C            3.656787019679    -4.972955226754     0.458695713176    12.000000000000
         C           -2.478138530106     5.653574422014     0.458818517300    12.000000000000
         C           -3.693141738564    -3.542790219494     0.459261282362    12.000000000000
         C           -4.914512483053    -1.427181000542     0.459294215131    12.000000000000
         C           -0.000006008926    -5.650438287528     0.457954634761    12.000000000000
         C           -4.893020484101     2.825188598404     0.457493361721    12.000000000000
         C            2.478125993298    -5.653573544403     0.457605112383    12.000000000000
         C           -3.656798710258     4.972956181527     0.457421893016    12.000000000000
         C           -4.892999478856    -2.825191767575     0.457960559779    12.000000000000
         C           -2.478128498083    -5.653566170521     0.457329924736    12.000000000000
         C           -6.134770503331     0.680548765741     0.457030998070    12.000000000000
         C           -3.656788833189    -4.972944023485     0.458481425359    12.000000000000
         C           -6.134765042913    -0.680553915997     0.458301394493    12.000000000000
         H            5.835288495816     3.369275894439     0.461862769244     1.007825032230
         H            7.073859172747     1.228217248385     0.457518193166     1.007825032230
         H            4.600663264174     5.512380801938     0.457750413393     1.007825032230
         H            5.835283387305    -3.369306057244     0.453660128162     1.007825032230
         H           -0.000012151306     6.738530673622     0.454000893875     1.007825032230
         H            7.073861171831    -1.228226943259     0.457813132194     1.007825032230
         H            2.473313731799     6.740684290880     0.458067271361     1.007825032230
         H            4.600668491381    -5.512376129691     0.458285716007     1.007825032230
         H           -2.473318680537     6.740681719092     0.458368617986     1.007825032230
         H           -0.000010268228    -6.738528176967     0.462484319746     1.007825032230
         H           -5.835301914343     3.369270949781     0.461998791392     1.007825032230
         H            2.473307923831    -6.740685374944     0.458175442808     1.007825032230
         H           -4.600674841208     5.512378026089     0.457915741717     1.007825032230
         H           -5.835279506835    -3.369288964294     0.453380822281     1.007825032230
         H           -2.473300347440    -6.740679078655     0.457726126264     1.007825032230
         H           -7.073857766768     1.228220472326     0.457434201685     1.007825032230
         H           -4.600673786085    -5.512362670301     0.458113407984     1.007825032230
         H           -7.073856934409    -1.228220632492     0.457718275728     1.007825032230

  Charge       = 0
  Multiplicity = 1
  Basis Set: JUN-CC-PVDZ
    Blend: JUN-CC-PVDZ
  Basis Set: (JUN-CC-PVDZ AUX)
    Blend: JUN-CC-PVDZ-JKFIT

    Orbital Energies [Eh]
    ---------------------

    Doubly Occupied:

       1A    -11.260592     2A    -11.260189     3A    -11.260087
       4A    -11.259439     5A    -11.259344     6A    -11.259205
       7A    -11.258972     8A    -11.258935     9A    -11.258848
      10A    -11.258568    11A    -11.258538    12A    -11.258435
      13A    -11.258376    14A    -11.258374    15A    -11.258367
      16A    -11.258343    17A    -11.258320    18A    -11.258309
      19A    -11.258303    20A    -11.258291    21A    -11.258286
      22A    -11.258252    23A    -11.258212    24A    -11.258000
      25A    -11.257262    26A    -11.257235    27A    -11.257149
      28A    -11.257079    29A    -11.257013    30A    -11.256957
      31A    -11.256372    32A    -11.256341    33A    -11.256232
      34A    -11.256185    35A    -11.256125    36A    -11.256093
      37A    -11.252192    38A    -11.252185    39A    -11.252179
      40A    -11.252166    41A    -11.252131    42A    -11.252130
      43A    -11.251280    44A    -11.251267    45A    -11.251262
      46A    -11.251245    47A    -11.251239    48A    -11.251223
      49A    -11.250753    50A    -11.250746    51A    -11.250740
      52A    -11.250727    53A    -11.250692    54A    -11.250691
      55A     -1.243831    56A     -1.219621    57A     -1.219577
      58A     -1.189351    59A     -1.189326    60A     -1.180724
      61A     -1.157374    62A     -1.148785    63A     -1.135293
      64A     -1.135250    65A     -1.113011    66A     -1.113003
      67A     -1.082226    68A     -1.082207    69A     -1.078387
      70A     -1.065808    71A     -1.065794    72A     -1.039202
      73A     -1.024046    74A     -1.021546    75A     -1.021472
      76A     -1.017544    77A     -1.012630    78A     -0.986823
      79A     -0.986743    80A     -0.961700    81A     -0.961637
      82A     -0.894088    83A     -0.894079    84A     -0.887693
      85A     -0.885932    86A     -0.885907    87A     -0.881164
      88A     -0.881123    89A     -0.861710    90A     -0.837246
      91A     -0.818002    92A     -0.816382    93A     -0.811911
      94A     -0.811904    95A     -0.794505    96A     -0.794492
      97A     -0.746386    98A     -0.744638    99A     -0.733199
     100A     -0.733167   101A     -0.731985   102A     -0.731972
     103A     -0.716287   104A     -0.698797   105A     -0.698739
     106A     -0.693399   107A     -0.693325   108A     -0.661044
     109A     -0.652889   110A     -0.650921   111A     -0.650076
     112A     -0.650057   113A     -0.639181   114A     -0.639140
     115A     -0.629498   116A     -0.627296   117A     -0.627293
     118A     -0.606411   119A     -0.605664   120A     -0.601428
     121A     -0.599565   122A     -0.599462   123A     -0.593411
     124A     -0.590991   125A     -0.590933   126A     -0.585118
     127A     -0.576427   128A     -0.576303   129A     -0.567156
     130A     -0.567121   131A     -0.565732   132A     -0.565727
     133A     -0.558493   134A     -0.554671   135A     -0.554635
     136A     -0.538410   137A     -0.538400   138A     -0.538162
     139A     -0.538122   140A     -0.529515   141A     -0.528105
     142A     -0.522695   143A     -0.522633   144A     -0.500317
     145A     -0.495547   146A     -0.493040   147A     -0.487750
     148A     -0.484845   149A     -0.481543   150A     -0.481530
     151A     -0.470262   152A     -0.470220   153A     -0.450758
     154A     -0.450706   155A     -0.438969   156A     -0.438963
     157A     -0.404629   158A     -0.404609   159A     -0.403263
     160A     -0.375315   161A     -0.375307   162A     -0.349013
     163A     -0.337478   164A     -0.336402   165A     -0.336383
     166A     -0.310957   167A     -0.298023   168A     -0.284207
     169A     -0.284144   170A     -0.224763   171A     -0.224708

  @DF-RHF Final Energy: -2055.89600597794515

   => Energetics <=

    Nuclear Repulsion Energy =           6452.5568002797781446
    One-Electron Energy =              -15636.5400627188137150
    Two-Electron Energy =                7128.0872564610917834
    Total Energy =                      -2055.8960059779446965
 Dipole X            :         -0.0001792           -0.0000085           -0.0001877
 Dipole Y            :          0.0008338            0.0000167            0.0008505
 Dipole Z            :       -295.9311050          295.9302530           -0.0008520
 Magnitude           :                                                    0.0012184

    SAPT Results
  --------------------------------------------------------------------------------------------------------
    Electrostatics                -39.10801768 [mEh]     -24.54065159 [kcal/mol]    -102.67808626 [kJ/mol]
      Elst10,r                    -39.10801768 [mEh]     -24.54065159 [kcal/mol]    -102.67808626 [kJ/mol]

    Exchange                       98.24881257 [mEh]      61.65206068 [kcal/mol]     257.95222187 [kJ/mol]
      Exch10                       98.24881257 [mEh]      61.65206068 [kcal/mol]     257.95222187 [kJ/mol]
      Exch10(S^2)                  95.87295168 [mEh]      60.16118546 [kcal/mol]     251.71439995 [kJ/mol]

    Induction                     -34.83469565 [mEh]     -21.85910153 [kcal/mol]     -91.45848082 [kJ/mol]
      Ind20,r                     -51.86166653 [mEh]     -32.54368708 [kcal/mol]    -136.16278672 [kJ/mol]
      Exch-Ind20,r                 28.21219666 [mEh]      17.70342068 [kcal/mol]      74.07111212 [kJ/mol]
      delta HF,r (2)              -11.18522577 [mEh]      -7.01883514 [kcal/mol]     -29.36680622 [kJ/mol]

    Dispersion                    -52.55276605 [mEh]     -32.97735857 [kcal/mol]    -137.97726826 [kJ/mol]
      Disp20                      -59.72292003 [mEh]     -37.47669812 [kcal/mol]    -156.80250494 [kJ/mol]
      Exch-Disp20                   7.17015398 [mEh]       4.49933955 [kcal/mol]      18.82523668 [kJ/mol]
      Disp20 (SS)                 -29.86146002 [mEh]     -18.73834906 [kcal/mol]     -78.40125247 [kJ/mol]
      Disp20 (OS)                 -29.86146002 [mEh]     -18.73834906 [kcal/mol]     -78.40125247 [kJ/mol]
      Exch-Disp20 (SS)              4.21815725 [mEh]       2.64693364 [kcal/mol]      11.07477033 [kJ/mol]
      Exch-Disp20 (OS)              2.95199673 [mEh]       1.85240592 [kcal/mol]       7.75046635 [kJ/mol]

  Total HF                         24.30609925 [mEh]      15.25230755 [kcal/mol]      63.81565478 [kJ/mol]
  Total SAPT0                     -28.24666681 [mEh]     -17.72505102 [kcal/mol]     -74.16161348 [kJ/mol]

  Special recipe for scaled SAPT0 (see Manual):
    Electrostatics sSAPT0         -39.10801768 [mEh]     -24.54065159 [kcal/mol]    -102.67808626 [kJ/mol]
    Exchange sSAPT0                98.24881257 [mEh]      61.65206068 [kcal/mol]     257.95222187 [kJ/mol]
    Induction sSAPT0              -32.68488097 [mEh]     -20.51007246 [kcal/mol]     -85.81414316 [kJ/mol]
    Dispersion sSAPT0             -52.00638881 [mEh]     -32.63450167 [kcal/mol]    -136.54275501 [kJ/mol]
  Total sSAPT0                    -25.55047488 [mEh]     -16.03316505 [kcal/mol]     -67.08276256 [kJ/mol]
  --------------------------------------------------------------------------------------------------------

*** Psi4 exiting successfully. Buy a developer a beer!
