                               Psi4 1.9 release

  ==> Input File <==

--------------------------------------------------------------------------
memory 32 GB # how much memory is available ! Depends on the nodes/cores !

molecule dimer {
# monomer A
-1 1    # Charge and multiplicity
B -1.977592e-04  2.742729e-04 -7.599966
F  1.123153e-16  1.430594e-17 -6.187181
F  1.147860e+00  6.757812e-01 -8.071107
F  1.191806e-02 -1.332011e+00 -8.070905
F -1.159666e+00  6.560735e-01 -8.070826
--
# monomer B
0 1     # Charge and multiplicity
C   1.22531237526482      0.70753866091955      0.00613762728373
C   1.22532433589282     -0.70753852257020     -0.00619318228664
C   -0.00000567409046      1.41496628609039     -0.00672680580738
C   2.45644923379077      1.41832825917820      0.00902448468363
C   0.00001130712078     -1.41497612663474      0.00347275151708
C   -1.22530046906674      0.70754574598412      0.00838914760619
C   2.45643823516184     -1.41832293188077     -0.00843833914343
C   -0.00000085313587      2.83680140328112     -0.00913035594137
C   3.68182717731192      0.70931832800114     -0.00808954934571
C   2.45512052870677      2.83422403348893     -0.00819210630633
C   3.68182158506039     -0.70933346742900      0.00798293467272
C   -1.22531311884624     -0.70752714354401     -0.00512042085974
C   1.22670006104402      3.54346985599427      0.00816696660346
C   0.00000526469929     -2.83678176723568      0.00832091913869
C   -2.45643555300670      1.41831729028492      0.00842454345199
C   2.45512389762097     -2.83422965658853      0.00783102630520
C   -1.22671388474763      3.54346943575023      0.00827029982280
C   4.91451777504333      1.42717324448953     -0.00160886631602
C   3.69315067131765      3.54279566454522     -0.00155906667985
C   -2.45643712022637     -1.41831290883911     -0.00846337726810
C   1.22670532178455     -3.54347386990643     -0.00780316414624
C   -2.45512491866593      2.83421703463423     -0.00818572995999
C   4.91452486062398     -1.42718653794377      0.00136387641845
C   1.22142509354026      4.97013443726031      0.00150231067809
C   4.89300870916237      2.82518837202648     -0.00039219795739
C   -1.22669652864725     -3.54347062507680     -0.00753595973677
C   -3.68181849668397      0.70932533873199     -0.00807686886569
C   3.69314758099218     -3.54280096939050      0.00148176697923
C   -1.22143177215231      4.97012866986289      0.00168580605083
C   6.13477145276790      0.68054831910577     -0.00083909176631
C   3.65678936045204      4.97295361556775     -0.00065042889723
C   -2.45512642789169     -2.83421472106065      0.00758666850712
C   -3.68181869921921     -0.70932533146830      0.00810055625144
C   4.89301309775526     -2.82519973363176      0.00021895393805
C   -0.00000059327114      5.65044773803267      0.00045449734393
C   6.13477559217374     -0.68055448207492      0.00042622874941
C   2.47813196269732      5.65357712333155      0.00063835075260
C   1.22142288457925     -4.97012668293268     -0.00129718634452
C   -3.69316190412301      3.54279732619245     -0.00139355922051
C   -1.22142804110313     -4.97011793159564     -0.00140994817719
C   -4.91452132810043      1.42717581899491     -0.00153192130862
C   3.65678749952045     -4.97295485423912      0.00080007163680
C   -2.47813805026426      5.65357479452875      0.00092287576113
C   -3.69314125872231     -3.54278984697859      0.00136564082345
C   -4.91451200321153     -1.42718062802730      0.00139857359209
C   -0.00000552908399     -5.65043791501335      0.00005899322272
C   -4.89302000425900      2.82518897091939     -0.00040227981744
C   2.47812647313991     -5.65357317188818     -0.00029052915548
C   -3.65679823041642      4.97295655404175     -0.00047374852278
C   -4.89299899901461     -2.82519139505969      0.00006491824035
C   -2.47812801824129     -5.65356579800621     -0.00056571680280
C   -6.13477002348955      0.68054913825639     -0.00086464346868
C   -3.65678835334731     -4.97294365097028      0.00058578382008
C   -6.13476456307132     -0.68055354348201      0.00040575295444
H   5.83528897565761      3.36927626695423      0.00396712770529
H   7.07385965258860      1.22821762089947     -0.00037744837300
H   4.60066374401555      5.51238117445323     -0.00014522814529
H   5.83528386714679     -3.36930568472863     -0.00423551337640
H   -0.00001167146422      6.73853104613662     -0.00389474766392
H   7.07386165167227     -1.22822657074368     -0.00008250934481
H   2.47331421164041      6.74068466339473      0.00017162982210
H   4.60066897122302     -5.51237575717576      0.00039007446835
H   -2.47331820069565      6.74068209160650      0.00047297644710
H   -0.00000978838621     -6.73852780445195      0.00458867820736
H   -5.83530143450167      3.36927132229595      0.00410314985360
H   2.47330840367253     -6.74068500242887      0.00027980126949
H   -4.60067436136587      5.51237839860371      0.00002010017831
H   -5.83527902699321     -3.36928859177951     -0.00451481925734
H   -2.47329986759855     -6.74067870613986     -0.00016951527498
H   -7.07385728692578      1.22822084484047     -0.00046143985387
H   -4.60067330624313     -5.51236229778631      0.00021776644566
H   -7.07385645456741     -1.22822025997701     -0.00017736581114

    units angstrom      # Angstroms are the default
    no_reorient         # Geometry fixed, default
    symmetry c1         # C1 symmetry, default
}

set {
    scf_type DF         # Density fitting, faster than exact integrals
    freeze_core True    # Freeze core electrons
    basis jun-cc-pVDZ   # Jun-cc-pVDZ basis set, recommended for sSAPT0 in https://doi.org/10.1063/1.4867135
}

energy('ssapt0')        # Compute sSAPT0 energy, includes also SAPT0
--------------------------------------------------------------------------

  //              Dimer HF             //
    Molecular point group: c1
  Charge       = -1
  Multiplicity = 1
  Basis Set: JUN-CC-PVDZ
    Blend: JUN-CC-PVDZ
  Basis Set: (JUN-CC-PVDZ AUX)
    Blend: JUN-CC-PVDZ-JKFIT
  @DF-RHF Final Energy: -2478.65831429202672
    Total Energy =                      -2478.6583142920262617
 Dipole X            :         -0.0005253            0.0000481           -0.0004772
 Dipole Y            :          0.0010784           -0.0001453            0.0009331
 Dipole Z            :        -34.5829265           46.5906903           12.0077639
 Magnitude           :                                                   12.0077639
  //            Monomer A HF           //
    Molecular point group: c1
  Multiplicity = 1
  Basis Set: JUN-CC-PVDZ
    Blend: JUN-CC-PVDZ
  Basis Set: (JUN-CC-PVDZ AUX)
    Blend: JUN-CC-PVDZ-JKFIT
  @DF-RHF Final Energy:  -422.77145330809503
    Total Energy =                       -422.7714533080950332
  //            Monomer B HF           //
    Molecular point group: c1

    Geometry (in Angstrom), charge = 0, multiplicity = 1:

       Center              X                  Y                   Z               Mass
    ------------   -----------------  -----------------  -----------------  -----------------
      Gh(B)          -0.000198161052     0.000273808717    -6.722014312942    11.009305360000
      Gh(F)          -0.000000401852    -0.000000464183    -5.309229312942    18.998403162730
      Gh(F)           1.147859598148     0.675780735817    -7.193155312942    18.998403162730
      Gh(F)           0.011917658148    -1.332011464183    -7.192953312942    18.998403162730
      Gh(F)          -1.159666401852     0.656073035817    -7.192874312942    18.998403162730
         C            1.225311973413     0.707538196736     0.884089314341    12.000000000000
         C            1.225323934041    -0.707538986754     0.871758504771    12.000000000000
         C           -0.000006075942     1.414965821907     0.871224881250    12.000000000000
         C            2.456448831939     1.418327794995     0.886976171741    12.000000000000
         C            0.000010905269    -1.414976590818     0.881424438575    12.000000000000
         C           -1.225300870919     0.707545281801     0.886340834664    12.000000000000
         C            2.456437833310    -1.418323396064     0.869513347914    12.000000000000
         C           -0.000001254988     2.836800939098     0.868821331116    12.000000000000
         C            3.681826775460     0.709317863818     0.869862137712    12.000000000000
         C            2.455120126855     2.834223569306     0.869759580751    12.000000000000
         C            3.681821183209    -0.709333931612     0.885934621730    12.000000000000
         C           -1.225313520698    -0.707527607727     0.872831266198    12.000000000000
         C            1.226699659192     3.543469391811     0.886118653661    12.000000000000
         C            0.000004862847    -2.836782231419     0.886272606196    12.000000000000
         C           -2.456435954859     1.418316826102     0.886376230510    12.000000000000
         C            2.455123495769    -2.834230120772     0.885782713363    12.000000000000
         C           -1.226714286599     3.543468971567     0.886221986880    12.000000000000
         C            4.914517373191     1.427172780306     0.876342820742    12.000000000000
         C            3.693150269466     3.542795200362     0.876392620378    12.000000000000
         C           -2.456437522078    -1.418313373022     0.869488309790    12.000000000000
         C            1.226704919933    -3.543474334090     0.870148522911    12.000000000000
         C           -2.455125320518     2.834216570451     0.869765957098    12.000000000000
         C            4.914524458772    -1.427187002127     0.879315563476    12.000000000000
         C            1.221424691688     4.970133973077     0.879453997736    12.000000000000
         C            4.893008307311     2.825187907843     0.877559489100    12.000000000000
         C           -1.226696930499    -3.543471089260     0.870415727321    12.000000000000
         C           -3.681818898536     0.709324874549     0.869874818192    12.000000000000
         C            3.693147179140    -3.542801433574     0.879433454037    12.000000000000
         C           -1.221432174004     4.970128205680     0.879637493109    12.000000000000
         C            6.134771050916     0.680547854922     0.877112595291    12.000000000000
         C            3.656788958600     4.972953151384     0.877301258160    12.000000000000
         C           -2.455126829744    -2.834215185244     0.885538355565    12.000000000000
         C           -3.681819101071    -0.709325795652     0.886052243309    12.000000000000
         C            4.893012695903    -2.825200197815     0.878170640996    12.000000000000
         C           -0.000000995123     5.650447273849     0.878406184402    12.000000000000
         C            6.134775190322    -0.680554946258     0.878377915807    12.000000000000
         C            2.478131560845     5.653576659148     0.878590037810    12.000000000000
         C            1.221422482727    -4.970127147116     0.876654500713    12.000000000000
         C           -3.693162305975     3.542796862009     0.876558127837    12.000000000000
         C           -1.221428442955    -4.970118395779     0.876541738881    12.000000000000
         C           -4.914521729952     1.427175354812     0.876419765749    12.000000000000
         C            3.656787097669    -4.972955318422     0.878751758694    12.000000000000
         C           -2.478138452116     5.653574330345     0.878874562819    12.000000000000
         C           -3.693141660574    -3.542790311162     0.879317327881    12.000000000000
         C           -4.914512405063    -1.427181092211     0.879350260650    12.000000000000
         C           -0.000005930936    -5.650438379197     0.878010680280    12.000000000000
         C           -4.893020406111     2.825188506736     0.877549407240    12.000000000000
         C            2.478126071288    -5.653573636072     0.877661157902    12.000000000000
         C           -3.656798632268     4.972956089858     0.877477938535    12.000000000000
         C           -4.892999400866    -2.825191859243     0.878016605298    12.000000000000
         C           -2.478128420093    -5.653566262190     0.877385970255    12.000000000000
         C           -6.134770425341     0.680548674073     0.877087043589    12.000000000000
         C           -3.656788755199    -4.972944115154     0.878537470878    12.000000000000
         C           -6.134764964923    -0.680554007665     0.878357440012    12.000000000000
         H            5.835288573806     3.369275802771     0.881918814763     1.007825032230
         H            7.073859250737     1.228217156716     0.877574238685     1.007825032230
         H            4.600663342164     5.512380710270     0.877806458912     1.007825032230
         H            5.835283465295    -3.369306148912     0.873716173681     1.007825032230
         H           -0.000012073316     6.738530581953     0.874056939394     1.007825032230
         H            7.073861249820    -1.228227034927     0.877869177713     1.007825032230
         H            2.473313809789     6.740684199211     0.878123316880     1.007825032230
         H            4.600668569371    -5.512376221359     0.878341761526     1.007825032230
         H           -2.473318602548     6.740681627423     0.878424663505     1.007825032230
         H           -0.000010190238    -6.738528268635     0.882540365265     1.007825032230
         H           -5.835301836354     3.369270858113     0.882054836911     1.007825032230
         H            2.473308001821    -6.740685466612     0.878231488327     1.007825032230
         H           -4.600674763218     5.512377934420     0.877971787236     1.007825032230
         H           -5.835279428845    -3.369289055963     0.873436867800     1.007825032230
         H           -2.473300269450    -6.740679170323     0.877782171783     1.007825032230
         H           -7.073857688778     1.228220380657     0.877490247204     1.007825032230
         H           -4.600673708095    -5.512362761970     0.878169453503     1.007825032230
         H           -7.073856856419    -1.228220724160     0.877774321247     1.007825032230

  Charge       = 0
  Multiplicity = 1
  Basis Set: JUN-CC-PVDZ
    Blend: JUN-CC-PVDZ
  Basis Set: (JUN-CC-PVDZ AUX)
    Blend: JUN-CC-PVDZ-JKFIT

    Orbital Energies [Eh]
    ---------------------

    Doubly Occupied:

       1A    -11.260675     2A    -11.260232     3A    -11.260230
       4A    -11.259520     5A    -11.259520     6A    -11.259350
       7A    -11.259141     8A    -11.259063     9A    -11.259062
      10A    -11.258738    11A    -11.258734    12A    -11.258665
      13A    -11.258603    14A    -11.258598    15A    -11.258595
      16A    -11.258567    17A    -11.258561    18A    -11.258544
      19A    -11.258531    20A    -11.258526    21A    -11.258520
      22A    -11.258422    23A    -11.258419    24A    -11.258120
      25A    -11.257460    26A    -11.257398    27A    -11.257398
      28A    -11.257263    29A    -11.257262    30A    -11.257178
      31A    -11.256556    32A    -11.256485    33A    -11.256484
      34A    -11.256375    35A    -11.256374    36A    -11.256327
      37A    -11.252401    38A    -11.252401    39A    -11.252400
      40A    -11.252398    41A    -11.252396    42A    -11.252394
      43A    -11.251536    44A    -11.251533    45A    -11.251532
      46A    -11.251526    47A    -11.251526    48A    -11.251522
      49A    -11.250963    50A    -11.250962    51A    -11.250961
      52A    -11.250959    53A    -11.250957    54A    -11.250956
      55A     -1.244298    56A     -1.220016    57A     -1.220016
      58A     -1.189725    59A     -1.189717    60A     -1.181169
      61A     -1.157725    62A     -1.149157    63A     -1.135707
      64A     -1.135700    65A     -1.113358    66A     -1.113354
      67A     -1.082631    68A     -1.082624    69A     -1.078815
      70A     -1.066142    71A     -1.066138    72A     -1.039581
      73A     -1.024493    74A     -1.021995    75A     -1.021952
      76A     -1.017891    77A     -1.012952    78A     -0.987223
      79A     -0.987178    80A     -0.962052    81A     -0.962002
      82A     -0.894471    83A     -0.894444    84A     -0.888167
      85A     -0.886414    86A     -0.886356    87A     -0.881603
      88A     -0.881555    89A     -0.862076    90A     -0.837554
      91A     -0.818394    92A     -0.816834    93A     -0.812342
      94A     -0.812333    95A     -0.794857    96A     -0.794847
      97A     -0.746842    98A     -0.745067    99A     -0.733635
     100A     -0.733626   101A     -0.732356   102A     -0.732333
     103A     -0.716703   104A     -0.699153   105A     -0.699142
     106A     -0.693778   107A     -0.693763   108A     -0.661403
     109A     -0.653335   110A     -0.651382   111A     -0.650420
     112A     -0.650414   113A     -0.639532   114A     -0.639530
     115A     -0.629917   116A     -0.627728   117A     -0.627712
     118A     -0.606459   119A     -0.605937   120A     -0.601869
     121A     -0.599922   122A     -0.599891   123A     -0.593827
     124A     -0.591456   125A     -0.591446   126A     -0.585422
     127A     -0.576418   128A     -0.576413   129A     -0.567481
     130A     -0.567467   131A     -0.566168   132A     -0.566148
     133A     -0.558943   134A     -0.555026   135A     -0.555020
     136A     -0.538763   137A     -0.538761   138A     -0.538290
     139A     -0.538284   140A     -0.529899   141A     -0.528212
     142A     -0.523054   143A     -0.523047   144A     -0.500672
     145A     -0.495721   146A     -0.493410   147A     -0.487950
     148A     -0.485270   149A     -0.481950   150A     -0.481942
     151A     -0.470439   152A     -0.470421   153A     -0.451254
     154A     -0.451176   155A     -0.439191   156A     -0.439182
     157A     -0.404871   158A     -0.404848   159A     -0.403494
     160A     -0.375545   161A     -0.375543   162A     -0.349250
     163A     -0.337717   164A     -0.336685   165A     -0.336628
     166A     -0.311226   167A     -0.298213   168A     -0.284483
     169A     -0.284429   170A     -0.225051   171A     -0.224985

  @DF-RHF Final Energy: -2055.89164257171069

   => Energetics <=

    Nuclear Repulsion Energy =           6452.5568002797772351
    One-Electron Energy =              -15636.4255979834397294
    Two-Electron Energy =                7127.9771551319518039
    Total Energy =                      -2055.8916425717106904
 Dipole X            :          0.0000530            0.0000419            0.0000949
 Dipole Y            :          0.0000284           -0.0000426           -0.0000141
 Dipole Z            :       -567.4057971          567.4067351            0.0009380
 Magnitude           :                                                    0.0009429

    SAPT Results
  --------------------------------------------------------------------------------------------------------
    Electrostatics                  6.61719965 [mEh]       4.15235547 [kcal/mol]      17.37345530 [kJ/mol]
      Elst10,r                      6.61719965 [mEh]       4.15235547 [kcal/mol]      17.37345530 [kJ/mol]

    Exchange                       -0.00017249 [mEh]      -0.00010824 [kcal/mol]      -0.00045287 [kJ/mol]
      Exch10                       -0.00017249 [mEh]      -0.00010824 [kcal/mol]      -0.00045287 [kJ/mol]
      Exch10(S^2)                  -0.00017249 [mEh]      -0.00010824 [kcal/mol]      -0.00045287 [kJ/mol]

    Induction                      -1.83543938 [mEh]      -1.15175560 [kcal/mol]      -4.81894544 [kJ/mol]
      Ind20,r                      -1.84672760 [mEh]      -1.15883906 [kcal/mol]      -4.84858265 [kJ/mol]
      Exch-Ind20,r                  0.00017822 [mEh]       0.00011184 [kcal/mol]       0.00046792 [kJ/mol]
      delta HF,r (2)                0.01110999 [mEh]       0.00697163 [kcal/mol]       0.02916929 [kJ/mol]

    Dispersion                     -0.27929194 [mEh]      -0.17525834 [kcal/mol]      -0.73328089 [kJ/mol]
      Disp20                       -0.27936631 [mEh]      -0.17530501 [kcal/mol]      -0.73347615 [kJ/mol]
      Exch-Disp20                   0.00007437 [mEh]       0.00004667 [kcal/mol]       0.00019525 [kJ/mol]
      Disp20 (SS)                  -0.13968316 [mEh]      -0.08765250 [kcal/mol]      -0.36673807 [kJ/mol]
      Disp20 (OS)                  -0.13968316 [mEh]      -0.08765250 [kcal/mol]      -0.36673807 [kJ/mol]
      Exch-Disp20 (SS)              0.00005903 [mEh]       0.00003704 [kcal/mol]       0.00015500 [kJ/mol]
      Exch-Disp20 (OS)              0.00001533 [mEh]       0.00000962 [kcal/mol]       0.00004026 [kJ/mol]

  Total HF                          4.78158778 [mEh]       3.00049163 [kcal/mol]      12.55405698 [kJ/mol]
  Total SAPT0                       4.50229584 [mEh]       2.82523329 [kcal/mol]      11.82077609 [kJ/mol]

  Special recipe for scaled SAPT0 (see Manual):
    Electrostatics sSAPT0           6.61719965 [mEh]       4.15235547 [kcal/mol]      17.37345530 [kJ/mol]
    Exchange sSAPT0                -0.00017249 [mEh]      -0.00010824 [kcal/mol]      -0.00045287 [kJ/mol]
    Induction sSAPT0               -1.83543938 [mEh]      -1.15175560 [kcal/mol]      -4.81894544 [kJ/mol]
    Dispersion sSAPT0              -0.27929194 [mEh]      -0.17525834 [kcal/mol]      -0.73328089 [kJ/mol]
  Total sSAPT0                      4.50229584 [mEh]       2.82523329 [kcal/mol]      11.82077609 [kJ/mol]
  --------------------------------------------------------------------------------------------------------

*** Psi4 exiting successfully. Buy a developer a beer!
