                               Psi4 1.9 release

  ==> Input File <==

--------------------------------------------------------------------------
memory 32 GB # how much memory is available ! Depends on the nodes/cores !

molecule dimer {
# monomer A
-1 1    # Charge and multiplicity
B -1.977592e-04  2.742729e-04 -5.199966
F  1.123153e-16  1.430594e-17 -3.787181
F  1.147860e+00  6.757812e-01 -5.671107
F  1.191806e-02 -1.332011e+00 -5.670905
F -1.159666e+00  6.560735e-01 -5.670826
--
# monomer B
0 1     # Charge and multiplicity
C   1.22531237526482      0.70753866091955      0.00613762728373
C   1.22532433589282     -0.70753852257020     -0.00619318228664
C   -0.00000567409046      1.41496628609039     -0.00672680580738
C   2.45644923379077      1.41832825917820      0.00902448468363
C   0.00001130712078     -1.41497612663474      0.00347275151708
C   -1.22530046906674      0.70754574598412      0.00838914760619
C   2.45643823516184     -1.41832293188077     -0.00843833914343
C   -0.00000085313587      2.83680140328112     -0.00913035594137
C   3.68182717731192      0.70931832800114     -0.00808954934571
C   2.45512052870677      2.83422403348893     -0.00819210630633
C   3.68182158506039     -0.70933346742900      0.00798293467272
C   -1.22531311884624     -0.70752714354401     -0.00512042085974
C   1.22670006104402      3.54346985599427      0.00816696660346
C   0.00000526469929     -2.83678176723568      0.00832091913869
C   -2.45643555300670      1.41831729028492      0.00842454345199
C   2.45512389762097     -2.83422965658853      0.00783102630520
C   -1.22671388474763      3.54346943575023      0.00827029982280
C   4.91451777504333      1.42717324448953     -0.00160886631602
C   3.69315067131765      3.54279566454522     -0.00155906667985
C   -2.45643712022637     -1.41831290883911     -0.00846337726810
C   1.22670532178455     -3.54347386990643     -0.00780316414624
C   -2.45512491866593      2.83421703463423     -0.00818572995999
C   4.91452486062398     -1.42718653794377      0.00136387641845
C   1.22142509354026      4.97013443726031      0.00150231067809
C   4.89300870916237      2.82518837202648     -0.00039219795739
C   -1.22669652864725     -3.54347062507680     -0.00753595973677
C   -3.68181849668397      0.70932533873199     -0.00807686886569
C   3.69314758099218     -3.54280096939050      0.00148176697923
C   -1.22143177215231      4.97012866986289      0.00168580605083
C   6.13477145276790      0.68054831910577     -0.00083909176631
C   3.65678936045204      4.97295361556775     -0.00065042889723
C   -2.45512642789169     -2.83421472106065      0.00758666850712
C   -3.68181869921921     -0.70932533146830      0.00810055625144
C   4.89301309775526     -2.82519973363176      0.00021895393805
C   -0.00000059327114      5.65044773803267      0.00045449734393
C   6.13477559217374     -0.68055448207492      0.00042622874941
C   2.47813196269732      5.65357712333155      0.00063835075260
C   1.22142288457925     -4.97012668293268     -0.00129718634452
C   -3.69316190412301      3.54279732619245     -0.00139355922051
C   -1.22142804110313     -4.97011793159564     -0.00140994817719
C   -4.91452132810043      1.42717581899491     -0.00153192130862
C   3.65678749952045     -4.97295485423912      0.00080007163680
C   -2.47813805026426      5.65357479452875      0.00092287576113
C   -3.69314125872231     -3.54278984697859      0.00136564082345
C   -4.91451200321153     -1.42718062802730      0.00139857359209
C   -0.00000552908399     -5.65043791501335      0.00005899322272
C   -4.89302000425900      2.82518897091939     -0.00040227981744
C   2.47812647313991     -5.65357317188818     -0.00029052915548
C   -3.65679823041642      4.97295655404175     -0.00047374852278
C   -4.89299899901461     -2.82519139505969      0.00006491824035
C   -2.47812801824129     -5.65356579800621     -0.00056571680280
C   -6.13477002348955      0.68054913825639     -0.00086464346868
C   -3.65678835334731     -4.97294365097028      0.00058578382008
C   -6.13476456307132     -0.68055354348201      0.00040575295444
H   5.83528897565761      3.36927626695423      0.00396712770529
H   7.07385965258860      1.22821762089947     -0.00037744837300
H   4.60066374401555      5.51238117445323     -0.00014522814529
H   5.83528386714679     -3.36930568472863     -0.00423551337640
H   -0.00001167146422      6.73853104613662     -0.00389474766392
H   7.07386165167227     -1.22822657074368     -0.00008250934481
H   2.47331421164041      6.74068466339473      0.00017162982210
H   4.60066897122302     -5.51237575717576      0.00039007446835
H   -2.47331820069565      6.74068209160650      0.00047297644710
H   -0.00000978838621     -6.73852780445195      0.00458867820736
H   -5.83530143450167      3.36927132229595      0.00410314985360
H   2.47330840367253     -6.74068500242887      0.00027980126949
H   -4.60067436136587      5.51237839860371      0.00002010017831
H   -5.83527902699321     -3.36928859177951     -0.00451481925734
H   -2.47329986759855     -6.74067870613986     -0.00016951527498
H   -7.07385728692578      1.22822084484047     -0.00046143985387
H   -4.60067330624313     -5.51236229778631      0.00021776644566
H   -7.07385645456741     -1.22822025997701     -0.00017736581114

    units angstrom      # Angstroms are the default
    no_reorient         # Geometry fixed, default
    symmetry c1         # C1 symmetry, default
}

set {
    scf_type DF         # Density fitting, faster than exact integrals
    freeze_core True    # Freeze core electrons
    basis jun-cc-pVDZ   # Jun-cc-pVDZ basis set, recommended for sSAPT0 in https://doi.org/10.1063/1.4867135
}

energy('ssapt0')        # Compute sSAPT0 energy, includes also SAPT0
--------------------------------------------------------------------------

  //              Dimer HF             //
    Molecular point group: c1
  Charge       = -1
  Multiplicity = 1
  Basis Set: JUN-CC-PVDZ
    Blend: JUN-CC-PVDZ
  Basis Set: (JUN-CC-PVDZ AUX)
    Blend: JUN-CC-PVDZ-JKFIT
  @DF-RHF Final Energy: -2478.66003872024658
    Total Energy =                      -2478.6600387202470301
 Dipole X            :         -0.0004662            0.0000481           -0.0004182
 Dipole Y            :          0.0009506           -0.0001453            0.0008053
 Dipole Z            :        -24.2363702           31.8778899            7.6415197
 Magnitude           :                                                    7.6415197
  //            Monomer A HF           //
    Molecular point group: c1
  Multiplicity = 1
  Basis Set: JUN-CC-PVDZ
    Blend: JUN-CC-PVDZ
  Basis Set: (JUN-CC-PVDZ AUX)
    Blend: JUN-CC-PVDZ-JKFIT
  @DF-RHF Final Energy:  -422.77195640556363
    Total Energy =                       -422.7719564055636283
  //            Monomer B HF           //
    Molecular point group: c1

    Geometry (in Angstrom), charge = 0, multiplicity = 1:

       Center              X                  Y                   Z               Mass
    ------------   -----------------  -----------------  -----------------  -----------------
      Gh(B)          -0.000198161052     0.000273808717    -4.599261515846    11.009305360000
      Gh(F)          -0.000000401852    -0.000000464183    -3.186476515846    18.998403162730
      Gh(F)           1.147859598148     0.675780735817    -5.070402515846    18.998403162730
      Gh(F)           0.011917658148    -1.332011464183    -5.070200515846    18.998403162730
      Gh(F)          -1.159666401852     0.656073035817    -5.070121515846    18.998403162730
         C            1.225311973413     0.707538196736     0.606842111438    12.000000000000
         C            1.225323934041    -0.707538986754     0.594511301867    12.000000000000
         C           -0.000006075942     1.414965821907     0.593977678347    12.000000000000
         C            2.456448831939     1.418327794995     0.609728968838    12.000000000000
         C            0.000010905269    -1.414976590818     0.604177235671    12.000000000000
         C           -1.225300870919     0.707545281801     0.609093631760    12.000000000000
         C            2.456437833310    -1.418323396064     0.592266145011    12.000000000000
         C           -0.000001254988     2.836800939098     0.591574128213    12.000000000000
         C            3.681826775460     0.709317863818     0.592614934808    12.000000000000
         C            2.455120126855     2.834223569306     0.592512377848    12.000000000000
         C            3.681821183209    -0.709333931612     0.608687418827    12.000000000000
         C           -1.225313520698    -0.707527607727     0.595584063294    12.000000000000
         C            1.226699659192     3.543469391811     0.608871450757    12.000000000000
         C            0.000004862847    -2.836782231419     0.609025403293    12.000000000000
         C           -2.456435954859     1.418316826102     0.609129027606    12.000000000000
         C            2.455123495769    -2.834230120772     0.608535510459    12.000000000000
         C           -1.226714286599     3.543468971567     0.608974783977    12.000000000000
         C            4.914517373191     1.427172780306     0.599095617838    12.000000000000
         C            3.693150269466     3.542795200362     0.599145417474    12.000000000000
         C           -2.456437522078    -1.418313373022     0.592241106886    12.000000000000
         C            1.226704919933    -3.543474334090     0.592901320008    12.000000000000
         C           -2.455125320518     2.834216570451     0.592518754194    12.000000000000
         C            4.914524458772    -1.427187002127     0.602068360572    12.000000000000
         C            1.221424691688     4.970133973077     0.602206794832    12.000000000000
         C            4.893008307311     2.825187907843     0.600312286197    12.000000000000
         C           -1.226696930499    -3.543471089260     0.593168524417    12.000000000000
         C           -3.681818898536     0.709324874549     0.592627615288    12.000000000000
         C            3.693147179140    -3.542801433574     0.602186251133    12.000000000000
         C           -1.221432174004     4.970128205680     0.602390290205    12.000000000000
         C            6.134771050916     0.680547854922     0.599865392388    12.000000000000
         C            3.656788958600     4.972953151384     0.600054055257    12.000000000000
         C           -2.455126829744    -2.834215185244     0.608291152661    12.000000000000
         C           -3.681819101071    -0.709325795652     0.608805040405    12.000000000000
         C            4.893012695903    -2.825200197815     0.600923438092    12.000000000000
         C           -0.000000995123     5.650447273849     0.601158981498    12.000000000000
         C            6.134775190322    -0.680554946258     0.601130712903    12.000000000000
         C            2.478131560845     5.653576659148     0.601342834907    12.000000000000
         C            1.221422482727    -4.970127147116     0.599407297809    12.000000000000
         C           -3.693162305975     3.542796862009     0.599310924934    12.000000000000
         C           -1.221428442955    -4.970118395779     0.599294535977    12.000000000000
         C           -4.914521729952     1.427175354812     0.599172562845    12.000000000000
         C            3.656787097669    -4.972955318422     0.601504555791    12.000000000000
         C           -2.478138452116     5.653574330345     0.601627359915    12.000000000000
         C           -3.693141660574    -3.542790311162     0.602070124977    12.000000000000
         C           -4.914512405063    -1.427181092211     0.602103057746    12.000000000000
         C           -0.000005930936    -5.650438379197     0.600763477377    12.000000000000
         C           -4.893020406111     2.825188506736     0.600302204337    12.000000000000
         C            2.478126071288    -5.653573636072     0.600413954999    12.000000000000
         C           -3.656798632268     4.972956089858     0.600230735631    12.000000000000
         C           -4.892999400866    -2.825191859243     0.600769402394    12.000000000000
         C           -2.478128420093    -5.653566262190     0.600138767351    12.000000000000
         C           -6.134770425341     0.680548674073     0.599839840685    12.000000000000
         C           -3.656788755199    -4.972944115154     0.601290267974    12.000000000000
         C           -6.134764964923    -0.680554007665     0.601110237108    12.000000000000
         H            5.835288573806     3.369275802771     0.604671611859     1.007825032230
         H            7.073859250737     1.228217156716     0.600327035781     1.007825032230
         H            4.600663342164     5.512380710270     0.600559256009     1.007825032230
         H            5.835283465295    -3.369306148912     0.596468970778     1.007825032230
         H           -0.000012073316     6.738530581953     0.596809736490     1.007825032230
         H            7.073861249820    -1.228227034927     0.600621974809     1.007825032230
         H            2.473313809789     6.740684199211     0.600876113976     1.007825032230
         H            4.600668569371    -5.512376221359     0.601094558622     1.007825032230
         H           -2.473318602548     6.740681627423     0.601177460601     1.007825032230
         H           -0.000010190238    -6.738528268635     0.605293162361     1.007825032230
         H           -5.835301836354     3.369270858113     0.604807634008     1.007825032230
         H            2.473308001821    -6.740685466612     0.600984285424     1.007825032230
         H           -4.600674763218     5.512377934420     0.600724584332     1.007825032230
         H           -5.835279428845    -3.369289055963     0.596189664897     1.007825032230
         H           -2.473300269450    -6.740679170323     0.600534968879     1.007825032230
         H           -7.073857688778     1.228220380657     0.600243044300     1.007825032230
         H           -4.600673708095    -5.512362761970     0.600922250600     1.007825032230
         H           -7.073856856419    -1.228220724160     0.600527118343     1.007825032230

  Charge       = 0
  Multiplicity = 1
  Basis Set: JUN-CC-PVDZ
    Blend: JUN-CC-PVDZ
  Basis Set: (JUN-CC-PVDZ AUX)
    Blend: JUN-CC-PVDZ-JKFIT

    Orbital Energies [Eh]
    ---------------------

    Doubly Occupied:

       1A    -11.260690     2A    -11.260239     3A    -11.260236
       4A    -11.259484     5A    -11.259483     6A    -11.259293
       7A    -11.259069     8A    -11.258997     9A    -11.258995
      10A    -11.258691    11A    -11.258688    12A    -11.258598
      13A    -11.258540    14A    -11.258537    15A    -11.258534
      16A    -11.258501    17A    -11.258495    18A    -11.258479
      19A    -11.258465    20A    -11.258460    21A    -11.258455
      22A    -11.258377    23A    -11.258373    24A    -11.258112
      25A    -11.257382    26A    -11.257320    27A    -11.257319
      28A    -11.257183    29A    -11.257183    30A    -11.257098
      31A    -11.256474    32A    -11.256404    33A    -11.256403
      34A    -11.256294    35A    -11.256293    36A    -11.256246
      37A    -11.252349    38A    -11.252349    39A    -11.252347
      40A    -11.252346    41A    -11.252343    42A    -11.252342
      43A    -11.251466    44A    -11.251464    45A    -11.251462
      46A    -11.251456    47A    -11.251456    48A    -11.251452
      49A    -11.250911    50A    -11.250910    51A    -11.250908
      52A    -11.250906    53A    -11.250904    54A    -11.250903
      55A     -1.244148    56A     -1.219911    57A     -1.219910
      58A     -1.189638    59A     -1.189631    60A     -1.181019
      61A     -1.157653    62A     -1.149074    63A     -1.135573
      64A     -1.135566    65A     -1.113284    66A     -1.113280
      67A     -1.082523    68A     -1.082516    69A     -1.078684
      70A     -1.066069    71A     -1.066066    72A     -1.039496
      73A     -1.024373    74A     -1.021847    75A     -1.021803
      76A     -1.017820    77A     -1.012879    78A     -0.987117
      79A     -0.987072    80A     -0.961966    81A     -0.961916
      82A     -0.894382    83A     -0.894355    84A     -0.888021
      85A     -0.886271    86A     -0.886213    87A     -0.881495
      88A     -0.881447    89A     -0.861990    90A     -0.837493
      91A     -0.818308    92A     -0.816705    93A     -0.812225
      94A     -0.812216    95A     -0.794777    96A     -0.794766
      97A     -0.746723    98A     -0.744946    99A     -0.733499
     100A     -0.733490   101A     -0.732273   102A     -0.732249
     103A     -0.716583   104A     -0.699066   105A     -0.699055
     106A     -0.693677   107A     -0.693661   108A     -0.661321
     109A     -0.653181   110A     -0.651248   111A     -0.650337
     112A     -0.650331   113A     -0.639454   114A     -0.639451
     115A     -0.629805   116A     -0.627613   117A     -0.627598
     118A     -0.606495   119A     -0.605883   120A     -0.601756
     121A     -0.599832   122A     -0.599800   123A     -0.593736
     124A     -0.591307   125A     -0.591296   126A     -0.585360
     127A     -0.576400   128A     -0.576395   129A     -0.567409
     130A     -0.567394   131A     -0.566036   132A     -0.566017
     133A     -0.558808   134A     -0.554930   135A     -0.554923
     136A     -0.538681   137A     -0.538679   138A     -0.538232
     139A     -0.538226   140A     -0.529810   141A     -0.528219
     142A     -0.522961   143A     -0.522955   144A     -0.500594
     145A     -0.495664   146A     -0.493326   147A     -0.487894
     148A     -0.485171   149A     -0.481849   150A     -0.481841
     151A     -0.470400   152A     -0.470382   153A     -0.451111
     154A     -0.451033   155A     -0.439137   156A     -0.439128
     157A     -0.404799   158A     -0.404776   159A     -0.403450
     160A     -0.375487   161A     -0.375484   162A     -0.349190
     163A     -0.337640   164A     -0.336627   165A     -0.336570
     166A     -0.311163   167A     -0.298167   168A     -0.284406
     169A     -0.284352   170A     -0.224987   171A     -0.224922

  @DF-RHF Final Energy: -2055.89270416993077

   => Energetics <=

    Nuclear Repulsion Energy =           6452.5568002797772351
    One-Electron Energy =              -15636.4553367300086393
    Two-Electron Energy =                7128.0058322803006376
    Total Energy =                      -2055.8927041699307665
 Dipole X            :          0.0000320            0.0000419            0.0000739
 Dipole Y            :          0.0000444           -0.0000426            0.0000019
 Dipole Z            :       -388.2235542          388.2256565            0.0021022
 Magnitude           :                                                    0.0021035

    SAPT Results
  --------------------------------------------------------------------------------------------------------
    Electrostatics                 10.62411539 [mEh]       6.66673306 [kcal/mol]      27.89361112 [kJ/mol]
      Elst10,r                     10.62411539 [mEh]       6.66673306 [kcal/mol]      27.89361112 [kJ/mol]

    Exchange                        0.21905565 [mEh]       0.13745949 [kcal/mol]       0.57513052 [kJ/mol]
      Exch10                        0.21905565 [mEh]       0.13745949 [kcal/mol]       0.57513052 [kJ/mol]
      Exch10(S^2)                   0.21907216 [mEh]       0.13746986 [kcal/mol]       0.57517389 [kJ/mol]

    Induction                      -6.22131579 [mEh]      -3.90393460 [kcal/mol]     -16.33406235 [kJ/mol]
      Ind20,r                      -6.30862613 [mEh]      -3.95872266 [kcal/mol]     -16.56329562 [kJ/mol]
      Exch-Ind20,r                  0.03229285 [mEh]       0.02026407 [kcal/mol]       0.08478487 [kJ/mol]
      delta HF,r (2)                0.05501749 [mEh]       0.03452400 [kcal/mol]       0.14444840 [kJ/mol]

    Dispersion                     -2.14484727 [mEh]      -1.34591198 [kcal/mol]      -5.63129574 [kJ/mol]
      Disp20                       -2.19382971 [mEh]      -1.37664893 [kcal/mol]      -5.75989911 [kJ/mol]
      Exch-Disp20                   0.04898244 [mEh]       0.03073694 [kcal/mol]       0.12860337 [kJ/mol]
      Disp20 (SS)                  -1.09691486 [mEh]      -0.68832446 [kcal/mol]      -2.87994956 [kJ/mol]
      Disp20 (OS)                  -1.09691486 [mEh]      -0.68832446 [kcal/mol]      -2.87994956 [kJ/mol]
      Exch-Disp20 (SS)              0.03211433 [mEh]       0.02015205 [kcal/mol]       0.08431616 [kJ/mol]
      Exch-Disp20 (OS)              0.01686811 [mEh]       0.01058490 [kcal/mol]       0.04428721 [kJ/mol]

  Total HF                          4.62185525 [mEh]       2.90025795 [kcal/mol]      12.13467928 [kJ/mol]
  Total SAPT0                       2.47700797 [mEh]       1.55434597 [kcal/mol]       6.50338354 [kJ/mol]

  Special recipe for scaled SAPT0 (see Manual):
    Electrostatics sSAPT0          10.62411539 [mEh]       6.66673306 [kcal/mol]      27.89361112 [kJ/mol]
    Exchange sSAPT0                 0.21905565 [mEh]       0.13745949 [kcal/mol]       0.57513052 [kJ/mol]
    Induction sSAPT0               -6.22132309 [mEh]      -3.90393918 [kcal/mol]     -16.33408153 [kJ/mol]
    Dispersion sSAPT0              -2.14485835 [mEh]      -1.34591894 [kcal/mol]      -5.63132483 [kJ/mol]
  Total sSAPT0                      2.47698959 [mEh]       1.55433443 [kcal/mol]       6.50333527 [kJ/mol]
  --------------------------------------------------------------------------------------------------------

*** Psi4 exiting successfully. Buy a developer a beer!
