                               Psi4 1.9 release

  ==> Input File <==

--------------------------------------------------------------------------
memory 64 GB # how much memory is available ! Depends on the nodes/cores !

molecule dimer {
# monomer A
+1 1    # Charge and multiplicity
C  0.680067 -0.008042 -7.615929
C -0.680504 -0.006014 -7.615545
N -1.085635 -0.005016 -6.297221
C  0.000108 -0.001740 -5.515820
C -2.477365  0.044390 -5.829242
N  1.085222 -0.005016 -6.297221
H  1.385146 -0.015870 -8.433368
H -1.385302 -0.006204 -8.433214
H -0.000009  0.000007 -4.434731
C  2.478117 -0.021908 -5.832123
H  2.490592  0.005437 -4.741870
H  2.967028 -0.935354 -6.179299
H  3.001428  0.853575 -6.223595
H -2.857359  1.066461 -5.909201
H -3.082679 -0.625694 -6.442306
H -2.518128 -0.282594 -4.789294
--
# monomer B
0 1     # Charge and multiplicity
C   -3.66844126402057      7.80375217008252      0.00190004133558
C   -4.84759871934653      7.13124183134024     -0.00046653359696
C   -4.89495929917518      5.69633040353158     -0.00103944469517
C   -3.65374067877320      4.98073034095895      0.00662099703436
C   -2.40942512149445      7.11398103667468      0.00209438359570
C   -2.42547734410473      5.68112195090346     -0.00491050527438
C   -1.19474401643570      7.78614419430947      0.00356656413763
C   0.03795902893699      7.09942164575698      0.00139585983271
C   0.03033258741920      5.66948955970466     -0.00408752508301
C   -1.20098450790502      4.96927034791531      0.00488220885047
C   1.27795782581485      7.77285944319479      0.00277170839332
C   2.48535808472416      7.08769688523756      0.00049722048857
C   2.48612868491717      5.65477081024076     -0.00644052849921
C   1.25408291964399      4.95607811366431      0.00518741308898
C   3.75171459140595      7.76391215098033      0.00062407186893
C   4.92356605618520      7.07878077698995     -0.00143240883900
C   4.95560727132542      5.64344746336949     -0.00159282164606
C   3.70680153420475      4.94121020833308      0.00349873852374
H   -3.65852113775815      8.89082741913536      0.00358502958574
H   -1.18921332975660      8.87412108735996      0.00753844057883
H   1.28429423888630      8.86083343548850      0.00693053253426
H   3.75354208679975      8.85103527897216      0.00214659618464
H   5.86995870320703      7.61379483465560     -0.00235777588134
H   -5.78823170750226      7.67630221293400     -0.00202638095293
C   -6.09197395869619      4.99326001364347     -0.00291168518608
C   -6.12866148031747      3.58258016879823     -0.00171050815740
C   -3.66457974004527      3.56418217974434     -0.00463560277484
C   -4.89429820469869      2.86108077590057      0.00453338221034
C   -2.43733499489796      2.84761165708481      0.00719617576166
C   -1.20922785759670      3.54788693497833     -0.00648285103018
C   1.24714157216223      3.53468075142962     -0.00729145743546
C   0.01517603956900      2.83311183930540      0.00439272578912
C   2.46764517244071      2.82128997725533      0.00449278391269
C   3.70254947457969      3.52466015442405     -0.00899517692985
C   6.14498038638375      4.92757236613191     -0.00282626685777
C   6.16658835886151      3.51658447594213     -0.00065971342101
C   4.92460995845939      2.80840792535402      0.00587903281610
H   7.08990550964105      5.46688776622306     -0.00658814770723
H   -7.03104175110130      5.54268795285765     -0.00714490013730
C   -7.33969804112295      2.85841153457957     -0.00333767559888
C   -7.36488195805880      1.47032337158330     -0.00157213747140
C   -4.90350460894690      1.44442681216000     -0.00628840166334
C   -6.13225715261081      0.73993935705394      0.00600164231964
C   -3.67687480051673      0.72669714267312      0.00433931473643
C   -2.44565658606518      1.42964113326212     -0.00597039546461
C   -1.22360068130162      0.71532450163492      0.00545886906656
C   0.00763786931376      1.41738314923765      0.00392452278437
C   1.23121980774686      0.70211669058719     -0.01490206287210
C   2.46082110053113      1.40329203612573      0.00460244601878
C   3.68443025419614      0.68719842821222      0.00377365974158
C   4.91870890153864      1.39173456118907     -0.00862816189375
C   7.36980207796101      2.77948220318441     -0.00242013321349
C   7.38016266612146      1.39121750785509     -0.00087345036788
C   6.13979953912259      0.67411862320065      0.00545489144369
H   -8.27919079934664      3.40711804112415     -0.00763522772059
H   8.31511347147953      3.31811809662368     -0.00663070901292
C   -8.59175593758115      0.72483255304480     -0.00123170985383
C   -8.59902460370342     -0.63263980622873      0.00089141472904
C   -6.13981313911873     -0.67413663715361     -0.00609792660607
C   -7.38018411213749     -1.39126618958160      0.00131813493501
C   -4.91868448025621     -1.39175501803000      0.00624257154343
C   -3.68443829568458     -0.68723731573599     -0.00478966852105
C   -2.46081704024768     -1.40334517882457      0.00575341766833
C   -1.23116201232071     -0.70217386488055     -0.00636696112346
C   -0.00756962538737     -1.41741884941102      0.00108956317991
C   1.22364771588843     -0.71527537726392      0.01109518512883
C   2.44567064933149     -1.42964328900682     -0.00065482763106
C   3.67686670284649     -0.72670743155550     -0.00479541202602
C   6.13224884641929     -0.73997883984993     -0.00632338623858
C   4.90351914550401     -1.44445752054090      0.00751768830159
C   8.59901484869081      0.63260386666793     -0.00101133422380
C   8.59174548810050     -0.72485086719319      0.00072504603735
C   7.36486276438985     -1.47033266560598      0.00049486934466
H   -9.52830597181814      1.27684744919284     -0.00270163681798
H   9.54141097460619      1.17457248844457     -0.00206336648518
C   -7.36983790976868     -2.77954514593389      0.00312634335708
C   -4.92459910905015     -2.80843725734101     -0.00460528907921
C   -6.16662249566744     -3.51665219282533      0.00169655107992
C   -3.70251035970491     -3.52468154912026      0.00571878010666
C   -2.46764698511392     -2.82132596280400     -0.00632585824990
C   -0.01513347410770     -2.83314164539971     -0.00604426974092
C   -1.24712184122656     -3.53473217556300      0.00551968366725
C   1.20924506964357     -3.54791467864352      0.00805871345849
C   2.43733602215464     -2.84764173817541     -0.00608104485234
C   4.89430234377080     -2.86112296828604     -0.00526030478103
C   3.66461525504104     -3.56421984553201      0.00761911515957
C   6.12863901474565     -3.58258405771778      0.00096495711699
C   7.33967266469532     -2.85841330737039      0.00248018319869
H   -9.54144911125902     -1.17456346666430      0.00226083090216
H   9.52826186807155     -1.27691907390448      0.00197485379837
H   -8.31516504384864     -3.31814985321231      0.00729857188773
H   8.27915514249207     -3.40714078989363      0.00681973918158
C   -6.14499418870218     -4.92764727278338      0.00302254913999
C   -3.70678334799751     -4.94126171411716     -0.00679841894792
C   -4.95559005800169     -5.64349397349412      0.00116871569699
C   -2.48612132622665     -5.65478557440947      0.00614125209662
C   -1.25405833548005     -4.95612205000132     -0.00503435388927
C   1.20101257386816     -4.96928038819302     -0.00385322963129
C   -0.03033667441341     -5.66952030313900      0.00398997003238
C   3.65375010132847     -4.98074377541453     -0.00309522988330
C   2.42549269587528     -5.68117463552727      0.00628170066869
C   6.09196561781097     -4.99325796338655      0.00325918379042
C   4.89497644461045     -5.69634842095790      0.00202298796027
H   -7.08989238804069     -5.46699984223871      0.00742531082125
H   7.03105520920009     -5.54265853633254      0.00683896355417
C   -4.92354532219813     -7.07882109967734      0.00061394679214
C   -2.48534208823777     -7.08772807792913     -0.00189594564379
C   -3.75168589177895     -7.76394715763627     -0.00170126671874
C   -0.03794895698805     -7.09946487446944     -0.00168022049625
C   -1.27795610040136     -7.77290438466689     -0.00366491325785
C   2.40944432072629     -7.11402201200282     -0.00081701968533
C   1.19474993715296     -7.78618536556242     -0.00296931056689
C   4.84762105249800     -7.13126211057943      0.00168979497423
C   3.66847160587561     -7.80378799294376     -0.00065863938960
H   -5.86994035041618     -7.61383059804164      0.00215798365757
H   5.78824962538815     -7.67633218931421      0.00281691445618
H   -3.75352693944918     -8.85107156923607     -0.00353718114765
H   -1.28430440589466     -8.86087539249706     -0.00809229711623
H   1.18922157469537     -8.87416062058945     -0.00706194725726
H   3.65854661482387     -8.89086063405326     -0.00231318081200

    units angstrom      # Angstroms are the default
    no_reorient         # Geometry fixed, default
    symmetry c1         # C1 symmetry, default
}

set {
    scf_type DF         # Density fitting, faster than exact integrals
    freeze_core True    # Freeze core electrons
    basis jun-cc-pVDZ   # Jun-cc-pVDZ basis set, recommended for sSAPT0 in https://doi.org/10.1063/1.4867135
}

energy('ssapt0')        # Compute sSAPT0 energy, includes also SAPT0
--------------------------------------------------------------------------

  //              Dimer HF             //
    Molecular point group: c1
  Charge       = 1
  Multiplicity = 1
  Basis Set: JUN-CC-PVDZ
    Blend: JUN-CC-PVDZ
  Basis Set: (JUN-CC-PVDZ AUX)
    Blend: JUN-CC-PVDZ-JKFIT
  @DF-RHF Final Energy: -3953.65024837527244
    Total Energy =                      -3953.6502483752738044
 Dipole X            :         -0.0024302            0.0004804           -0.0019498
 Dipole Y            :         -0.0498529            0.0561130            0.0062601
 Dipole Z            :         27.4872519          -36.9822915           -9.4950395
 Magnitude           :                                                    9.4950418
  //            Monomer A HF           //
    Molecular point group: c1
  Multiplicity = 1
  Basis Set: JUN-CC-PVDZ
    Blend: JUN-CC-PVDZ
  Basis Set: (JUN-CC-PVDZ AUX)
    Blend: JUN-CC-PVDZ-JKFIT
  @DF-RHF Final Energy:  -303.29736589576999
    Total Energy =                       -303.2973658957699854
  //            Monomer B HF           //
    Molecular point group: c1

    Geometry (in Angstrom), charge = 0, multiplicity = 1:

       Center              X                  Y                   Z               Mass
    ------------   -----------------  -----------------  -----------------  -----------------
      Gh(C)           0.680062820275    -0.008027535675    -7.127984214047    12.000000000000
      Gh(C)          -0.680508179725    -0.005999535675    -7.127600214047    12.000000000000
      Gh(N)          -1.085639179725    -0.005001535675    -5.809276214047    14.003074004430
      Gh(C)           0.000103820275    -0.001725535675    -5.027875214047    12.000000000000
      Gh(C)          -2.477369179725     0.044404464325    -5.341297214047    12.000000000000
      Gh(N)           1.085217820275    -0.005001535675    -5.809276214047    14.003074004430
      Gh(H)           1.385141820275    -0.015855535675    -7.945423214047     1.007825032230
      Gh(H)          -1.385306179725    -0.006189535675    -7.945269214047     1.007825032230
      Gh(H)          -0.000013179725     0.000021464325    -3.946786214047     1.007825032230
      Gh(C)           2.478112820275    -0.021893535675    -5.344178214047    12.000000000000
      Gh(H)           2.490587820275     0.005451464325    -4.253925214047     1.007825032230
      Gh(H)           2.967023820275    -0.935339535675    -5.691354214047     1.007825032230
      Gh(H)           3.001423820275     0.853589464325    -5.735650214047     1.007825032230
      Gh(H)          -2.857363179725     1.066475464325    -5.421256214047     1.007825032230
      Gh(H)          -3.082683179725    -0.625679535675    -5.954361214047     1.007825032230
      Gh(H)          -2.518132179725    -0.282579535675    -4.301349214047     1.007825032230
         C           -3.668445443746     7.803766634408     0.489844827289    12.000000000000
         C           -4.847602899072     7.131256295665     0.487478252356    12.000000000000
         C           -4.894963478901     5.696344867857     0.486905341258    12.000000000000
         C           -3.653744858499     4.980744805284     0.494565782987    12.000000000000
         C           -2.409429301220     7.113995501000     0.490039169549    12.000000000000
         C           -2.425481523830     5.681136415228     0.483034280679    12.000000000000
         C           -1.194748196161     7.786158658634     0.491511350091    12.000000000000
         C            0.037954849212     7.099436110082     0.489340645786    12.000000000000
         C            0.030328407694     5.669504024030     0.483857260870    12.000000000000
         C           -1.200988687630     4.969284812240     0.492826994804    12.000000000000
         C            1.277953646089     7.772873907520     0.490716494346    12.000000000000
         C            2.485353904999     7.087711349563     0.488442006442    12.000000000000
         C            2.486124505192     5.654785274566     0.481504257454    12.000000000000
         C            1.254078739919     4.956092577989     0.493132199042    12.000000000000
         C            3.751710411681     7.763926615305     0.488568857822    12.000000000000
         C            4.923561876460     7.078795241315     0.486512377114    12.000000000000
         C            4.955603091600     5.643461927694     0.486351964307    12.000000000000
         C            3.706797354479     4.941224672658     0.491443524477    12.000000000000
         H           -3.658525317484     8.890841883460     0.491529815539     1.007825032230
         H           -1.189217509482     8.874135551685     0.495483226532     1.007825032230
         H            1.284290059161     8.860847899813     0.494875318487     1.007825032230
         H            3.753537907074     8.851049743297     0.490091382138     1.007825032230
         H            5.869954523482     7.613809298981     0.485587010072     1.007825032230
         H           -5.788235887228     7.676316677259     0.485918405000     1.007825032230
         C           -6.091978138422     4.993274477968     0.485033100767    12.000000000000
         C           -6.128665660043     3.582594633123     0.486234277796    12.000000000000
         C           -3.664583919771     3.564196644069     0.483309183178    12.000000000000
         C           -4.894302384424     2.861095240226     0.492478168163    12.000000000000
         C           -2.437339174623     2.847626121410     0.495140961715    12.000000000000
         C           -1.209232037322     3.547901399303     0.481461934923    12.000000000000
         C            1.247137392437     3.534695215755     0.480653328518    12.000000000000
         C            0.015171859844     2.833126303630     0.492337511742    12.000000000000
         C            2.467640992715     2.821304441580     0.492437569866    12.000000000000
         C            3.702545294854     3.524674618749     0.478949609023    12.000000000000
         C            6.144976206658     4.927586830457     0.485118519095    12.000000000000
         C            6.166584179136     3.516598940267     0.487285072532    12.000000000000
         C            4.924605778734     2.808422389679     0.493823818769    12.000000000000
         H            7.089901329916     5.466902230548     0.481356638246     1.007825032230
         H           -7.031045930827     5.542702417183     0.480799885816     1.007825032230
         C           -7.339702220848     2.858425998905     0.484607110354    12.000000000000
         C           -7.364886137784     1.470337835908     0.486372648482    12.000000000000
         C           -4.903508788672     1.444441276485     0.481656384290    12.000000000000
         C           -6.132261332336     0.739953821379     0.493946428273    12.000000000000
         C           -3.676878980242     0.726711606998     0.492284100690    12.000000000000
         C           -2.445660765791     1.429655597587     0.481974390489    12.000000000000
         C           -1.223604861027     0.715338965960     0.493403655020    12.000000000000
         C            0.007633689588     1.417397613563     0.491869308737    12.000000000000
         C            1.231215628021     0.702131154912     0.473042723081    12.000000000000
         C            2.460816920806     1.403306500451     0.492547231972    12.000000000000
         C            3.684426074471     0.687212892537     0.491718445695    12.000000000000
         C            4.918704721813     1.391749025514     0.479316624059    12.000000000000
         C            7.369797898236     2.779496667509     0.485524652740    12.000000000000
         C            7.380158486396     1.391231972180     0.487071335585    12.000000000000
         C            6.139795359397     0.674133087526     0.493399677397    12.000000000000
         H           -8.279194979072     3.407132505449     0.480309558233     1.007825032230
         H            8.315109291754     3.318132560949     0.481314076940     1.007825032230
         C           -8.591760117307     0.724847017370     0.486713076099    12.000000000000
         C           -8.599028783429    -0.632625341904     0.488836200682    12.000000000000
         C           -6.139817318844    -0.674122172829     0.481846859347    12.000000000000
         C           -7.380188291863    -1.391251725257     0.489262920888    12.000000000000
         C           -4.918688659982    -1.391740553705     0.494187357497    12.000000000000
         C           -3.684442475410    -0.687222851411     0.483155117432    12.000000000000
         C           -2.460821219973    -1.403330714500     0.493698203621    12.000000000000
         C           -1.231166192046    -0.702159400556     0.481577824830    12.000000000000
         C           -0.007573805113    -1.417404385086     0.489034349133    12.000000000000
         C            1.223643536163    -0.715260912939     0.499039971082    12.000000000000
         C            2.445666469606    -1.429628824682     0.487289958322    12.000000000000
         C            3.676862523121    -0.726692967231     0.483149373927    12.000000000000
         C            6.132244666694    -0.739964375525     0.481621399715    12.000000000000
         C            4.903514965779    -1.444443056216     0.495462474255    12.000000000000
         C            8.599010668965     0.632618330993     0.486933451729    12.000000000000
         C            8.591741308375    -0.724836402868     0.488669831990    12.000000000000
         C            7.364858584664    -1.470318201281     0.488439655298    12.000000000000
         H           -9.528310151544     1.276861913518     0.485243149135     1.007825032230
         H            9.541406794881     1.174586952770     0.485881419468     1.007825032230
         C           -7.369842089494    -2.779530681609     0.491071129310    12.000000000000
         C           -4.924603288776    -2.808422793016     0.483339496874    12.000000000000
         C           -6.166626675393    -3.516637728500     0.489641337033    12.000000000000
         C           -3.702514539430    -3.524667084795     0.493663566060    12.000000000000
         C           -2.467651164839    -2.821311498479     0.481618927703    12.000000000000
         C           -0.015137653833    -2.833127181075     0.481900516212    12.000000000000
         C           -1.247126020952    -3.534717711238     0.493464469620    12.000000000000
         C            1.209240889918    -3.547900214319     0.496003499412    12.000000000000
         C            2.437331842429    -2.847627273850     0.481863741101    12.000000000000
         C            4.894298164045    -2.861108503961     0.482684481172    12.000000000000
         C            3.664611075316    -3.564205381207     0.495563901113    12.000000000000
         C            6.128634835020    -3.582569593393     0.488909743070    12.000000000000
         C            7.339668484970    -2.858398843045     0.490424969152    12.000000000000
         H           -9.541453290984    -1.174549002339     0.490205616855     1.007825032230
         H            9.528257688346    -1.276904609579     0.489919639751     1.007825032230
         H           -8.315169223574    -3.318135388887     0.495243357841     1.007825032230
         H            8.279150962767    -3.407126325569     0.494764525135     1.007825032230
         C           -6.144998368428    -4.927632808458     0.490967335093    12.000000000000
         C           -3.706787527723    -4.941247249792     0.481146367005    12.000000000000
         C           -4.955594237727    -5.643479509169     0.489113501650    12.000000000000
         C           -2.486125505952    -5.654771110084     0.494086038050    12.000000000000
         C           -1.254062515205    -4.956107585676     0.482910432064    12.000000000000
         C            1.201008394143    -4.969265923868     0.484091556322    12.000000000000
         C           -0.030340854139    -5.669505838814     0.491934755985    12.000000000000
         C            3.653745921603    -4.980729311090     0.484849556070    12.000000000000
         C            2.425488516150    -5.681160171202     0.494226486622    12.000000000000
         C            6.091961438086    -4.993243499062     0.491203969744    12.000000000000
         C            4.894972264885    -5.696333956633     0.489967773913    12.000000000000
         H           -7.089896567766    -5.466985377914     0.495370096774     1.007825032230
         H            7.031051029475    -5.542644072008     0.494783749507     1.007825032230
         C           -4.923549501924    -7.078806635352     0.488558732745    12.000000000000
         C           -2.485346267963    -7.087713613604     0.486048840309    12.000000000000
         C           -3.751690071504    -7.763932693311     0.486243519234    12.000000000000
         C           -0.037953136713    -7.099450410144     0.486264565457    12.000000000000
         C           -1.277960280127    -7.772889920342     0.484279872695    12.000000000000
         C            2.409440141001    -7.114007547678     0.487127766268    12.000000000000
         C            1.194745757428    -7.786170901237     0.484975475386    12.000000000000
         C            4.847616872773    -7.131247646254     0.489634580927    12.000000000000
         C            3.668467426150    -7.803773528619     0.487286146564    12.000000000000
         H           -5.869944530142    -7.613816133717     0.490102769611     1.007825032230
         H            5.788245445663    -7.676317724989     0.490761700409     1.007825032230
         H           -3.753531119175    -8.851057104911     0.484407604805     1.007825032230
         H           -1.284308585620    -8.860860928172     0.479852488837     1.007825032230
         H            1.189217394970    -8.874146156264     0.480882838696     1.007825032230
         H            3.658542435098    -8.890846169728     0.485631605141     1.007825032230

  Charge       = 0
  Multiplicity = 1
  Basis Set: JUN-CC-PVDZ
    Blend: JUN-CC-PVDZ
  Basis Set: (JUN-CC-PVDZ AUX)
    Blend: JUN-CC-PVDZ-JKFIT

    Orbital Energies [Eh]
    ---------------------

    Doubly Occupied:

       1A    -11.264021     2A    -11.263702     3A    -11.263699
       4A    -11.263352     5A    -11.263349     6A    -11.263315
       7A    -11.263158     8A    -11.263135     9A    -11.263132
      10A    -11.262967    11A    -11.262810    12A    -11.262807
      13A    -11.262327    14A    -11.262325    15A    -11.262256
      16A    -11.262255    17A    -11.262199    18A    -11.262168
      19A    -11.262123    20A    -11.262086    21A    -11.262083
      22A    -11.261936    23A    -11.261929    24A    -11.261810
      25A    -11.261799    26A    -11.261781    27A    -11.261777
      28A    -11.261732    29A    -11.261722    30A    -11.261647
      31A    -11.261622    32A    -11.261617    33A    -11.261591
      34A    -11.261590    35A    -11.261569    36A    -11.261528
      37A    -11.261388    38A    -11.261378    39A    -11.261372
      40A    -11.261367    41A    -11.261359    42A    -11.261351
      43A    -11.261344    44A    -11.261329    45A    -11.261325
      46A    -11.261303    47A    -11.261297    48A    -11.261294
      49A    -11.261133    50A    -11.261101    51A    -11.261098
      52A    -11.261017    53A    -11.261016    54A    -11.260946
      55A    -11.259984    56A    -11.259972    57A    -11.259967
      58A    -11.259940    59A    -11.259936    60A    -11.259921
      61A    -11.259359    62A    -11.259335    63A    -11.259330
      64A    -11.259280    65A    -11.259275    66A    -11.259247
      67A    -11.258988    68A    -11.258971    69A    -11.258968
      70A    -11.258941    71A    -11.258937    72A    -11.258927
      73A    -11.254571    74A    -11.254569    75A    -11.254565
      76A    -11.254564    77A    -11.254560    78A    -11.254554
      79A    -11.253713    80A    -11.253712    81A    -11.253710
      82A    -11.253707    83A    -11.253705    84A    -11.253698
      85A    -11.253629    86A    -11.253628    87A    -11.253625
      88A    -11.253623    89A    -11.253621    90A    -11.253614
      91A    -11.253098    92A    -11.253097    93A    -11.253093
      94A    -11.253092    95A    -11.253088    96A    -11.253082
      97A     -1.254067    98A     -1.239096    99A     -1.239086
     100A     -1.220545   101A     -1.220537   102A     -1.215552
     103A     -1.201111   104A     -1.195678   105A     -1.188247
     106A     -1.188240   107A     -1.173831   108A     -1.173829
     109A     -1.155722   110A     -1.155719   111A     -1.152823
     112A     -1.144786   113A     -1.144784   114A     -1.128652
     115A     -1.114805   116A     -1.113228   117A     -1.112586
     118A     -1.112569   119A     -1.111679   120A     -1.088513
     121A     -1.088497   122A     -1.077025   123A     -1.077023
     124A     -1.067705   125A     -1.067673   126A     -1.065070
     127A     -1.046878   128A     -1.046868   129A     -1.040562
     130A     -1.038798   131A     -1.038796   132A     -1.025336
     133A     -1.021500   134A     -1.021445   135A     -1.007251
     136A     -1.006889   137A     -1.003869   138A     -1.000582
     139A     -1.000531   140A     -0.991134   141A     -0.971075
     142A     -0.971025   143A     -0.955953   144A     -0.955896
     145A     -0.905698   146A     -0.905659   147A     -0.905608
     148A     -0.905566   149A     -0.904450   150A     -0.892470
     151A     -0.892413   152A     -0.890461   153A     -0.890404
     154A     -0.889541   155A     -0.872284   156A     -0.869107
     157A     -0.851609   158A     -0.847957   159A     -0.847939
     160A     -0.845693   161A     -0.843102   162A     -0.834639
     163A     -0.834628   164A     -0.828180   165A     -0.828174
     166A     -0.784628   167A     -0.784617   168A     -0.783749
     169A     -0.783725   170A     -0.782370   171A     -0.782350
     172A     -0.782127   173A     -0.767065   174A     -0.760895
     175A     -0.750672   176A     -0.733549   177A     -0.727149
     178A     -0.727128   179A     -0.725165   180A     -0.724616
     181A     -0.724594   182A     -0.718596   183A     -0.713865
     184A     -0.713859   185A     -0.699652   186A     -0.699635
     187A     -0.686229   188A     -0.686022   189A     -0.686017
     190A     -0.682241   191A     -0.682232   192A     -0.678864
     193A     -0.653701   194A     -0.650949   195A     -0.650918
     196A     -0.649907   197A     -0.649896   198A     -0.649629
     199A     -0.641031   200A     -0.640997   201A     -0.640153
     202A     -0.639221   203A     -0.636108   204A     -0.636081
     205A     -0.629215   206A     -0.617741   207A     -0.615366
     208A     -0.615343   209A     -0.608871   210A     -0.608865
     211A     -0.599152   212A     -0.599143   213A     -0.598823
     214A     -0.598687   215A     -0.598670   216A     -0.598136
     217A     -0.595130   218A     -0.595118   219A     -0.594795
     220A     -0.594336   221A     -0.592037   222A     -0.592034
     223A     -0.587493   224A     -0.577847   225A     -0.577834
     226A     -0.575715   227A     -0.575706   228A     -0.573447
     229A     -0.569594   230A     -0.568237   231A     -0.568213
     232A     -0.566829   233A     -0.566820   234A     -0.560965
     235A     -0.558805   236A     -0.558778   237A     -0.558480
     238A     -0.554441   239A     -0.550606   240A     -0.547524
     241A     -0.544310   242A     -0.535014   243A     -0.534997
     244A     -0.533607   245A     -0.533586   246A     -0.528140
     247A     -0.528124   248A     -0.527891   249A     -0.517256
     250A     -0.517224   251A     -0.515396   252A     -0.515390
     253A     -0.509702   254A     -0.509687   255A     -0.498093
     256A     -0.496525   257A     -0.496492   258A     -0.493820
     259A     -0.493799   260A     -0.489468   261A     -0.481511
     262A     -0.477458   263A     -0.477456   264A     -0.474059
     265A     -0.469518   266A     -0.466597   267A     -0.466595
     268A     -0.458848   269A     -0.446788   270A     -0.446730
     271A     -0.441065   272A     -0.440800   273A     -0.440769
     274A     -0.434727   275A     -0.433946   276A     -0.407413
     277A     -0.407391   278A     -0.386451   279A     -0.386399
     280A     -0.385768   281A     -0.385768   282A     -0.383800
     283A     -0.354366   284A     -0.354348   285A     -0.350705
     286A     -0.338124   287A     -0.335626   288A     -0.335566
     289A     -0.332749   290A     -0.332746   291A     -0.307123
     292A     -0.301984   293A     -0.301925   294A     -0.300882
     295A     -0.286209   296A     -0.256501   297A     -0.253538
     298A     -0.253490   299A     -0.204299   300A     -0.204213

  @DF-RHF Final Energy: -3650.33846489952066

   => Energetics <=

    Nuclear Repulsion Energy =          15611.4211649754306563
    One-Electron Energy =              -36072.1051559744228143
    Two-Electron Energy =               16810.3455260994742275
    Total Energy =                      -3650.3384648995197495
 Dipole X            :         -0.0009071            0.0002112           -0.0006959
 Dipole Y            :          0.0011900           -0.0013774           -0.0001874
 Dipole Z            :       -553.2435323          553.2525978            0.0090655
 Magnitude           :                                                    0.0090941

    SAPT Results
  --------------------------------------------------------------------------------------------------------
    Electrostatics                 -9.48165809 [mEh]      -5.94983028 [kcal/mol]     -24.89408988 [kJ/mol]
      Elst10,r                     -9.48165809 [mEh]      -5.94983028 [kcal/mol]     -24.89408988 [kJ/mol]

    Exchange                        0.00769584 [mEh]       0.00482922 [kcal/mol]       0.02020544 [kJ/mol]
      Exch10                        0.00769584 [mEh]       0.00482922 [kcal/mol]       0.02020544 [kJ/mol]
      Exch10(S^2)                   0.00769580 [mEh]       0.00482919 [kcal/mol]       0.02020533 [kJ/mol]

    Induction                      -4.94361774 [mEh]      -3.10216696 [kcal/mol]     -12.97946658 [kJ/mol]
      Ind20,r                      -4.81336875 [mEh]      -3.02043449 [kcal/mol]     -12.63749792 [kJ/mol]
      Exch-Ind20,r                  0.00313349 [mEh]       0.00196630 [kcal/mol]       0.00822698 [kJ/mol]
      delta HF,r (2)               -0.13338248 [mEh]      -0.08369877 [kcal/mol]      -0.35019564 [kJ/mol]

    Dispersion                     -2.91416160 [mEh]      -1.82866401 [kcal/mol]      -7.65113022 [kJ/mol]
      Disp20                       -2.91596703 [mEh]      -1.82979694 [kcal/mol]      -7.65587038 [kJ/mol]
      Exch-Disp20                   0.00180543 [mEh]       0.00113293 [kcal/mol]       0.00474016 [kJ/mol]
      Disp20 (SS)                  -1.45798352 [mEh]      -0.91489847 [kcal/mol]      -3.82793519 [kJ/mol]
      Disp20 (OS)                  -1.45798352 [mEh]      -0.91489847 [kcal/mol]      -3.82793519 [kJ/mol]
      Exch-Disp20 (SS)              0.00129938 [mEh]       0.00081537 [kcal/mol]       0.00341152 [kJ/mol]
      Exch-Disp20 (OS)              0.00050605 [mEh]       0.00031755 [kcal/mol]       0.00132865 [kJ/mol]

  Total HF                        -14.41757998 [mEh]      -9.04716803 [kcal/mol]     -37.85335103 [kJ/mol]
  Total SAPT0                     -17.33174158 [mEh]     -10.87583204 [kcal/mol]     -45.50448125 [kJ/mol]

  Special recipe for scaled SAPT0 (see Manual):
    Electrostatics sSAPT0          -9.48165809 [mEh]      -5.94983028 [kcal/mol]     -24.89408988 [kJ/mol]
    Exchange sSAPT0                 0.00769584 [mEh]       0.00482922 [kcal/mol]       0.02020544 [kJ/mol]
    Induction sSAPT0               -4.94361774 [mEh]      -3.10216696 [kcal/mol]     -12.97946658 [kJ/mol]
    Dispersion sSAPT0              -2.91416160 [mEh]      -1.82866401 [kcal/mol]      -7.65113022 [kJ/mol]
  Total sSAPT0                    -17.33174158 [mEh]     -10.87583204 [kcal/mol]     -45.50448125 [kJ/mol]
  --------------------------------------------------------------------------------------------------------

*** Psi4 exiting successfully. Buy a developer a beer!
