                               Psi4 1.9 release

  ==> Input File <==

--------------------------------------------------------------------------
memory 32 GB # how much memory is available ! Depends on the nodes/cores !

molecule dimer {
# monomer A
-1 1    # Charge and multiplicity
B -1.977592e-04  2.742729e-04 -7.799966
F  1.123153e-16  1.430594e-17 -6.387181
F  1.147860e+00  6.757812e-01 -8.271107
F  1.191806e-02 -1.332011e+00 -8.270905
F -1.159666e+00  6.560735e-01 -8.270826
--
# monomer B
0 1     # Charge and multiplicity
C   1.22531237526482      0.70753866091955      0.00613762728373
C   1.22532433589282     -0.70753852257020     -0.00619318228664
C   -0.00000567409046      1.41496628609039     -0.00672680580738
C   2.45644923379077      1.41832825917820      0.00902448468363
C   0.00001130712078     -1.41497612663474      0.00347275151708
C   -1.22530046906674      0.70754574598412      0.00838914760619
C   2.45643823516184     -1.41832293188077     -0.00843833914343
C   -0.00000085313587      2.83680140328112     -0.00913035594137
C   3.68182717731192      0.70931832800114     -0.00808954934571
C   2.45512052870677      2.83422403348893     -0.00819210630633
C   3.68182158506039     -0.70933346742900      0.00798293467272
C   -1.22531311884624     -0.70752714354401     -0.00512042085974
C   1.22670006104402      3.54346985599427      0.00816696660346
C   0.00000526469929     -2.83678176723568      0.00832091913869
C   -2.45643555300670      1.41831729028492      0.00842454345199
C   2.45512389762097     -2.83422965658853      0.00783102630520
C   -1.22671388474763      3.54346943575023      0.00827029982280
C   4.91451777504333      1.42717324448953     -0.00160886631602
C   3.69315067131765      3.54279566454522     -0.00155906667985
C   -2.45643712022637     -1.41831290883911     -0.00846337726810
C   1.22670532178455     -3.54347386990643     -0.00780316414624
C   -2.45512491866593      2.83421703463423     -0.00818572995999
C   4.91452486062398     -1.42718653794377      0.00136387641845
C   1.22142509354026      4.97013443726031      0.00150231067809
C   4.89300870916237      2.82518837202648     -0.00039219795739
C   -1.22669652864725     -3.54347062507680     -0.00753595973677
C   -3.68181849668397      0.70932533873199     -0.00807686886569
C   3.69314758099218     -3.54280096939050      0.00148176697923
C   -1.22143177215231      4.97012866986289      0.00168580605083
C   6.13477145276790      0.68054831910577     -0.00083909176631
C   3.65678936045204      4.97295361556775     -0.00065042889723
C   -2.45512642789169     -2.83421472106065      0.00758666850712
C   -3.68181869921921     -0.70932533146830      0.00810055625144
C   4.89301309775526     -2.82519973363176      0.00021895393805
C   -0.00000059327114      5.65044773803267      0.00045449734393
C   6.13477559217374     -0.68055448207492      0.00042622874941
C   2.47813196269732      5.65357712333155      0.00063835075260
C   1.22142288457925     -4.97012668293268     -0.00129718634452
C   -3.69316190412301      3.54279732619245     -0.00139355922051
C   -1.22142804110313     -4.97011793159564     -0.00140994817719
C   -4.91452132810043      1.42717581899491     -0.00153192130862
C   3.65678749952045     -4.97295485423912      0.00080007163680
C   -2.47813805026426      5.65357479452875      0.00092287576113
C   -3.69314125872231     -3.54278984697859      0.00136564082345
C   -4.91451200321153     -1.42718062802730      0.00139857359209
C   -0.00000552908399     -5.65043791501335      0.00005899322272
C   -4.89302000425900      2.82518897091939     -0.00040227981744
C   2.47812647313991     -5.65357317188818     -0.00029052915548
C   -3.65679823041642      4.97295655404175     -0.00047374852278
C   -4.89299899901461     -2.82519139505969      0.00006491824035
C   -2.47812801824129     -5.65356579800621     -0.00056571680280
C   -6.13477002348955      0.68054913825639     -0.00086464346868
C   -3.65678835334731     -4.97294365097028      0.00058578382008
C   -6.13476456307132     -0.68055354348201      0.00040575295444
H   5.83528897565761      3.36927626695423      0.00396712770529
H   7.07385965258860      1.22821762089947     -0.00037744837300
H   4.60066374401555      5.51238117445323     -0.00014522814529
H   5.83528386714679     -3.36930568472863     -0.00423551337640
H   -0.00001167146422      6.73853104613662     -0.00389474766392
H   7.07386165167227     -1.22822657074368     -0.00008250934481
H   2.47331421164041      6.74068466339473      0.00017162982210
H   4.60066897122302     -5.51237575717576      0.00039007446835
H   -2.47331820069565      6.74068209160650      0.00047297644710
H   -0.00000978838621     -6.73852780445195      0.00458867820736
H   -5.83530143450167      3.36927132229595      0.00410314985360
H   2.47330840367253     -6.74068500242887      0.00027980126949
H   -4.60067436136587      5.51237839860371      0.00002010017831
H   -5.83527902699321     -3.36928859177951     -0.00451481925734
H   -2.47329986759855     -6.74067870613986     -0.00016951527498
H   -7.07385728692578      1.22822084484047     -0.00046143985387
H   -4.60067330624313     -5.51236229778631      0.00021776644566
H   -7.07385645456741     -1.22822025997701     -0.00017736581114

    units angstrom      # Angstroms are the default
    no_reorient         # Geometry fixed, default
    symmetry c1         # C1 symmetry, default
}

set {
    scf_type DF         # Density fitting, faster than exact integrals
    freeze_core True    # Freeze core electrons
    basis jun-cc-pVDZ   # Jun-cc-pVDZ basis set, recommended for sSAPT0 in https://doi.org/10.1063/1.4867135
}

energy('ssapt0')        # Compute sSAPT0 energy, includes also SAPT0
--------------------------------------------------------------------------

  //              Dimer HF             //
    Molecular point group: c1
  Charge       = -1
  Multiplicity = 1
  Basis Set: JUN-CC-PVDZ
    Blend: JUN-CC-PVDZ
  Basis Set: (JUN-CC-PVDZ AUX)
    Blend: JUN-CC-PVDZ-JKFIT
  @DF-RHF Final Energy: -2478.65839924470220
    Total Energy =                      -2478.6583992447012861
 Dipole X            :         -0.0005297            0.0000481           -0.0004816
 Dipole Y            :          0.0010865           -0.0001453            0.0009412
 Dipole Z            :        -35.4529480           47.8167570           12.3638090
 Magnitude           :                                                   12.3638090
  //            Monomer A HF           //
    Molecular point group: c1
  Multiplicity = 1
  Basis Set: JUN-CC-PVDZ
    Blend: JUN-CC-PVDZ
  Basis Set: (JUN-CC-PVDZ AUX)
    Blend: JUN-CC-PVDZ-JKFIT
  @DF-RHF Final Energy:  -422.77143925508130
    Total Energy =                       -422.7714392550813045
  //            Monomer B HF           //
    Molecular point group: c1

    Geometry (in Angstrom), charge = 0, multiplicity = 1:

       Center              X                  Y                   Z               Mass
    ------------   -----------------  -----------------  -----------------  -----------------
      Gh(B)          -0.000198161052     0.000273808717    -6.898910379367    11.009305360000
      Gh(F)          -0.000000401852    -0.000000464183    -5.486125379367    18.998403162730
      Gh(F)           1.147859598148     0.675780735817    -7.370051379367    18.998403162730
      Gh(F)           0.011917658148    -1.332011464183    -7.369849379367    18.998403162730
      Gh(F)          -1.159666401852     0.656073035817    -7.369770379367    18.998403162730
         C            1.225311973413     0.707538196736     0.907193247917    12.000000000000
         C            1.225323934041    -0.707538986754     0.894862438346    12.000000000000
         C           -0.000006075942     1.414965821907     0.894328814826    12.000000000000
         C            2.456448831939     1.418327794995     0.910080105317    12.000000000000
         C            0.000010905269    -1.414976590818     0.904528372150    12.000000000000
         C           -1.225300870919     0.707545281801     0.909444768239    12.000000000000
         C            2.456437833310    -1.418323396064     0.892617281490    12.000000000000
         C           -0.000001254988     2.836800939098     0.891925264692    12.000000000000
         C            3.681826775460     0.709317863818     0.892966071287    12.000000000000
         C            2.455120126855     2.834223569306     0.892863514327    12.000000000000
         C            3.681821183209    -0.709333931612     0.909038555306    12.000000000000
         C           -1.225313520698    -0.707527607727     0.895935199773    12.000000000000
         C            1.226699659192     3.543469391811     0.909222587236    12.000000000000
         C            0.000004862847    -2.836782231419     0.909376539772    12.000000000000
         C           -2.456435954859     1.418316826102     0.909480164085    12.000000000000
         C            2.455123495769    -2.834230120772     0.908886646938    12.000000000000
         C           -1.226714286599     3.543468971567     0.909325920456    12.000000000000
         C            4.914517373191     1.427172780306     0.899446754317    12.000000000000
         C            3.693150269466     3.542795200362     0.899496553953    12.000000000000
         C           -2.456437522078    -1.418313373022     0.892592243365    12.000000000000
         C            1.226704919933    -3.543474334090     0.893252456487    12.000000000000
         C           -2.455125320518     2.834216570451     0.892869890673    12.000000000000
         C            4.914524458772    -1.427187002127     0.902419497051    12.000000000000
         C            1.221424691688     4.970133973077     0.902557931311    12.000000000000
         C            4.893008307311     2.825187907843     0.900663422676    12.000000000000
         C           -1.226696930499    -3.543471089260     0.893519660896    12.000000000000
         C           -3.681818898536     0.709324874549     0.892978751767    12.000000000000
         C            3.693147179140    -3.542801433574     0.902537387612    12.000000000000
         C           -1.221432174004     4.970128205680     0.902741426684    12.000000000000
         C            6.134771050916     0.680547854922     0.900216528867    12.000000000000
         C            3.656788958600     4.972953151384     0.900405191736    12.000000000000
         C           -2.455126829744    -2.834215185244     0.908642289140    12.000000000000
         C           -3.681819101071    -0.709325795652     0.909156176884    12.000000000000
         C            4.893012695903    -2.825200197815     0.901274574571    12.000000000000
         C           -0.000000995123     5.650447273849     0.901510117977    12.000000000000
         C            6.134775190322    -0.680554946258     0.901481849382    12.000000000000
         C            2.478131560845     5.653576659148     0.901693971386    12.000000000000
         C            1.221422482727    -4.970127147116     0.899758434288    12.000000000000
         C           -3.693162305975     3.542796862009     0.899662061412    12.000000000000
         C           -1.221428442955    -4.970118395779     0.899645672456    12.000000000000
         C           -4.914521729952     1.427175354812     0.899523699324    12.000000000000
         C            3.656787097669    -4.972955318422     0.901855692270    12.000000000000
         C           -2.478138452116     5.653574330345     0.901978496394    12.000000000000
         C           -3.693141660574    -3.542790311162     0.902421261456    12.000000000000
         C           -4.914512405063    -1.427181092211     0.902454194225    12.000000000000
         C           -0.000005930936    -5.650438379197     0.901114613856    12.000000000000
         C           -4.893020406111     2.825188506736     0.900653340816    12.000000000000
         C            2.478126071288    -5.653573636072     0.900765091478    12.000000000000
         C           -3.656798632268     4.972956089858     0.900581872110    12.000000000000
         C           -4.892999400866    -2.825191859243     0.901120538873    12.000000000000
         C           -2.478128420093    -5.653566262190     0.900489903830    12.000000000000
         C           -6.134770425341     0.680548674073     0.900190977164    12.000000000000
         C           -3.656788755199    -4.972944115154     0.901641404453    12.000000000000
         C           -6.134764964923    -0.680554007665     0.901461373587    12.000000000000
         H            5.835288573806     3.369275802771     0.905022748338     1.007825032230
         H            7.073859250737     1.228217156716     0.900678172260     1.007825032230
         H            4.600663342164     5.512380710270     0.900910392488     1.007825032230
         H            5.835283465295    -3.369306148912     0.896820107257     1.007825032230
         H           -0.000012073316     6.738530581953     0.897160872969     1.007825032230
         H            7.073861249820    -1.228227034927     0.900973111288     1.007825032230
         H            2.473313809789     6.740684199211     0.901227250455     1.007825032230
         H            4.600668569371    -5.512376221359     0.901445695101     1.007825032230
         H           -2.473318602548     6.740681627423     0.901528597080     1.007825032230
         H           -0.000010190238    -6.738528268635     0.905644298840     1.007825032230
         H           -5.835301836354     3.369270858113     0.905158770487     1.007825032230
         H            2.473308001821    -6.740685466612     0.901335421902     1.007825032230
         H           -4.600674763218     5.512377934420     0.901075720811     1.007825032230
         H           -5.835279428845    -3.369289055963     0.896540801376     1.007825032230
         H           -2.473300269450    -6.740679170323     0.900886105358     1.007825032230
         H           -7.073857688778     1.228220380657     0.900594180779     1.007825032230
         H           -4.600673708095    -5.512362761970     0.901273387079     1.007825032230
         H           -7.073856856419    -1.228220724160     0.900878254822     1.007825032230

  Charge       = 0
  Multiplicity = 1
  Basis Set: JUN-CC-PVDZ
    Blend: JUN-CC-PVDZ
  Basis Set: (JUN-CC-PVDZ AUX)
    Blend: JUN-CC-PVDZ-JKFIT

    Orbital Energies [Eh]
    ---------------------

    Doubly Occupied:

       1A    -11.260678     2A    -11.260235     3A    -11.260233
       4A    -11.259523     5A    -11.259522     6A    -11.259352
       7A    -11.259143     8A    -11.259065     9A    -11.259064
      10A    -11.258740    11A    -11.258736    12A    -11.258667
      13A    -11.258605    14A    -11.258600    15A    -11.258597
      16A    -11.258568    17A    -11.258562    18A    -11.258546
      19A    -11.258533    20A    -11.258528    21A    -11.258522
      22A    -11.258424    23A    -11.258421    24A    -11.258123
      25A    -11.257462    26A    -11.257400    27A    -11.257400
      28A    -11.257265    29A    -11.257264    30A    -11.257180
      31A    -11.256558    32A    -11.256487    33A    -11.256486
      34A    -11.256377    35A    -11.256376    36A    -11.256329
      37A    -11.252403    38A    -11.252402    39A    -11.252401
      40A    -11.252399    41A    -11.252397    42A    -11.252396
      43A    -11.251538    44A    -11.251535    45A    -11.251534
      46A    -11.251528    47A    -11.251528    48A    -11.251523
      49A    -11.250965    50A    -11.250964    51A    -11.250962
      52A    -11.250960    53A    -11.250958    54A    -11.250957
      55A     -1.244301    56A     -1.220019    57A     -1.220018
      58A     -1.189727    59A     -1.189719    60A     -1.181172
      61A     -1.157727    62A     -1.149159    63A     -1.135710
      64A     -1.135703    65A     -1.113360    66A     -1.113356
      67A     -1.082634    68A     -1.082626    69A     -1.078818
      70A     -1.066144    71A     -1.066140    72A     -1.039584
      73A     -1.024495    74A     -1.021999    75A     -1.021956
      76A     -1.017893    77A     -1.012954    78A     -0.987226
      79A     -0.987180    80A     -0.962054    81A     -0.962004
      82A     -0.894473    83A     -0.894446    84A     -0.888171
      85A     -0.886418    86A     -0.886360    87A     -0.881606
      88A     -0.881558    89A     -0.862078    90A     -0.837556
      91A     -0.818396    92A     -0.816837    93A     -0.812345
      94A     -0.812335    95A     -0.794860    96A     -0.794849
      97A     -0.746844    98A     -0.745070    99A     -0.733638
     100A     -0.733629   101A     -0.732358   102A     -0.732335
     103A     -0.716706   104A     -0.699155   105A     -0.699144
     106A     -0.693781   107A     -0.693765   108A     -0.661405
     109A     -0.653339   110A     -0.651385   111A     -0.650422
     112A     -0.650416   113A     -0.639534   114A     -0.639532
     115A     -0.629919   116A     -0.627731   117A     -0.627715
     118A     -0.606460   119A     -0.605938   120A     -0.601872
     121A     -0.599925   122A     -0.599893   123A     -0.593829
     124A     -0.591460   125A     -0.591449   126A     -0.585424
     127A     -0.576420   128A     -0.576414   129A     -0.567483
     130A     -0.567469   131A     -0.566171   132A     -0.566151
     133A     -0.558947   134A     -0.555028   135A     -0.555022
     136A     -0.538765   137A     -0.538763   138A     -0.538292
     139A     -0.538286   140A     -0.529901   141A     -0.528211
     142A     -0.523056   143A     -0.523050   144A     -0.500674
     145A     -0.495722   146A     -0.493412   147A     -0.487951
     148A     -0.485272   149A     -0.481953   150A     -0.481945
     151A     -0.470441   152A     -0.470423   153A     -0.451258
     154A     -0.451179   155A     -0.439193   156A     -0.439183
     157A     -0.404873   158A     -0.404850   159A     -0.403495
     160A     -0.375547   161A     -0.375544   162A     -0.349251
     163A     -0.337719   164A     -0.336687   165A     -0.336630
     166A     -0.311228   167A     -0.298214   168A     -0.284485
     169A     -0.284431   170A     -0.225053   171A     -0.224987

  @DF-RHF Final Energy: -2055.89162437601999

   => Energetics <=

    Nuclear Repulsion Energy =           6452.5568002797772351
    One-Electron Energy =              -15636.4248257867166103
    Two-Electron Energy =                7127.9764011309189300
    Total Energy =                      -2055.8916243760204452
 Dipole X            :          0.0000534            0.0000419            0.0000953
 Dipole Y            :          0.0000282           -0.0000426           -0.0000144
 Dipole Z            :       -582.3378168          582.3384916            0.0006749
 Magnitude           :                                                    0.0006817

    SAPT Results
  --------------------------------------------------------------------------------------------------------
    Electrostatics                  6.34719246 [mEh]       3.98292340 [kcal/mol]      16.66455152 [kJ/mol]
      Elst10,r                      6.34719246 [mEh]       3.98292340 [kcal/mol]      16.66455152 [kJ/mol]

    Exchange                       -0.00013569 [mEh]      -0.00008515 [kcal/mol]      -0.00035626 [kJ/mol]
      Exch10                       -0.00013569 [mEh]      -0.00008515 [kcal/mol]      -0.00035626 [kJ/mol]
      Exch10(S^2)                  -0.00013569 [mEh]      -0.00008515 [kcal/mol]      -0.00035626 [kJ/mol]

    Induction                      -1.68267037 [mEh]      -1.05589160 [kcal/mol]      -4.41785045 [kJ/mol]
      Ind20,r                      -1.69236993 [mEh]      -1.06197817 [kcal/mol]      -4.44331665 [kJ/mol]
      Exch-Ind20,r                  0.00011093 [mEh]       0.00006961 [kcal/mol]       0.00029124 [kJ/mol]
      delta HF,r (2)                0.00958864 [mEh]       0.00601696 [kcal/mol]       0.02517496 [kJ/mol]

    Dispersion                     -0.24361532 [mEh]      -0.15287092 [kcal/mol]      -0.63961194 [kJ/mol]
      Disp20                       -0.24366340 [mEh]      -0.15290109 [kcal/mol]      -0.63973817 [kJ/mol]
      Exch-Disp20                   0.00004808 [mEh]       0.00003017 [kcal/mol]       0.00012623 [kJ/mol]
      Disp20 (SS)                  -0.12183170 [mEh]      -0.07645055 [kcal/mol]      -0.31986909 [kJ/mol]
      Disp20 (OS)                  -0.12183170 [mEh]      -0.07645055 [kcal/mol]      -0.31986909 [kJ/mol]
      Exch-Disp20 (SS)              0.00003836 [mEh]       0.00002407 [kcal/mol]       0.00010073 [kJ/mol]
      Exch-Disp20 (OS)              0.00000972 [mEh]       0.00000610 [kcal/mol]       0.00002551 [kJ/mol]

  Total HF                          4.66438640 [mEh]       2.92694665 [kcal/mol]      12.24634480 [kJ/mol]
  Total SAPT0                       4.42077108 [mEh]       2.77407573 [kcal/mol]      11.60673286 [kJ/mol]

  Special recipe for scaled SAPT0 (see Manual):
    Electrostatics sSAPT0           6.34719246 [mEh]       3.98292340 [kcal/mol]      16.66455152 [kJ/mol]
    Exchange sSAPT0                -0.00013569 [mEh]      -0.00008515 [kcal/mol]      -0.00035626 [kJ/mol]
    Induction sSAPT0               -1.68267037 [mEh]      -1.05589160 [kcal/mol]      -4.41785045 [kJ/mol]
    Dispersion sSAPT0              -0.24361532 [mEh]      -0.15287092 [kcal/mol]      -0.63961194 [kJ/mol]
  Total sSAPT0                      4.42077108 [mEh]       2.77407573 [kcal/mol]      11.60673286 [kJ/mol]
  --------------------------------------------------------------------------------------------------------

*** Psi4 exiting successfully. Buy a developer a beer!
