                               Psi4 1.9 release

  ==> Input File <==

--------------------------------------------------------------------------
memory 64 GB # how much memory is available ! Depends on the nodes/cores !

molecule dimer {
# monomer A
+1 1    # Charge and multiplicity
C  0.680067 -0.008042 -6.815929
C -0.680504 -0.006014 -6.815545
N -1.085635 -0.005016 -5.497221
C  0.000108 -0.001740 -4.715820
C -2.477365  0.044390 -5.029242
N  1.085222 -0.005016 -5.497221
H  1.385146 -0.015870 -7.633368
H -1.385302 -0.006204 -7.633214
H -0.000009  0.000007 -3.634731
C  2.478117 -0.021908 -5.032123
H  2.490592  0.005437 -3.941870
H  2.967028 -0.935354 -5.379299
H  3.001428  0.853575 -5.423595
H -2.857359  1.066461 -5.109201
H -3.082679 -0.625694 -5.642306
H -2.518128 -0.282594 -3.989294
--
# monomer B
0 1     # Charge and multiplicity
C   -3.66844126402057      7.80375217008252      0.00190004133558
C   -4.84759871934653      7.13124183134024     -0.00046653359696
C   -4.89495929917518      5.69633040353158     -0.00103944469517
C   -3.65374067877320      4.98073034095895      0.00662099703436
C   -2.40942512149445      7.11398103667468      0.00209438359570
C   -2.42547734410473      5.68112195090346     -0.00491050527438
C   -1.19474401643570      7.78614419430947      0.00356656413763
C   0.03795902893699      7.09942164575698      0.00139585983271
C   0.03033258741920      5.66948955970466     -0.00408752508301
C   -1.20098450790502      4.96927034791531      0.00488220885047
C   1.27795782581485      7.77285944319479      0.00277170839332
C   2.48535808472416      7.08769688523756      0.00049722048857
C   2.48612868491717      5.65477081024076     -0.00644052849921
C   1.25408291964399      4.95607811366431      0.00518741308898
C   3.75171459140595      7.76391215098033      0.00062407186893
C   4.92356605618520      7.07878077698995     -0.00143240883900
C   4.95560727132542      5.64344746336949     -0.00159282164606
C   3.70680153420475      4.94121020833308      0.00349873852374
H   -3.65852113775815      8.89082741913536      0.00358502958574
H   -1.18921332975660      8.87412108735996      0.00753844057883
H   1.28429423888630      8.86083343548850      0.00693053253426
H   3.75354208679975      8.85103527897216      0.00214659618464
H   5.86995870320703      7.61379483465560     -0.00235777588134
H   -5.78823170750226      7.67630221293400     -0.00202638095293
C   -6.09197395869619      4.99326001364347     -0.00291168518608
C   -6.12866148031747      3.58258016879823     -0.00171050815740
C   -3.66457974004527      3.56418217974434     -0.00463560277484
C   -4.89429820469869      2.86108077590057      0.00453338221034
C   -2.43733499489796      2.84761165708481      0.00719617576166
C   -1.20922785759670      3.54788693497833     -0.00648285103018
C   1.24714157216223      3.53468075142962     -0.00729145743546
C   0.01517603956900      2.83311183930540      0.00439272578912
C   2.46764517244071      2.82128997725533      0.00449278391269
C   3.70254947457969      3.52466015442405     -0.00899517692985
C   6.14498038638375      4.92757236613191     -0.00282626685777
C   6.16658835886151      3.51658447594213     -0.00065971342101
C   4.92460995845939      2.80840792535402      0.00587903281610
H   7.08990550964105      5.46688776622306     -0.00658814770723
H   -7.03104175110130      5.54268795285765     -0.00714490013730
C   -7.33969804112295      2.85841153457957     -0.00333767559888
C   -7.36488195805880      1.47032337158330     -0.00157213747140
C   -4.90350460894690      1.44442681216000     -0.00628840166334
C   -6.13225715261081      0.73993935705394      0.00600164231964
C   -3.67687480051673      0.72669714267312      0.00433931473643
C   -2.44565658606518      1.42964113326212     -0.00597039546461
C   -1.22360068130162      0.71532450163492      0.00545886906656
C   0.00763786931376      1.41738314923765      0.00392452278437
C   1.23121980774686      0.70211669058719     -0.01490206287210
C   2.46082110053113      1.40329203612573      0.00460244601878
C   3.68443025419614      0.68719842821222      0.00377365974158
C   4.91870890153864      1.39173456118907     -0.00862816189375
C   7.36980207796101      2.77948220318441     -0.00242013321349
C   7.38016266612146      1.39121750785509     -0.00087345036788
C   6.13979953912259      0.67411862320065      0.00545489144369
H   -8.27919079934664      3.40711804112415     -0.00763522772059
H   8.31511347147953      3.31811809662368     -0.00663070901292
C   -8.59175593758115      0.72483255304480     -0.00123170985383
C   -8.59902460370342     -0.63263980622873      0.00089141472904
C   -6.13981313911873     -0.67413663715361     -0.00609792660607
C   -7.38018411213749     -1.39126618958160      0.00131813493501
C   -4.91868448025621     -1.39175501803000      0.00624257154343
C   -3.68443829568458     -0.68723731573599     -0.00478966852105
C   -2.46081704024768     -1.40334517882457      0.00575341766833
C   -1.23116201232071     -0.70217386488055     -0.00636696112346
C   -0.00756962538737     -1.41741884941102      0.00108956317991
C   1.22364771588843     -0.71527537726392      0.01109518512883
C   2.44567064933149     -1.42964328900682     -0.00065482763106
C   3.67686670284649     -0.72670743155550     -0.00479541202602
C   6.13224884641929     -0.73997883984993     -0.00632338623858
C   4.90351914550401     -1.44445752054090      0.00751768830159
C   8.59901484869081      0.63260386666793     -0.00101133422380
C   8.59174548810050     -0.72485086719319      0.00072504603735
C   7.36486276438985     -1.47033266560598      0.00049486934466
H   -9.52830597181814      1.27684744919284     -0.00270163681798
H   9.54141097460619      1.17457248844457     -0.00206336648518
C   -7.36983790976868     -2.77954514593389      0.00312634335708
C   -4.92459910905015     -2.80843725734101     -0.00460528907921
C   -6.16662249566744     -3.51665219282533      0.00169655107992
C   -3.70251035970491     -3.52468154912026      0.00571878010666
C   -2.46764698511392     -2.82132596280400     -0.00632585824990
C   -0.01513347410770     -2.83314164539971     -0.00604426974092
C   -1.24712184122656     -3.53473217556300      0.00551968366725
C   1.20924506964357     -3.54791467864352      0.00805871345849
C   2.43733602215464     -2.84764173817541     -0.00608104485234
C   4.89430234377080     -2.86112296828604     -0.00526030478103
C   3.66461525504104     -3.56421984553201      0.00761911515957
C   6.12863901474565     -3.58258405771778      0.00096495711699
C   7.33967266469532     -2.85841330737039      0.00248018319869
H   -9.54144911125902     -1.17456346666430      0.00226083090216
H   9.52826186807155     -1.27691907390448      0.00197485379837
H   -8.31516504384864     -3.31814985321231      0.00729857188773
H   8.27915514249207     -3.40714078989363      0.00681973918158
C   -6.14499418870218     -4.92764727278338      0.00302254913999
C   -3.70678334799751     -4.94126171411716     -0.00679841894792
C   -4.95559005800169     -5.64349397349412      0.00116871569699
C   -2.48612132622665     -5.65478557440947      0.00614125209662
C   -1.25405833548005     -4.95612205000132     -0.00503435388927
C   1.20101257386816     -4.96928038819302     -0.00385322963129
C   -0.03033667441341     -5.66952030313900      0.00398997003238
C   3.65375010132847     -4.98074377541453     -0.00309522988330
C   2.42549269587528     -5.68117463552727      0.00628170066869
C   6.09196561781097     -4.99325796338655      0.00325918379042
C   4.89497644461045     -5.69634842095790      0.00202298796027
H   -7.08989238804069     -5.46699984223871      0.00742531082125
H   7.03105520920009     -5.54265853633254      0.00683896355417
C   -4.92354532219813     -7.07882109967734      0.00061394679214
C   -2.48534208823777     -7.08772807792913     -0.00189594564379
C   -3.75168589177895     -7.76394715763627     -0.00170126671874
C   -0.03794895698805     -7.09946487446944     -0.00168022049625
C   -1.27795610040136     -7.77290438466689     -0.00366491325785
C   2.40944432072629     -7.11402201200282     -0.00081701968533
C   1.19474993715296     -7.78618536556242     -0.00296931056689
C   4.84762105249800     -7.13126211057943      0.00168979497423
C   3.66847160587561     -7.80378799294376     -0.00065863938960
H   -5.86994035041618     -7.61383059804164      0.00215798365757
H   5.78824962538815     -7.67633218931421      0.00281691445618
H   -3.75352693944918     -8.85107156923607     -0.00353718114765
H   -1.28430440589466     -8.86087539249706     -0.00809229711623
H   1.18922157469537     -8.87416062058945     -0.00706194725726
H   3.65854661482387     -8.89086063405326     -0.00231318081200

    units angstrom      # Angstroms are the default
    no_reorient         # Geometry fixed, default
    symmetry c1         # C1 symmetry, default
}

set {
    scf_type DF         # Density fitting, faster than exact integrals
    freeze_core True    # Freeze core electrons
    basis jun-cc-pVDZ   # Jun-cc-pVDZ basis set, recommended for sSAPT0 in https://doi.org/10.1063/1.4867135
}

energy('ssapt0')        # Compute sSAPT0 energy, includes also SAPT0
--------------------------------------------------------------------------

  //              Dimer HF             //
    Molecular point group: c1
  Charge       = 1
  Multiplicity = 1
  Basis Set: JUN-CC-PVDZ
    Blend: JUN-CC-PVDZ
  Basis Set: (JUN-CC-PVDZ AUX)
    Blend: JUN-CC-PVDZ-JKFIT
  @DF-RHF Final Energy: -3953.65512336569827
    Total Energy =                      -3953.6551233656973636
 Dipole X            :         -0.0026663            0.0004804           -0.0021859
 Dipole Y            :         -0.0504337            0.0561130            0.0056793
 Dipole Z            :         24.2017596          -32.1237390           -7.9219794
 Magnitude           :                                                    7.9219818
  //            Monomer A HF           //
    Molecular point group: c1
  Multiplicity = 1
  Basis Set: JUN-CC-PVDZ
    Blend: JUN-CC-PVDZ
  Basis Set: (JUN-CC-PVDZ AUX)
    Blend: JUN-CC-PVDZ-JKFIT
  @DF-RHF Final Energy:  -303.29759750547049
    Total Energy =                       -303.2975975054704918
  //            Monomer B HF           //
    Molecular point group: c1

    Geometry (in Angstrom), charge = 0, multiplicity = 1:

       Center              X                  Y                   Z               Mass
    ------------   -----------------  -----------------  -----------------  -----------------
      Gh(C)           0.680062820275    -0.008027535675    -6.388978034514    12.000000000000
      Gh(C)          -0.680508179725    -0.005999535675    -6.388594034514    12.000000000000
      Gh(N)          -1.085639179725    -0.005001535675    -5.070270034514    14.003074004430
      Gh(C)           0.000103820275    -0.001725535675    -4.288869034514    12.000000000000
      Gh(C)          -2.477369179725     0.044404464325    -4.602291034514    12.000000000000
      Gh(N)           1.085217820275    -0.005001535675    -5.070270034514    14.003074004430
      Gh(H)           1.385141820275    -0.015855535675    -7.206417034514     1.007825032230
      Gh(H)          -1.385306179725    -0.006189535675    -7.206263034514     1.007825032230
      Gh(H)          -0.000013179725     0.000021464325    -3.207780034514     1.007825032230
      Gh(C)           2.478112820275    -0.021893535675    -4.605172034514    12.000000000000
      Gh(H)           2.490587820275     0.005451464325    -3.514919034514     1.007825032230
      Gh(H)           2.967023820275    -0.935339535675    -4.952348034514     1.007825032230
      Gh(H)           3.001423820275     0.853589464325    -4.996644034514     1.007825032230
      Gh(H)          -2.857363179725     1.066475464325    -4.682250034514     1.007825032230
      Gh(H)          -3.082683179725    -0.625679535675    -5.215355034514     1.007825032230
      Gh(H)          -2.518132179725    -0.282579535675    -3.562343034514     1.007825032230
         C           -3.668445443746     7.803766634408     0.428851006822    12.000000000000
         C           -4.847602899072     7.131256295665     0.426484431889    12.000000000000
         C           -4.894963478901     5.696344867857     0.425911520791    12.000000000000
         C           -3.653744858499     4.980744805284     0.433571962521    12.000000000000
         C           -2.409429301220     7.113995501000     0.429045349082    12.000000000000
         C           -2.425481523830     5.681136415228     0.422040460212    12.000000000000
         C           -1.194748196161     7.786158658634     0.430517529624    12.000000000000
         C            0.037954849212     7.099436110082     0.428346825319    12.000000000000
         C            0.030328407694     5.669504024030     0.422863440403    12.000000000000
         C           -1.200988687630     4.969284812240     0.431833174337    12.000000000000
         C            1.277953646089     7.772873907520     0.429722673879    12.000000000000
         C            2.485353904999     7.087711349563     0.427448185975    12.000000000000
         C            2.486124505192     5.654785274566     0.420510436987    12.000000000000
         C            1.254078739919     4.956092577989     0.432138378575    12.000000000000
         C            3.751710411681     7.763926615305     0.427575037355    12.000000000000
         C            4.923561876460     7.078795241315     0.425518556647    12.000000000000
         C            4.955603091600     5.643461927694     0.425358143840    12.000000000000
         C            3.706797354479     4.941224672658     0.430449704010    12.000000000000
         H           -3.658525317484     8.890841883460     0.430535995072     1.007825032230
         H           -1.189217509482     8.874135551685     0.434489406065     1.007825032230
         H            1.284290059161     8.860847899813     0.433881498020     1.007825032230
         H            3.753537907074     8.851049743297     0.429097561671     1.007825032230
         H            5.869954523482     7.613809298981     0.424593189605     1.007825032230
         H           -5.788235887228     7.676316677259     0.424924584533     1.007825032230
         C           -6.091978138422     4.993274477968     0.424039280300    12.000000000000
         C           -6.128665660043     3.582594633123     0.425240457329    12.000000000000
         C           -3.664583919771     3.564196644069     0.422315362711    12.000000000000
         C           -4.894302384424     2.861095240226     0.431484347697    12.000000000000
         C           -2.437339174623     2.847626121410     0.434147141248    12.000000000000
         C           -1.209232037322     3.547901399303     0.420468114456    12.000000000000
         C            1.247137392437     3.534695215755     0.419659508051    12.000000000000
         C            0.015171859844     2.833126303630     0.431343691275    12.000000000000
         C            2.467640992715     2.821304441580     0.431443749399    12.000000000000
         C            3.702545294854     3.524674618749     0.417955788556    12.000000000000
         C            6.144976206658     4.927586830457     0.424124698628    12.000000000000
         C            6.166584179136     3.516598940267     0.426291252065    12.000000000000
         C            4.924605778734     2.808422389679     0.432829998302    12.000000000000
         H            7.089901329916     5.466902230548     0.420362817779     1.007825032230
         H           -7.031045930827     5.542702417183     0.419806065349     1.007825032230
         C           -7.339702220848     2.858425998905     0.423613289887    12.000000000000
         C           -7.364886137784     1.470337835908     0.425378828015    12.000000000000
         C           -4.903508788672     1.444441276485     0.420662563823    12.000000000000
         C           -6.132261332336     0.739953821379     0.432952607806    12.000000000000
         C           -3.676878980242     0.726711606998     0.431290280223    12.000000000000
         C           -2.445660765791     1.429655597587     0.420980570022    12.000000000000
         C           -1.223604861027     0.715338965960     0.432409834553    12.000000000000
         C            0.007633689588     1.417397613563     0.430875488271    12.000000000000
         C            1.231215628021     0.702131154912     0.412048902614    12.000000000000
         C            2.460816920806     1.403306500451     0.431553411505    12.000000000000
         C            3.684426074471     0.687212892537     0.430724625228    12.000000000000
         C            4.918704721813     1.391749025514     0.418322803592    12.000000000000
         C            7.369797898236     2.779496667509     0.424530832273    12.000000000000
         C            7.380158486396     1.391231972180     0.426077515118    12.000000000000
         C            6.139795359397     0.674133087526     0.432405856930    12.000000000000
         H           -8.279194979072     3.407132505449     0.419315737766     1.007825032230
         H            8.315109291754     3.318132560949     0.420320256473     1.007825032230
         C           -8.591760117307     0.724847017370     0.425719255632    12.000000000000
         C           -8.599028783429    -0.632625341904     0.427842380215    12.000000000000
         C           -6.139817318844    -0.674122172829     0.420853038880    12.000000000000
         C           -7.380188291863    -1.391251725257     0.428269100421    12.000000000000
         C           -4.918688659982    -1.391740553705     0.433193537030    12.000000000000
         C           -3.684442475410    -0.687222851411     0.422161296965    12.000000000000
         C           -2.460821219973    -1.403330714500     0.432704383154    12.000000000000
         C           -1.231166192046    -0.702159400556     0.420584004363    12.000000000000
         C           -0.007573805113    -1.417404385086     0.428040528666    12.000000000000
         C            1.223643536163    -0.715260912939     0.438046150615    12.000000000000
         C            2.445666469606    -1.429628824682     0.426296137855    12.000000000000
         C            3.676862523121    -0.726692967231     0.422155553460    12.000000000000
         C            6.132244666694    -0.739964375525     0.420627579248    12.000000000000
         C            4.903514965779    -1.444443056216     0.434468653788    12.000000000000
         C            8.599010668965     0.632618330993     0.425939631262    12.000000000000
         C            8.591741308375    -0.724836402868     0.427676011524    12.000000000000
         C            7.364858584664    -1.470318201281     0.427445834831    12.000000000000
         H           -9.528310151544     1.276861913518     0.424249328668     1.007825032230
         H            9.541406794881     1.174586952770     0.424887599001     1.007825032230
         C           -7.369842089494    -2.779530681609     0.430077308843    12.000000000000
         C           -4.924603288776    -2.808422793016     0.422345676407    12.000000000000
         C           -6.166626675393    -3.516637728500     0.428647516566    12.000000000000
         C           -3.702514539430    -3.524667084795     0.432669745593    12.000000000000
         C           -2.467651164839    -2.821311498479     0.420625107236    12.000000000000
         C           -0.015137653833    -2.833127181075     0.420906695745    12.000000000000
         C           -1.247126020952    -3.534717711238     0.432470649153    12.000000000000
         C            1.209240889918    -3.547900214319     0.435009678945    12.000000000000
         C            2.437331842429    -2.847627273850     0.420869920634    12.000000000000
         C            4.894298164045    -2.861108503961     0.421690660705    12.000000000000
         C            3.664611075316    -3.564205381207     0.434570080646    12.000000000000
         C            6.128634835020    -3.582569593393     0.427915922603    12.000000000000
         C            7.339668484970    -2.858398843045     0.429431148685    12.000000000000
         H           -9.541453290984    -1.174549002339     0.429211796388     1.007825032230
         H            9.528257688346    -1.276904609579     0.428925819285     1.007825032230
         H           -8.315169223574    -3.318135388887     0.434249537374     1.007825032230
         H            8.279150962767    -3.407126325569     0.433770704668     1.007825032230
         C           -6.144998368428    -4.927632808458     0.429973514626    12.000000000000
         C           -3.706787527723    -4.941247249792     0.420152546538    12.000000000000
         C           -4.955594237727    -5.643479509169     0.428119681183    12.000000000000
         C           -2.486125505952    -5.654771110084     0.433092217583    12.000000000000
         C           -1.254062515205    -4.956107585676     0.421916611597    12.000000000000
         C            1.201008394143    -4.969265923868     0.423097735855    12.000000000000
         C           -0.030340854139    -5.669505838814     0.430940935519    12.000000000000
         C            3.653745921603    -4.980729311090     0.423855735603    12.000000000000
         C            2.425488516150    -5.681160171202     0.433232666155    12.000000000000
         C            6.091961438086    -4.993243499062     0.430210149277    12.000000000000
         C            4.894972264885    -5.696333956633     0.428973953446    12.000000000000
         H           -7.089896567766    -5.466985377914     0.434376276307     1.007825032230
         H            7.031051029475    -5.542644072008     0.433789929040     1.007825032230
         C           -4.923549501924    -7.078806635352     0.427564912278    12.000000000000
         C           -2.485346267963    -7.087713613604     0.425055019842    12.000000000000
         C           -3.751690071504    -7.763932693311     0.425249698767    12.000000000000
         C           -0.037953136713    -7.099450410144     0.425270744990    12.000000000000
         C           -1.277960280127    -7.772889920342     0.423286052228    12.000000000000
         C            2.409440141001    -7.114007547678     0.426133945801    12.000000000000
         C            1.194745757428    -7.786170901237     0.423981654919    12.000000000000
         C            4.847616872773    -7.131247646254     0.428640760460    12.000000000000
         C            3.668467426150    -7.803773528619     0.426292326097    12.000000000000
         H           -5.869944530142    -7.613816133717     0.429108949144     1.007825032230
         H            5.788245445663    -7.676317724989     0.429767879942     1.007825032230
         H           -3.753531119175    -8.851057104911     0.423413784339     1.007825032230
         H           -1.284308585620    -8.860860928172     0.418858668370     1.007825032230
         H            1.189217394970    -8.874146156264     0.419889018229     1.007825032230
         H            3.658542435098    -8.890846169728     0.424637784674     1.007825032230

  Charge       = 0
  Multiplicity = 1
  Basis Set: JUN-CC-PVDZ
    Blend: JUN-CC-PVDZ
  Basis Set: (JUN-CC-PVDZ AUX)
    Blend: JUN-CC-PVDZ-JKFIT

    Orbital Energies [Eh]
    ---------------------

    Doubly Occupied:

       1A    -11.264024     2A    -11.263694     3A    -11.263681
       4A    -11.263322     5A    -11.263313     6A    -11.263280
       7A    -11.263125     8A    -11.263121     9A    -11.263105
      10A    -11.262922    11A    -11.262777    12A    -11.262768
      13A    -11.262288    14A    -11.262281    15A    -11.262232
      16A    -11.262221    17A    -11.262151    18A    -11.262126
      19A    -11.262081    20A    -11.262042    21A    -11.262038
      22A    -11.261908    23A    -11.261904    24A    -11.261769
      25A    -11.261761    26A    -11.261740    27A    -11.261734
      28A    -11.261694    29A    -11.261684    30A    -11.261601
      31A    -11.261578    32A    -11.261574    33A    -11.261549
      34A    -11.261545    35A    -11.261526    36A    -11.261518
      37A    -11.261348    38A    -11.261339    39A    -11.261332
      40A    -11.261328    41A    -11.261318    42A    -11.261311
      43A    -11.261302    44A    -11.261287    45A    -11.261282
      46A    -11.261261    47A    -11.261254    48A    -11.261251
      49A    -11.261088    50A    -11.261060    51A    -11.261047
      52A    -11.260982    53A    -11.260965    54A    -11.260908
      55A    -11.259937    56A    -11.259925    57A    -11.259918
      58A    -11.259893    59A    -11.259887    60A    -11.259873
      61A    -11.259309    62A    -11.259286    63A    -11.259277
      64A    -11.259230    65A    -11.259223    66A    -11.259196
      67A    -11.258940    68A    -11.258923    69A    -11.258919
      70A    -11.258894    71A    -11.258887    72A    -11.258877
      73A    -11.254539    74A    -11.254537    75A    -11.254533
      76A    -11.254529    77A    -11.254528    78A    -11.254519
      79A    -11.253673    80A    -11.253672    81A    -11.253666
      82A    -11.253664    83A    -11.253662    84A    -11.253655
      85A    -11.253589    86A    -11.253588    87A    -11.253582
      88A    -11.253579    89A    -11.253577    90A    -11.253570
      91A    -11.253067    92A    -11.253065    93A    -11.253061
      94A    -11.253056    95A    -11.253056    96A    -11.253047
      97A     -1.253976    98A     -1.239026    99A     -1.239006
     100A     -1.220484   101A     -1.220472   102A     -1.215474
     103A     -1.201055   104A     -1.195620   105A     -1.188170
     106A     -1.188157   107A     -1.173778   108A     -1.173777
     109A     -1.155648   110A     -1.155642   111A     -1.152748
     112A     -1.144736   113A     -1.144733   114A     -1.128583
     115A     -1.114732   116A     -1.113178   117A     -1.112512
     118A     -1.112488   119A     -1.111631   120A     -1.088446
     121A     -1.088429   122A     -1.076976   123A     -1.076974
     124A     -1.067636   125A     -1.067601   126A     -1.064996
     127A     -1.046817   128A     -1.046806   129A     -1.040495
     130A     -1.038749   131A     -1.038746   132A     -1.025259
     133A     -1.021416   134A     -1.021356   135A     -1.007195
     136A     -1.006822   137A     -1.003810   138A     -1.000510
     139A     -1.000455   140A     -0.991088   141A     -0.971008
     142A     -0.970957   143A     -0.955898   144A     -0.955840
     145A     -0.905610   146A     -0.905574   147A     -0.905562
     148A     -0.905519   149A     -0.904359   150A     -0.892384
     151A     -0.892328   152A     -0.890382   153A     -0.890327
     154A     -0.889469   155A     -0.872232   156A     -0.869067
     157A     -0.851552   158A     -0.847880   159A     -0.847865
     160A     -0.845615   161A     -0.843030   162A     -0.834577
     163A     -0.834566   164A     -0.828131   165A     -0.828124
     166A     -0.784565   167A     -0.784555   168A     -0.783678
     169A     -0.783658   170A     -0.782301   171A     -0.782281
     172A     -0.782050   173A     -0.767003   174A     -0.760814
     175A     -0.750592   176A     -0.733497   177A     -0.727090
     178A     -0.727060   179A     -0.725096   180A     -0.724556
     181A     -0.724529   182A     -0.718512   183A     -0.713789
     184A     -0.713782   185A     -0.699592   186A     -0.699570
     187A     -0.686146   188A     -0.685967   189A     -0.685960
     190A     -0.682182   191A     -0.682173   192A     -0.678794
     193A     -0.653639   194A     -0.650886   195A     -0.650853
     196A     -0.649826   197A     -0.649819   198A     -0.649575
     199A     -0.640954   200A     -0.640912   201A     -0.640096
     202A     -0.639169   203A     -0.636037   204A     -0.636006
     205A     -0.629149   206A     -0.617785   207A     -0.615314
     208A     -0.615289   209A     -0.608811   210A     -0.608804
     211A     -0.599150   212A     -0.599112   213A     -0.598757
     214A     -0.598609   215A     -0.598598   216A     -0.598056
     217A     -0.595075   218A     -0.595062   219A     -0.594732
     220A     -0.594248   221A     -0.591967   222A     -0.591964
     223A     -0.587406   224A     -0.577805   225A     -0.577788
     226A     -0.575700   227A     -0.575674   228A     -0.573388
     229A     -0.569603   230A     -0.568161   231A     -0.568134
     232A     -0.566761   233A     -0.566755   234A     -0.560920
     235A     -0.558737   236A     -0.558699   237A     -0.558433
     238A     -0.554377   239A     -0.550575   240A     -0.547480
     241A     -0.544273   242A     -0.535009   243A     -0.534977
     244A     -0.533547   245A     -0.533527   246A     -0.528086
     247A     -0.528068   248A     -0.527805   249A     -0.517179
     250A     -0.517150   251A     -0.515358   252A     -0.515353
     253A     -0.509646   254A     -0.509634   255A     -0.498032
     256A     -0.496464   257A     -0.496425   258A     -0.493810
     259A     -0.493759   260A     -0.489464   261A     -0.481456
     262A     -0.477420   263A     -0.477419   264A     -0.473999
     265A     -0.469445   266A     -0.466529   267A     -0.466528
     268A     -0.458815   269A     -0.446697   270A     -0.446642
     271A     -0.441024   272A     -0.440779   273A     -0.440727
     274A     -0.434688   275A     -0.433912   276A     -0.407370
     277A     -0.407350   278A     -0.386415   279A     -0.386350
     280A     -0.385733   281A     -0.385730   282A     -0.383763
     283A     -0.354324   284A     -0.354302   285A     -0.350665
     286A     -0.338075   287A     -0.335574   288A     -0.335536
     289A     -0.332711   290A     -0.332708   291A     -0.307068
     292A     -0.301936   293A     -0.301874   294A     -0.300845
     295A     -0.286166   296A     -0.256468   297A     -0.253488
     298A     -0.253448   299A     -0.204255   300A     -0.204169

  @DF-RHF Final Energy: -3650.33959922508393

   => Energetics <=

    Nuclear Repulsion Energy =          15611.4211649754306563
    One-Electron Energy =              -36072.1389055633117096
    Two-Electron Energy =               16810.3781413627984875
    Total Energy =                      -3650.3395992250843847
 Dipole X            :         -0.0008123            0.0002112           -0.0006011
 Dipole Y            :          0.0012758           -0.0013774           -0.0001016
 Dipole Z            :       -484.0858917          484.0956282            0.0097365
 Magnitude           :                                                    0.0097556

    SAPT Results
  --------------------------------------------------------------------------------------------------------
    Electrostatics                -10.59416285 [mEh]      -6.64793756 [kcal/mol]     -27.81497073 [kJ/mol]
      Elst10,r                    -10.59416285 [mEh]      -6.64793756 [kcal/mol]     -27.81497073 [kJ/mol]

    Exchange                        0.16170888 [mEh]       0.10147385 [kcal/mol]       0.42456660 [kJ/mol]
      Exch10                        0.16170888 [mEh]       0.10147385 [kcal/mol]       0.42456660 [kJ/mol]
      Exch10(S^2)                   0.16169706 [mEh]       0.10146644 [kcal/mol]       0.42453558 [kJ/mol]

    Induction                      -7.49418117 [mEh]      -4.70266968 [kcal/mol]     -19.67596996 [kJ/mol]
      Ind20,r                      -7.20705374 [mEh]      -4.52249450 [kcal/mol]     -18.92211698 [kJ/mol]
      Exch-Ind20,r                  0.02933580 [mEh]       0.01840850 [kcal/mol]       0.07702115 [kJ/mol]
      delta HF,r (2)               -0.31646324 [mEh]      -0.19858368 [kcal/mol]      -0.83087413 [kJ/mol]

    Dispersion                     -5.70380484 [mEh]      -3.57919157 [kcal/mol]     -14.97533754 [kJ/mol]
      Disp20                       -5.72694951 [mEh]      -3.59371507 [kcal/mol]     -15.03610387 [kJ/mol]
      Exch-Disp20                   0.02314467 [mEh]       0.01452350 [kcal/mol]       0.06076633 [kJ/mol]
      Disp20 (SS)                  -2.86347476 [mEh]      -1.79685754 [kcal/mol]      -7.51805193 [kJ/mol]
      Disp20 (OS)                  -2.86347476 [mEh]      -1.79685754 [kcal/mol]      -7.51805193 [kJ/mol]
      Exch-Disp20 (SS)              0.01568973 [mEh]       0.00984545 [kcal/mol]       0.04119338 [kJ/mol]
      Exch-Disp20 (OS)              0.00745494 [mEh]       0.00467805 [kcal/mol]       0.01957296 [kJ/mol]

  Total HF                        -17.92663514 [mEh]     -11.24913339 [kcal/mol]     -47.06637409 [kJ/mol]
  Total SAPT0                     -23.63043998 [mEh]     -14.82832496 [kcal/mol]     -62.04171162 [kJ/mol]

  Special recipe for scaled SAPT0 (see Manual):
    Electrostatics sSAPT0         -10.59416285 [mEh]      -6.64793756 [kcal/mol]     -27.81497073 [kJ/mol]
    Exchange sSAPT0                 0.16170888 [mEh]       0.10147385 [kcal/mol]       0.42456660 [kJ/mol]
    Induction sSAPT0               -7.49417474 [mEh]      -4.70266565 [kcal/mol]     -19.67595307 [kJ/mol]
    Dispersion sSAPT0              -5.70379976 [mEh]      -3.57918839 [kcal/mol]     -14.97532421 [kJ/mol]
  Total sSAPT0                    -23.63042847 [mEh]     -14.82831774 [kcal/mol]     -62.04168141 [kJ/mol]
  --------------------------------------------------------------------------------------------------------

*** Psi4 exiting successfully. Buy a developer a beer!
