                               Psi4 1.9 release

  ==> Input File <==

--------------------------------------------------------------------------
memory 32 GB # how much memory is available ! Depends on the nodes/cores !

molecule dimer {
# monomer A
+1 1    # Charge and multiplicity
C  0.680067 1.417258 -6.415929
C -0.680504 1.419286 -6.415545
N -1.085635 1.420284 -5.097221
C  0.000108 1.423560 -4.315820
C -2.477365 1.469690 -4.629242
N  1.085222 1.420284 -5.097221
H  1.385146 1.409430 -7.233368
H -1.385302 1.419096 -7.233214
H -0.000009 1.425307 -3.234731
C  2.478117 1.403392 -4.632123
H  2.490592 1.430737 -3.541870
H  2.967028 0.489946 -4.979299
H  3.001428 2.278875 -5.023595
H -2.857359 2.491761 -4.709201
H -3.082679 0.799606 -5.242306
H -2.518128 1.142706 -3.589294
--
# monomer B
0 1     # Charge and multiplicity
C   1.22531237526482      0.70753866091955      0.00613762728373
C   1.22532433589282     -0.70753852257020     -0.00619318228664
C   -0.00000567409046      1.41496628609039     -0.00672680580738
C   2.45644923379077      1.41832825917820      0.00902448468363
C   0.00001130712078     -1.41497612663474      0.00347275151708
C   -1.22530046906674      0.70754574598412      0.00838914760619
C   2.45643823516184     -1.41832293188077     -0.00843833914343
C   -0.00000085313587      2.83680140328112     -0.00913035594137
C   3.68182717731192      0.70931832800114     -0.00808954934571
C   2.45512052870677      2.83422403348893     -0.00819210630633
C   3.68182158506039     -0.70933346742900      0.00798293467272
C   -1.22531311884624     -0.70752714354401     -0.00512042085974
C   1.22670006104402      3.54346985599427      0.00816696660346
C   0.00000526469929     -2.83678176723568      0.00832091913869
C   -2.45643555300670      1.41831729028492      0.00842454345199
C   2.45512389762097     -2.83422965658853      0.00783102630520
C   -1.22671388474763      3.54346943575023      0.00827029982280
C   4.91451777504333      1.42717324448953     -0.00160886631602
C   3.69315067131765      3.54279566454522     -0.00155906667985
C   -2.45643712022637     -1.41831290883911     -0.00846337726810
C   1.22670532178455     -3.54347386990643     -0.00780316414624
C   -2.45512491866593      2.83421703463423     -0.00818572995999
C   4.91452486062398     -1.42718653794377      0.00136387641845
C   1.22142509354026      4.97013443726031      0.00150231067809
C   4.89300870916237      2.82518837202648     -0.00039219795739
C   -1.22669652864725     -3.54347062507680     -0.00753595973677
C   -3.68181849668397      0.70932533873199     -0.00807686886569
C   3.69314758099218     -3.54280096939050      0.00148176697923
C   -1.22143177215231      4.97012866986289      0.00168580605083
C   6.13477145276790      0.68054831910577     -0.00083909176631
C   3.65678936045204      4.97295361556775     -0.00065042889723
C   -2.45512642789169     -2.83421472106065      0.00758666850712
C   -3.68181869921921     -0.70932533146830      0.00810055625144
C   4.89301309775526     -2.82519973363176      0.00021895393805
C   -0.00000059327114      5.65044773803267      0.00045449734393
C   6.13477559217374     -0.68055448207492      0.00042622874941
C   2.47813196269732      5.65357712333155      0.00063835075260
C   1.22142288457925     -4.97012668293268     -0.00129718634452
C   -3.69316190412301      3.54279732619245     -0.00139355922051
C   -1.22142804110313     -4.97011793159564     -0.00140994817719
C   -4.91452132810043      1.42717581899491     -0.00153192130862
C   3.65678749952045     -4.97295485423912      0.00080007163680
C   -2.47813805026426      5.65357479452875      0.00092287576113
C   -3.69314125872231     -3.54278984697859      0.00136564082345
C   -4.91451200321153     -1.42718062802730      0.00139857359209
C   -0.00000552908399     -5.65043791501335      0.00005899322272
C   -4.89302000425900      2.82518897091939     -0.00040227981744
C   2.47812647313991     -5.65357317188818     -0.00029052915548
C   -3.65679823041642      4.97295655404175     -0.00047374852278
C   -4.89299899901461     -2.82519139505969      0.00006491824035
C   -2.47812801824129     -5.65356579800621     -0.00056571680280
C   -6.13477002348955      0.68054913825639     -0.00086464346868
C   -3.65678835334731     -4.97294365097028      0.00058578382008
C   -6.13476456307132     -0.68055354348201      0.00040575295444
H   5.83528897565761      3.36927626695423      0.00396712770529
H   7.07385965258860      1.22821762089947     -0.00037744837300
H   4.60066374401555      5.51238117445323     -0.00014522814529
H   5.83528386714679     -3.36930568472863     -0.00423551337640
H   -0.00001167146422      6.73853104613662     -0.00389474766392
H   7.07386165167227     -1.22822657074368     -0.00008250934481
H   2.47331421164041      6.74068466339473      0.00017162982210
H   4.60066897122302     -5.51237575717576      0.00039007446835
H   -2.47331820069565      6.74068209160650      0.00047297644710
H   -0.00000978838621     -6.73852780445195      0.00458867820736
H   -5.83530143450167      3.36927132229595      0.00410314985360
H   2.47330840367253     -6.74068500242887      0.00027980126949
H   -4.60067436136587      5.51237839860371      0.00002010017831
H   -5.83527902699321     -3.36928859177951     -0.00451481925734
H   -2.47329986759855     -6.74067870613986     -0.00016951527498
H   -7.07385728692578      1.22822084484047     -0.00046143985387
H   -4.60067330624313     -5.51236229778631      0.00021776644566
H   -7.07385645456741     -1.22822025997701     -0.00017736581114

    units angstrom      # Angstroms are the default
    no_reorient         # Geometry fixed, default
    symmetry c1         # C1 symmetry, default
}

set {
    scf_type DF         # Density fitting, faster than exact integrals
    freeze_core True    # Freeze core electrons
    basis jun-cc-pVDZ   # Jun-cc-pVDZ basis set, recommended for sSAPT0 in https://doi.org/10.1063/1.4867135
}

energy('ssapt0')        # Compute sSAPT0 energy, includes also SAPT0
--------------------------------------------------------------------------

  //              Dimer HF             //
    Molecular point group: c1
  Charge       = 1
  Multiplicity = 1
  Basis Set: JUN-CC-PVDZ
    Blend: JUN-CC-PVDZ
  Basis Set: (JUN-CC-PVDZ AUX)
    Blend: JUN-CC-PVDZ-JKFIT
  @DF-RHF Final Energy: -2359.20976637770036
    Total Energy =                      -2359.2097663777003618
 Dipole X            :         -0.0022803            0.0006313           -0.0016490
 Dipole Y            :         -5.8931248            7.4856329            1.5925081
 Dipole Z            :         18.4116102          -25.2191304           -6.8075202
 Magnitude           :                                                    6.9913100
  //            Monomer A HF           //
    Molecular point group: c1
  Multiplicity = 1
  Basis Set: JUN-CC-PVDZ
    Blend: JUN-CC-PVDZ
  Basis Set: (JUN-CC-PVDZ AUX)
    Blend: JUN-CC-PVDZ-JKFIT
  @DF-RHF Final Energy:  -303.29769466950609
    Total Energy =                       -303.2976946695060860
  //            Monomer B HF           //
    Molecular point group: c1

    Geometry (in Angstrom), charge = 0, multiplicity = 1:

       Center              X                  Y                   Z               Mass
    ------------   -----------------  -----------------  -----------------  -----------------
      Gh(C)           0.680066520158     1.235968212970    -5.754523175886    12.000000000000
      Gh(C)          -0.680504479842     1.237996212970    -5.754139175886    12.000000000000
      Gh(N)          -1.085635479842     1.238994212970    -4.435815175886    14.003074004430
      Gh(C)           0.000107520158     1.242270212970    -3.654414175886    12.000000000000
      Gh(C)          -2.477365479842     1.288400212970    -3.967836175886    12.000000000000
      Gh(N)           1.085221520158     1.238994212970    -4.435815175886    14.003074004430
      Gh(H)           1.385145520158     1.228140212970    -6.571962175886     1.007825032230
      Gh(H)          -1.385302479842     1.237806212970    -6.571808175886     1.007825032230
      Gh(H)          -0.000009479842     1.244017212970    -2.573325175886     1.007825032230
      Gh(C)           2.478116520158     1.222102212970    -3.970717175886    12.000000000000
      Gh(H)           2.490591520158     1.249447212970    -2.880464175886     1.007825032230
      Gh(H)           2.967027520158     0.308656212970    -4.317893175886     1.007825032230
      Gh(H)           3.001427520158     2.097585212970    -4.362189175886     1.007825032230
      Gh(H)          -2.857359479842     2.310471212970    -4.047795175886     1.007825032230
      Gh(H)          -3.082679479842     0.618316212970    -4.580900175886     1.007825032230
      Gh(H)          -2.518128479842     0.961416212970    -2.927888175886     1.007825032230
         C            1.225311895423     0.526248873889     0.667543451398    12.000000000000
         C            1.225323856051    -0.888828309601     0.655212641827    12.000000000000
         C           -0.000006153932     1.233676499060     0.654679018307    12.000000000000
         C            2.456448753949     1.237038472148     0.670430308798    12.000000000000
         C            0.000010827279    -1.596265913665     0.664878575631    12.000000000000
         C           -1.225300948908     0.526255958954     0.669794971720    12.000000000000
         C            2.456437755320    -1.599612718911     0.652967484971    12.000000000000
         C           -0.000001332978     2.655511616251     0.652275468173    12.000000000000
         C            3.681826697470     0.528028540971     0.653316274768    12.000000000000
         C            2.455120048865     2.652934246459     0.653213717808    12.000000000000
         C            3.681821105219    -0.890623254459     0.669388758787    12.000000000000
         C           -1.225313598688    -0.888816930574     0.656285403254    12.000000000000
         C            1.226699581202     3.362180068964     0.669572790718    12.000000000000
         C            0.000004784858    -3.018071554266     0.669726743253    12.000000000000
         C           -2.456436032848     1.237027503255     0.669830367566    12.000000000000
         C            2.455123417779    -3.015519443619     0.669236850419    12.000000000000
         C           -1.226714364589     3.362179648720     0.669676123937    12.000000000000
         C            4.914517295202     1.245883457459     0.659796957798    12.000000000000
         C            3.693150191476     3.361505877515     0.659846757434    12.000000000000
         C           -2.456437600068    -1.599602695869     0.652942446846    12.000000000000
         C            1.226704841943    -3.724763656937     0.653602659968    12.000000000000
         C           -2.455125398508     2.652927247604     0.653220094154    12.000000000000
         C            4.914524380782    -1.608476324974     0.662769700533    12.000000000000
         C            1.221424613699     4.788844650230     0.662908134792    12.000000000000
         C            4.893008229321     2.643898584996     0.661013626157    12.000000000000
         C           -1.226697008489    -3.724760412107     0.653869864377    12.000000000000
         C           -3.681818976526     0.528035551702     0.653328955248    12.000000000000
         C            3.693147101150    -3.724090756421     0.662887591093    12.000000000000
         C           -1.221432251994     4.788838882833     0.663091630165    12.000000000000
         C            6.134770972926     0.499258532075     0.660566732348    12.000000000000
         C            3.656788880610     4.791663828537     0.660755395217    12.000000000000
         C           -2.455126907733    -3.015504508091     0.668992492621    12.000000000000
         C           -3.681819179061    -0.890615118499     0.669506380365    12.000000000000
         C            4.893012617914    -3.006489520662     0.661624778052    12.000000000000
         C           -0.000001073113     5.469157951002     0.661860321458    12.000000000000
         C            6.134775112332    -0.861844269105     0.661832052863    12.000000000000
         C            2.478131482856     5.472287336301     0.662044174867    12.000000000000
         C            1.221422404738    -5.151416469963     0.660108637770    12.000000000000
         C           -3.693162383965     3.361507539162     0.660012264894    12.000000000000
         C           -1.221428520945    -5.151407718626     0.659995875937    12.000000000000
         C           -4.914521807942     1.245886031965     0.659873902805    12.000000000000
         C            3.656787019679    -5.154244641269     0.662205895751    12.000000000000
         C           -2.478138530106     5.472285007498     0.662328699875    12.000000000000
         C           -3.693141738564    -3.724079634009     0.662771464938    12.000000000000
         C           -4.914512483053    -1.608470415058     0.662804397706    12.000000000000
         C           -0.000006008926    -5.831727702044     0.661464817337    12.000000000000
         C           -4.893020484101     2.643899183889     0.661003544297    12.000000000000
         C            2.478125993298    -5.834862958919     0.661115294959    12.000000000000
         C           -3.656798710258     4.791666767011     0.660932075591    12.000000000000
         C           -4.892999478856    -3.006481182090     0.661470742354    12.000000000000
         C           -2.478128498083    -5.834855585037     0.660840107311    12.000000000000
         C           -6.134770503331     0.499259351226     0.660541180645    12.000000000000
         C           -3.656788833189    -5.154233438001     0.661991607934    12.000000000000
         C           -6.134765042913    -0.861843330512     0.661811577068    12.000000000000
         H            5.835288495816     3.187986479924     0.665372951819     1.007825032230
         H            7.073859172747     1.046927833869     0.661028375741     1.007825032230
         H            4.600663264174     5.331091387423     0.661260595969     1.007825032230
         H            5.835283387305    -3.550595471759     0.657170310738     1.007825032230
         H           -0.000012151306     6.557241259106     0.657511076450     1.007825032230
         H            7.073861171831    -1.409516357774     0.661323314769     1.007825032230
         H            2.473313731799     6.559394876364     0.661577453936     1.007825032230
         H            4.600668491381    -5.693665544206     0.661795898582     1.007825032230
         H           -2.473318680537     6.559392304576     0.661878800561     1.007825032230
         H           -0.000010268228    -6.919817591482     0.665994502321     1.007825032230
         H           -5.835301914343     3.187981535266     0.665508973968     1.007825032230
         H            2.473307923831    -6.921974789459     0.661685625384     1.007825032230
         H           -4.600674841208     5.331088611573     0.661425924292     1.007825032230
         H           -5.835279506835    -3.550578378810     0.656891004857     1.007825032230
         H           -2.473300347440    -6.921968493170     0.661236308839     1.007825032230
         H           -7.073857766768     1.046931057810     0.660944384260     1.007825032230
         H           -4.600673786085    -5.693652084817     0.661623590560     1.007825032230
         H           -7.073856934409    -1.409510047007     0.661228458303     1.007825032230

  Charge       = 0
  Multiplicity = 1
  Basis Set: JUN-CC-PVDZ
    Blend: JUN-CC-PVDZ
  Basis Set: (JUN-CC-PVDZ AUX)
    Blend: JUN-CC-PVDZ-JKFIT

    Orbital Energies [Eh]
    ---------------------

    Doubly Occupied:

       1A    -11.260589     2A    -11.260136     3A    -11.260125
       4A    -11.259442     5A    -11.259418     6A    -11.259238
       7A    -11.259041     8A    -11.258959     9A    -11.258930
      10A    -11.258615    11A    -11.258599    12A    -11.258522
      13A    -11.258461    14A    -11.258459    15A    -11.258453
      16A    -11.258421    17A    -11.258417    18A    -11.258401
      19A    -11.258398    20A    -11.258390    21A    -11.258380
      22A    -11.258308    23A    -11.258290    24A    -11.258007
      25A    -11.257324    26A    -11.257268    27A    -11.257257
      28A    -11.257138    29A    -11.257125    30A    -11.257047
      31A    -11.256420    32A    -11.256355    33A    -11.256345
      34A    -11.256246    35A    -11.256239    36A    -11.256189
      37A    -11.252284    38A    -11.252280    39A    -11.252250
      40A    -11.252245    41A    -11.252243    42A    -11.252240
      43A    -11.251397    44A    -11.251379    45A    -11.251377
      46A    -11.251371    47A    -11.251370    48A    -11.251350
      49A    -11.250845    50A    -11.250841    51A    -11.250811
      52A    -11.250806    53A    -11.250804    54A    -11.250802
      55A     -1.244028    56A     -1.219789    57A     -1.219764
      58A     -1.189511    59A     -1.189492    60A     -1.180909
      61A     -1.157522    62A     -1.148944    63A     -1.135467
      64A     -1.135438    65A     -1.113157    66A     -1.113154
      67A     -1.082389    68A     -1.082387    69A     -1.078565
      70A     -1.065947    71A     -1.065940    72A     -1.039357
      73A     -1.024234    74A     -1.021738    75A     -1.021673
      76A     -1.017689    77A     -1.012761    78A     -0.986985
      79A     -0.986931    80A     -0.961844    81A     -0.961792
      82A     -0.894250    83A     -0.894225    84A     -0.887888
      85A     -0.886137    86A     -0.886089    87A     -0.881352
      88A     -0.881303    89A     -0.861859    90A     -0.837373
      91A     -0.818166    92A     -0.816570    93A     -0.812088
      94A     -0.812087    95A     -0.794653    96A     -0.794637
      97A     -0.746573    98A     -0.744811    99A     -0.733372
     100A     -0.733368   101A     -0.732143   102A     -0.732117
     103A     -0.716455   104A     -0.698938   105A     -0.698910
     106A     -0.693551   107A     -0.693516   108A     -0.661191
     109A     -0.653072   110A     -0.651112   111A     -0.650216
     112A     -0.650206   113A     -0.639325   114A     -0.639305
     115A     -0.629670   116A     -0.627475   117A     -0.627466
     118A     -0.606456   119A     -0.605776   120A     -0.601612
     121A     -0.599707   122A     -0.599647   123A     -0.593582
     124A     -0.591179   125A     -0.591152   126A     -0.585242
     127A     -0.576451   128A     -0.576365   129A     -0.567287
     130A     -0.567266   131A     -0.565914   132A     -0.565899
     133A     -0.558680   134A     -0.554807   135A     -0.554806
     136A     -0.538552   137A     -0.538551   138A     -0.538216
     139A     -0.538210   140A     -0.529671   141A     -0.528149
     142A     -0.522835   143A     -0.522812   144A     -0.500463
     145A     -0.495609   146A     -0.493193   147A     -0.487847
     148A     -0.485021   149A     -0.481707   150A     -0.481706
     151A     -0.470331   152A     -0.470323   153A     -0.450967
     154A     -0.450898   155A     -0.439062   156A     -0.439054
     157A     -0.404737   158A     -0.404720   159A     -0.403349
     160A     -0.375414   161A     -0.375402   162A     -0.349107
     163A     -0.337601   164A     -0.336552   165A     -0.336474
     166A     -0.311083   167A     -0.298083   168A     -0.284337
     169A     -0.284280   170A     -0.224901   171A     -0.224838

  @DF-RHF Final Energy: -2055.89397738922116

   => Energetics <=

    Nuclear Repulsion Energy =           6452.5568002797781446
    One-Electron Energy =              -15636.4927052825005376
    Two-Electron Energy =                7128.0419276135016844
    Total Energy =                      -2055.8939773892216181
 Dipole X            :          0.0000402           -0.0000085            0.0000317
 Dipole Y            :        117.1707901         -117.1648546            0.0059355
 Dipole Z            :       -427.4508365          427.4561030            0.0052665
 Magnitude           :                                                    0.0079352

    SAPT Results
  --------------------------------------------------------------------------------------------------------
    Electrostatics                -11.26350326 [mEh]      -7.06795501 [kcal/mol]     -29.57232375 [kJ/mol]
      Elst10,r                    -11.26350326 [mEh]      -7.06795501 [kcal/mol]     -29.57232375 [kJ/mol]

    Exchange                        0.81938756 [mEh]       0.51417346 [kcal/mol]       2.15130175 [kJ/mol]
      Exch10                        0.81938756 [mEh]       0.51417346 [kcal/mol]       2.15130175 [kJ/mol]
      Exch10(S^2)                   0.81914477 [mEh]       0.51402110 [kcal/mol]       2.15066429 [kJ/mol]

    Induction                      -7.65020327 [mEh]      -4.80057503 [kcal/mol]     -20.08560592 [kJ/mol]
      Ind20,r                      -7.27934109 [mEh]      -4.56785549 [kcal/mol]     -19.11190739 [kJ/mol]
      Exch-Ind20,r                  0.17542634 [mEh]       0.11008169 [kcal/mol]       0.46058178 [kJ/mol]
      delta HF,r (2)               -0.54628852 [mEh]      -0.34280122 [kcal/mol]      -1.43428031 [kJ/mol]

    Dispersion                     -7.47873462 [mEh]      -4.69297683 [kcal/mol]     -19.63541505 [kJ/mol]
      Disp20                       -7.56921730 [mEh]      -4.74975556 [kcal/mol]     -19.87297728 [kJ/mol]
      Exch-Disp20                   0.09048267 [mEh]       0.05677874 [kcal/mol]       0.23756223 [kJ/mol]
      Disp20 (SS)                  -3.78460865 [mEh]      -2.37487778 [kcal/mol]      -9.93648864 [kJ/mol]
      Disp20 (OS)                  -3.78460865 [mEh]      -2.37487778 [kcal/mol]      -9.93648864 [kJ/mol]
      Exch-Disp20 (SS)              0.05841905 [mEh]       0.03665851 [kcal/mol]       0.15337920 [kJ/mol]
      Exch-Disp20 (OS)              0.03206362 [mEh]       0.02012023 [kcal/mol]       0.08418303 [kJ/mol]

  Total HF                        -18.09431897 [mEh]     -11.35435658 [kcal/mol]     -47.50662792 [kJ/mol]
  Total SAPT0                     -25.57305360 [mEh]     -16.04733341 [kcal/mol]     -67.14204297 [kJ/mol]

  Special recipe for scaled SAPT0 (see Manual):
    Electrostatics sSAPT0         -11.26350326 [mEh]      -7.06795501 [kcal/mol]     -29.57232375 [kJ/mol]
    Exchange sSAPT0                 0.81938756 [mEh]       0.51417346 [kcal/mol]       2.15130175 [kJ/mol]
    Induction sSAPT0               -7.65004723 [mEh]      -4.80047711 [kcal/mol]     -20.08519625 [kJ/mol]
    Dispersion sSAPT0              -7.47865414 [mEh]      -4.69292633 [kcal/mol]     -19.63520375 [kJ/mol]
  Total sSAPT0                    -25.57281708 [mEh]     -16.04718499 [kcal/mol]     -67.14142199 [kJ/mol]
  --------------------------------------------------------------------------------------------------------

*** Psi4 exiting successfully. Buy a developer a beer!
