                               Psi4 1.9 release

  ==> Input File <==

--------------------------------------------------------------------------
memory 32 GB # how much memory is available ! Depends on the nodes/cores !

molecule dimer {
# monomer A
+1 1    # Charge and multiplicity
C  0.680067 -0.008042 -6.015929
C -0.680504 -0.006014 -6.015545
N -1.085635 -0.005016 -4.697221
C  0.000108 -0.001740 -3.915820
C -2.477365  0.044390 -4.229242
N  1.085222 -0.005016 -4.697221
H  1.385146 -0.015870 -6.833368
H -1.385302 -0.006204 -6.833214
H -0.000009  0.000007 -2.834731
C  2.478117 -0.021908 -4.232123
H  2.490592  0.005437 -3.141870
H  2.967028 -0.935354 -4.579299
H  3.001428  0.853575 -4.623595
H -2.857359  1.066461 -4.309201
H -3.082679 -0.625694 -4.842306
H -2.518128 -0.282594 -3.189294
--
# monomer B
0 1     # Charge and multiplicity
C   1.22531237526482      0.70753866091955      0.00613762728373
C   1.22532433589282     -0.70753852257020     -0.00619318228664
C   -0.00000567409046      1.41496628609039     -0.00672680580738
C   2.45644923379077      1.41832825917820      0.00902448468363
C   0.00001130712078     -1.41497612663474      0.00347275151708
C   -1.22530046906674      0.70754574598412      0.00838914760619
C   2.45643823516184     -1.41832293188077     -0.00843833914343
C   -0.00000085313587      2.83680140328112     -0.00913035594137
C   3.68182717731192      0.70931832800114     -0.00808954934571
C   2.45512052870677      2.83422403348893     -0.00819210630633
C   3.68182158506039     -0.70933346742900      0.00798293467272
C   -1.22531311884624     -0.70752714354401     -0.00512042085974
C   1.22670006104402      3.54346985599427      0.00816696660346
C   0.00000526469929     -2.83678176723568      0.00832091913869
C   -2.45643555300670      1.41831729028492      0.00842454345199
C   2.45512389762097     -2.83422965658853      0.00783102630520
C   -1.22671388474763      3.54346943575023      0.00827029982280
C   4.91451777504333      1.42717324448953     -0.00160886631602
C   3.69315067131765      3.54279566454522     -0.00155906667985
C   -2.45643712022637     -1.41831290883911     -0.00846337726810
C   1.22670532178455     -3.54347386990643     -0.00780316414624
C   -2.45512491866593      2.83421703463423     -0.00818572995999
C   4.91452486062398     -1.42718653794377      0.00136387641845
C   1.22142509354026      4.97013443726031      0.00150231067809
C   4.89300870916237      2.82518837202648     -0.00039219795739
C   -1.22669652864725     -3.54347062507680     -0.00753595973677
C   -3.68181849668397      0.70932533873199     -0.00807686886569
C   3.69314758099218     -3.54280096939050      0.00148176697923
C   -1.22143177215231      4.97012866986289      0.00168580605083
C   6.13477145276790      0.68054831910577     -0.00083909176631
C   3.65678936045204      4.97295361556775     -0.00065042889723
C   -2.45512642789169     -2.83421472106065      0.00758666850712
C   -3.68181869921921     -0.70932533146830      0.00810055625144
C   4.89301309775526     -2.82519973363176      0.00021895393805
C   -0.00000059327114      5.65044773803267      0.00045449734393
C   6.13477559217374     -0.68055448207492      0.00042622874941
C   2.47813196269732      5.65357712333155      0.00063835075260
C   1.22142288457925     -4.97012668293268     -0.00129718634452
C   -3.69316190412301      3.54279732619245     -0.00139355922051
C   -1.22142804110313     -4.97011793159564     -0.00140994817719
C   -4.91452132810043      1.42717581899491     -0.00153192130862
C   3.65678749952045     -4.97295485423912      0.00080007163680
C   -2.47813805026426      5.65357479452875      0.00092287576113
C   -3.69314125872231     -3.54278984697859      0.00136564082345
C   -4.91451200321153     -1.42718062802730      0.00139857359209
C   -0.00000552908399     -5.65043791501335      0.00005899322272
C   -4.89302000425900      2.82518897091939     -0.00040227981744
C   2.47812647313991     -5.65357317188818     -0.00029052915548
C   -3.65679823041642      4.97295655404175     -0.00047374852278
C   -4.89299899901461     -2.82519139505969      0.00006491824035
C   -2.47812801824129     -5.65356579800621     -0.00056571680280
C   -6.13477002348955      0.68054913825639     -0.00086464346868
C   -3.65678835334731     -4.97294365097028      0.00058578382008
C   -6.13476456307132     -0.68055354348201      0.00040575295444
H   5.83528897565761      3.36927626695423      0.00396712770529
H   7.07385965258860      1.22821762089947     -0.00037744837300
H   4.60066374401555      5.51238117445323     -0.00014522814529
H   5.83528386714679     -3.36930568472863     -0.00423551337640
H   -0.00001167146422      6.73853104613662     -0.00389474766392
H   7.07386165167227     -1.22822657074368     -0.00008250934481
H   2.47331421164041      6.74068466339473      0.00017162982210
H   4.60066897122302     -5.51237575717576      0.00039007446835
H   -2.47331820069565      6.74068209160650      0.00047297644710
H   -0.00000978838621     -6.73852780445195      0.00458867820736
H   -5.83530143450167      3.36927132229595      0.00410314985360
H   2.47330840367253     -6.74068500242887      0.00027980126949
H   -4.60067436136587      5.51237839860371      0.00002010017831
H   -5.83527902699321     -3.36928859177951     -0.00451481925734
H   -2.47329986759855     -6.74067870613986     -0.00016951527498
H   -7.07385728692578      1.22822084484047     -0.00046143985387
H   -4.60067330624313     -5.51236229778631      0.00021776644566
H   -7.07385645456741     -1.22822025997701     -0.00017736581114

    units angstrom      # Angstroms are the default
    no_reorient         # Geometry fixed, default
    symmetry c1         # C1 symmetry, default
}

set {
    scf_type DF         # Density fitting, faster than exact integrals
    freeze_core True    # Freeze core electrons
    basis jun-cc-pVDZ   # Jun-cc-pVDZ basis set, recommended for sSAPT0 in https://doi.org/10.1063/1.4867135
}

energy('ssapt0')        # Compute sSAPT0 energy, includes also SAPT0
--------------------------------------------------------------------------

  //              Dimer HF             //
    Molecular point group: c1
  Charge       = 1
  Multiplicity = 1
  Basis Set: JUN-CC-PVDZ
    Blend: JUN-CC-PVDZ
  Basis Set: (JUN-CC-PVDZ AUX)
    Blend: JUN-CC-PVDZ-JKFIT
  @DF-RHF Final Energy: -2359.21256571970798
    Total Energy =                      -2359.2125657197084365
 Dipole X            :         -0.0019577            0.0006313           -0.0013264
 Dipole Y            :         -0.0512086            0.0560211            0.0048125
 Dipole Z            :         17.1309157          -23.1340642           -6.0031486
 Magnitude           :                                                    6.0031506
  //            Monomer A HF           //
    Molecular point group: c1
  Multiplicity = 1
  Basis Set: JUN-CC-PVDZ
    Blend: JUN-CC-PVDZ
  Basis Set: (JUN-CC-PVDZ AUX)
    Blend: JUN-CC-PVDZ-JKFIT
  @DF-RHF Final Energy:  -303.29787670348736
    Total Energy =                       -303.2978767034873613
  //            Monomer B HF           //
    Molecular point group: c1

    Geometry (in Angstrom), charge = 0, multiplicity = 1:

       Center              X                  Y                   Z               Mass
    ------------   -----------------  -----------------  -----------------  -----------------
      Gh(C)           0.680066520158    -0.008042372515    -5.405400721530    12.000000000000
      Gh(C)          -0.680504479842    -0.006014372515    -5.405016721530    12.000000000000
      Gh(N)          -1.085635479842    -0.005016372515    -4.086692721530    14.003074004430
      Gh(C)           0.000107520158    -0.001740372515    -3.305291721530    12.000000000000
      Gh(C)          -2.477365479842     0.044389627485    -3.618713721530    12.000000000000
      Gh(N)           1.085221520158    -0.005016372515    -4.086692721530    14.003074004430
      Gh(H)           1.385145520158    -0.015870372515    -6.222839721530     1.007825032230
      Gh(H)          -1.385302479842    -0.006204372515    -6.222685721530     1.007825032230
      Gh(H)          -0.000009479842     0.000006627485    -2.224202721530     1.007825032230
      Gh(C)           2.478116520158    -0.021908372515    -3.621594721530    12.000000000000
      Gh(H)           2.490591520158     0.005436627485    -2.531341721530     1.007825032230
      Gh(H)           2.967027520158    -0.935354372515    -3.968770721530     1.007825032230
      Gh(H)           3.001427520158     0.853574627485    -4.013066721530     1.007825032230
      Gh(H)          -2.857359479842     1.066460627485    -3.698672721530     1.007825032230
      Gh(H)          -3.082679479842    -0.625694372515    -4.231777721530     1.007825032230
      Gh(H)          -2.518128479842    -0.282594372515    -2.578765721530     1.007825032230
         C            1.225311895423     0.707538288405     0.616665905754    12.000000000000
         C            1.225323856051    -0.707538895085     0.604335096184    12.000000000000
         C           -0.000006153932     1.414965913575     0.603801472663    12.000000000000
         C            2.456448753949     1.418327886663     0.619552763154    12.000000000000
         C            0.000010827279    -1.414976499150     0.614001029987    12.000000000000
         C           -1.225300948908     0.707545373469     0.618917426076    12.000000000000
         C            2.456437755320    -1.418323304396     0.602089939327    12.000000000000
         C           -0.000001332978     2.836801030766     0.601397922529    12.000000000000
         C            3.681826697470     0.709317955486     0.602438729125    12.000000000000
         C            2.455120048865     2.834223660974     0.602336172164    12.000000000000
         C            3.681821105219    -0.709333839944     0.618511213143    12.000000000000
         C           -1.225313598688    -0.707527516059     0.605407857610    12.000000000000
         C            1.226699581202     3.543469483479     0.618695245074    12.000000000000
         C            0.000004784858    -2.836782139751     0.618849197609    12.000000000000
         C           -2.456436032848     1.418316917770     0.618952821922    12.000000000000
         C            2.455123417779    -2.834230029103     0.618359304775    12.000000000000
         C           -1.226714364589     3.543469063235     0.618798578293    12.000000000000
         C            4.914517295202     1.427172871975     0.608919412154    12.000000000000
         C            3.693150191476     3.542795292030     0.608969211790    12.000000000000
         C           -2.456437600068    -1.418313281354     0.602064901202    12.000000000000
         C            1.226704841943    -3.543474242421     0.602725114324    12.000000000000
         C           -2.455125398508     2.834216662119     0.602342548510    12.000000000000
         C            4.914524380782    -1.427186910459     0.611892154889    12.000000000000
         C            1.221424613699     4.970134064745     0.612030589148    12.000000000000
         C            4.893008229321     2.825187999512     0.610136080513    12.000000000000
         C           -1.226697008489    -3.543470997592     0.602992318733    12.000000000000
         C           -3.681818976526     0.709324966217     0.602451409605    12.000000000000
         C            3.693147101150    -3.542801341905     0.612010045449    12.000000000000
         C           -1.221432251994     4.970128297348     0.612214084521    12.000000000000
         C            6.134770972926     0.680547946591     0.609689186704    12.000000000000
         C            3.656788880610     4.972953243053     0.609877849573    12.000000000000
         C           -2.455126907733    -2.834215093576     0.618114946977    12.000000000000
         C           -3.681819179061    -0.709325703983     0.618628834722    12.000000000000
         C            4.893012617914    -2.825200106147     0.610747232408    12.000000000000
         C           -0.000001073113     5.650447365518     0.610982775814    12.000000000000
         C            6.134775112332    -0.680554854590     0.610954507220    12.000000000000
         C            2.478131482856     5.653576750817     0.611166629223    12.000000000000
         C            1.221422404738    -4.970127055448     0.609231092126    12.000000000000
         C           -3.693162383965     3.542796953677     0.609134719250    12.000000000000
         C           -1.221428520945    -4.970118304111     0.609118330293    12.000000000000
         C           -4.914521807942     1.427175446480     0.608996357162    12.000000000000
         C            3.656787019679    -4.972955226754     0.611328350107    12.000000000000
         C           -2.478138530106     5.653574422014     0.611451154231    12.000000000000
         C           -3.693141738564    -3.542790219494     0.611893919294    12.000000000000
         C           -4.914512483053    -1.427181000542     0.611926852062    12.000000000000
         C           -0.000006008926    -5.650438287528     0.610587271693    12.000000000000
         C           -4.893020484101     2.825188598404     0.610125998653    12.000000000000
         C            2.478125993298    -5.653573544403     0.610237749315    12.000000000000
         C           -3.656798710258     4.972956181527     0.610054529947    12.000000000000
         C           -4.892999478856    -2.825191767575     0.610593196711    12.000000000000
         C           -2.478128498083    -5.653566170521     0.609962561667    12.000000000000
         C           -6.134770503331     0.680548765741     0.609663635002    12.000000000000
         C           -3.656788833189    -4.972944023485     0.611114062290    12.000000000000
         C           -6.134765042913    -0.680553915997     0.610934031425    12.000000000000
         H            5.835288495816     3.369275894439     0.614495406176     1.007825032230
         H            7.073859172747     1.228217248385     0.610150830097     1.007825032230
         H            4.600663264174     5.512380801938     0.610383050325     1.007825032230
         H            5.835283387305    -3.369306057244     0.606292765094     1.007825032230
         H           -0.000012151306     6.738530673622     0.606633530806     1.007825032230
         H            7.073861171831    -1.228226943259     0.610445769125     1.007825032230
         H            2.473313731799     6.740684290880     0.610699908292     1.007825032230
         H            4.600668491381    -5.512376129691     0.610918352939     1.007825032230
         H           -2.473318680537     6.740681719092     0.611001254917     1.007825032230
         H           -0.000010268228    -6.738528176967     0.615116956678     1.007825032230
         H           -5.835301914343     3.369270949781     0.614631428324     1.007825032230
         H            2.473307923831    -6.740685374944     0.610808079740     1.007825032230
         H           -4.600674841208     5.512378026089     0.610548378649     1.007825032230
         H           -5.835279506835    -3.369288964294     0.606013459213     1.007825032230
         H           -2.473300347440    -6.740679078655     0.610358763195     1.007825032230
         H           -7.073857766768     1.228220472326     0.610066838616     1.007825032230
         H           -4.600673786085    -5.512362670301     0.610746044916     1.007825032230
         H           -7.073856934409    -1.228220632492     0.610350912659     1.007825032230

  Charge       = 0
  Multiplicity = 1
  Basis Set: JUN-CC-PVDZ
    Blend: JUN-CC-PVDZ
  Basis Set: (JUN-CC-PVDZ AUX)
    Blend: JUN-CC-PVDZ-JKFIT

    Orbital Energies [Eh]
    ---------------------

    Doubly Occupied:

       1A    -11.260584     2A    -11.260169     3A    -11.260099
       4A    -11.259428     5A    -11.259372     6A    -11.259219
       7A    -11.258996     8A    -11.258942     9A    -11.258896
      10A    -11.258593    11A    -11.258580    12A    -11.258491
      13A    -11.258432    14A    -11.258425    15A    -11.258422
      16A    -11.258392    17A    -11.258383    18A    -11.258365
      19A    -11.258360    20A    -11.258352    21A    -11.258349
      22A    -11.258289    23A    -11.258260    24A    -11.258011
      25A    -11.257304    26A    -11.257266    27A    -11.257210
      28A    -11.257122    29A    -11.257075    30A    -11.257013
      31A    -11.256407    32A    -11.256364    33A    -11.256293
      34A    -11.256234    35A    -11.256184    36A    -11.256158
      37A    -11.252240    38A    -11.252240    39A    -11.252237
      40A    -11.252237    41A    -11.252224    42A    -11.252223
      43A    -11.251342    44A    -11.251340    45A    -11.251337
      46A    -11.251333    47A    -11.251331    48A    -11.251327
      49A    -11.250802    50A    -11.250801    51A    -11.250798
      52A    -11.250797    53A    -11.250785    54A    -11.250785
      55A     -1.243961    56A     -1.219731    57A     -1.219710
      58A     -1.189461    59A     -1.189446    60A     -1.180846
      61A     -1.157483    62A     -1.148897    63A     -1.135407
      64A     -1.135381    65A     -1.113116    66A     -1.113112
      67A     -1.082342    68A     -1.082330    69A     -1.078507
      70A     -1.065909    71A     -1.065901    72A     -1.039314
      73A     -1.024173    74A     -1.021671    75A     -1.021608
      76A     -1.017650    77A     -1.012726    78A     -0.986933
      79A     -0.986875    80A     -0.961803    81A     -0.961748
      82A     -0.894204    83A     -0.894182    84A     -0.887822
      85A     -0.886072    86A     -0.886028    87A     -0.881292
      88A     -0.881249    89A     -0.861817    90A     -0.837342
      91A     -0.818118    92A     -0.816512    93A     -0.812034
      94A     -0.812031    95A     -0.794612    96A     -0.794597
      97A     -0.746516    98A     -0.744760    99A     -0.733313
     100A     -0.733306   101A     -0.732098   102A     -0.732076
     103A     -0.716400   104A     -0.698898   105A     -0.698864
     106A     -0.693505   107A     -0.693459   108A     -0.661150
     109A     -0.653012   110A     -0.651052   111A     -0.650177
     112A     -0.650167   113A     -0.639284   114A     -0.639258
     115A     -0.629616   116A     -0.627421   117A     -0.627411
     118A     -0.606435   119A     -0.605751   120A     -0.601554
     121A     -0.599663   122A     -0.599596   123A     -0.593534
     124A     -0.591116   125A     -0.591080   126A     -0.585212
     127A     -0.576470   128A     -0.576318   129A     -0.567252
     130A     -0.567229   131A     -0.565856   132A     -0.565844
     133A     -0.558620   134A     -0.554767   135A     -0.554757
     136A     -0.538512   137A     -0.538511   138A     -0.538219
     139A     -0.538156   140A     -0.529625   141A     -0.528157
     142A     -0.522796   143A     -0.522760   144A     -0.500422
     145A     -0.495591   146A     -0.493150   147A     -0.487799
     148A     -0.484969   149A     -0.481657   150A     -0.481654
     151A     -0.470327   152A     -0.470256   153A     -0.450900
     154A     -0.450834   155A     -0.439026   156A     -0.439023
     157A     -0.404729   158A     -0.404663   159A     -0.403342
     160A     -0.375382   161A     -0.375375   162A     -0.349092
     163A     -0.337538   164A     -0.336477   165A     -0.336466
     166A     -0.311044   167A     -0.298069   168A     -0.284280
     169A     -0.284239   170A     -0.224854   171A     -0.224796

  @DF-RHF Final Energy: -2055.89449039524334

   => Energetics <=

    Nuclear Repulsion Energy =           6452.5568002797781446
    One-Electron Energy =              -15636.5072211533370137
    Two-Electron Energy =                7128.0559304783164407
    Total Energy =                      -2055.8944903952433378
 Dipole X            :         -0.0000563           -0.0000085           -0.0000649
 Dipole Y            :         -0.0002531            0.0000167           -0.0002364
 Dipole Z            :       -394.5694042          394.5746405            0.0052363
 Magnitude           :                                                    0.0052420

    SAPT Results
  --------------------------------------------------------------------------------------------------------
    Electrostatics                -12.65223994 [mEh]      -7.93940042 [kcal/mol]     -33.21845138 [kJ/mol]
      Elst10,r                    -12.65223994 [mEh]      -7.93940042 [kcal/mol]     -33.21845138 [kJ/mol]

    Exchange                        2.49851594 [mEh]       1.56784242 [kcal/mol]       6.55985269 [kJ/mol]
      Exch10                        2.49851594 [mEh]       1.56784242 [kcal/mol]       6.55985269 [kJ/mol]
      Exch10(S^2)                   2.49633291 [mEh]       1.56647255 [kcal/mol]       6.55412116 [kJ/mol]

    Induction                     -10.04489698 [mEh]      -6.30326802 [kcal/mol]     -26.37287338 [kJ/mol]
      Ind20,r                      -9.53458992 [mEh]      -5.98304551 [kcal/mol]     -25.03306240 [kJ/mol]
      Exch-Ind20,r                  0.48901524 [mEh]       0.30686170 [kcal/mol]       1.28390935 [kJ/mol]
      delta HF,r (2)               -0.99932230 [mEh]      -0.62708421 [kcal/mol]      -2.62372033 [kJ/mol]

    Dispersion                    -11.63329174 [mEh]      -7.30000078 [kcal/mol]     -30.54320326 [kJ/mol]
      Disp20                      -11.90784285 [mEh]      -7.47228420 [kcal/mol]     -31.26403710 [kJ/mol]
      Exch-Disp20                   0.27455111 [mEh]       0.17228342 [kcal/mol]       0.72083384 [kJ/mol]
      Disp20 (SS)                  -5.95392143 [mEh]      -3.73614210 [kcal/mol]     -15.63201855 [kJ/mol]
      Disp20 (OS)                  -5.95392143 [mEh]      -3.73614210 [kcal/mol]     -15.63201855 [kJ/mol]
      Exch-Disp20 (SS)              0.17047080 [mEh]       0.10697204 [kcal/mol]       0.44757101 [kJ/mol]
      Exch-Disp20 (OS)              0.10408031 [mEh]       0.06531138 [kcal/mol]       0.27326283 [kJ/mol]

  Total HF                        -20.19862098 [mEh]     -12.67482602 [kcal/mol]     -53.03147207 [kJ/mol]
  Total SAPT0                     -31.83191272 [mEh]     -19.97482680 [kcal/mol]     -83.57467533 [kJ/mol]

  Special recipe for scaled SAPT0 (see Manual):
    Electrostatics sSAPT0         -12.65223994 [mEh]      -7.93940042 [kcal/mol]     -33.21845138 [kJ/mol]
    Exchange sSAPT0                 2.49851594 [mEh]       1.56784242 [kcal/mol]       6.55985269 [kJ/mol]
    Induction sSAPT0              -10.04361293 [mEh]      -6.30246227 [kcal/mol]     -26.36950213 [kJ/mol]
    Dispersion sSAPT0             -11.63257083 [mEh]      -7.29954840 [kcal/mol]     -30.54131052 [kJ/mol]
  Total sSAPT0                    -31.82990777 [mEh]     -19.97356867 [kcal/mol]     -83.56941133 [kJ/mol]
  --------------------------------------------------------------------------------------------------------

*** Psi4 exiting successfully. Buy a developer a beer!
