                               Psi4 1.9 release

  ==> Input File <==

--------------------------------------------------------------------------
memory 32 GB # how much memory is available ! Depends on the nodes/cores !

molecule dimer {
# monomer A
+1 1    # Charge and multiplicity
C  0.680067 -1.215929 2.408042
C -0.680504 -1.215545 2.406014
N -1.085635  0.102779 2.405016
C  0.000108  0.884180 2.401740
C -2.477365  0.570758 2.355610
N  1.085222  0.102779 2.405016
H  1.385146 -2.033368 2.415870
H -1.385302 -2.033214 2.406204
H -0.000009  1.965269 2.399993
C  2.478117  0.567877 2.421908
H  2.490592  1.658130 2.394563
H  2.967028  0.220701 3.335354
H  3.001428  0.176405 1.546425
H -2.857359  0.490799 1.333539
H -3.082679 -0.042306 3.025694
H -2.518128  1.610706 2.682594
--
# monomer B
0 1     # Charge and multiplicity
C   1.22531237526482      0.70753866091955      0.00613762728373
C   1.22532433589282     -0.70753852257020     -0.00619318228664
C   -0.00000567409046      1.41496628609039     -0.00672680580738
C   2.45644923379077      1.41832825917820      0.00902448468363
C   0.00001130712078     -1.41497612663474      0.00347275151708
C   -1.22530046906674      0.70754574598412      0.00838914760619
C   2.45643823516184     -1.41832293188077     -0.00843833914343
C   -0.00000085313587      2.83680140328112     -0.00913035594137
C   3.68182717731192      0.70931832800114     -0.00808954934571
C   2.45512052870677      2.83422403348893     -0.00819210630633
C   3.68182158506039     -0.70933346742900      0.00798293467272
C   -1.22531311884624     -0.70752714354401     -0.00512042085974
C   1.22670006104402      3.54346985599427      0.00816696660346
C   0.00000526469929     -2.83678176723568      0.00832091913869
C   -2.45643555300670      1.41831729028492      0.00842454345199
C   2.45512389762097     -2.83422965658853      0.00783102630520
C   -1.22671388474763      3.54346943575023      0.00827029982280
C   4.91451777504333      1.42717324448953     -0.00160886631602
C   3.69315067131765      3.54279566454522     -0.00155906667985
C   -2.45643712022637     -1.41831290883911     -0.00846337726810
C   1.22670532178455     -3.54347386990643     -0.00780316414624
C   -2.45512491866593      2.83421703463423     -0.00818572995999
C   4.91452486062398     -1.42718653794377      0.00136387641845
C   1.22142509354026      4.97013443726031      0.00150231067809
C   4.89300870916237      2.82518837202648     -0.00039219795739
C   -1.22669652864725     -3.54347062507680     -0.00753595973677
C   -3.68181849668397      0.70932533873199     -0.00807686886569
C   3.69314758099218     -3.54280096939050      0.00148176697923
C   -1.22143177215231      4.97012866986289      0.00168580605083
C   6.13477145276790      0.68054831910577     -0.00083909176631
C   3.65678936045204      4.97295361556775     -0.00065042889723
C   -2.45512642789169     -2.83421472106065      0.00758666850712
C   -3.68181869921921     -0.70932533146830      0.00810055625144
C   4.89301309775526     -2.82519973363176      0.00021895393805
C   -0.00000059327114      5.65044773803267      0.00045449734393
C   6.13477559217374     -0.68055448207492      0.00042622874941
C   2.47813196269732      5.65357712333155      0.00063835075260
C   1.22142288457925     -4.97012668293268     -0.00129718634452
C   -3.69316190412301      3.54279732619245     -0.00139355922051
C   -1.22142804110313     -4.97011793159564     -0.00140994817719
C   -4.91452132810043      1.42717581899491     -0.00153192130862
C   3.65678749952045     -4.97295485423912      0.00080007163680
C   -2.47813805026426      5.65357479452875      0.00092287576113
C   -3.69314125872231     -3.54278984697859      0.00136564082345
C   -4.91451200321153     -1.42718062802730      0.00139857359209
C   -0.00000552908399     -5.65043791501335      0.00005899322272
C   -4.89302000425900      2.82518897091939     -0.00040227981744
C   2.47812647313991     -5.65357317188818     -0.00029052915548
C   -3.65679823041642      4.97295655404175     -0.00047374852278
C   -4.89299899901461     -2.82519139505969      0.00006491824035
C   -2.47812801824129     -5.65356579800621     -0.00056571680280
C   -6.13477002348955      0.68054913825639     -0.00086464346868
C   -3.65678835334731     -4.97294365097028      0.00058578382008
C   -6.13476456307132     -0.68055354348201      0.00040575295444
H   5.83528897565761      3.36927626695423      0.00396712770529
H   7.07385965258860      1.22821762089947     -0.00037744837300
H   4.60066374401555      5.51238117445323     -0.00014522814529
H   5.83528386714679     -3.36930568472863     -0.00423551337640
H   -0.00001167146422      6.73853104613662     -0.00389474766392
H   7.07386165167227     -1.22822657074368     -0.00008250934481
H   2.47331421164041      6.74068466339473      0.00017162982210
H   4.60066897122302     -5.51237575717576      0.00039007446835
H   -2.47331820069565      6.74068209160650      0.00047297644710
H   -0.00000978838621     -6.73852780445195      0.00458867820736
H   -5.83530143450167      3.36927132229595      0.00410314985360
H   2.47330840367253     -6.74068500242887      0.00027980126949
H   -4.60067436136587      5.51237839860371      0.00002010017831
H   -5.83527902699321     -3.36928859177951     -0.00451481925734
H   -2.47329986759855     -6.74067870613986     -0.00016951527498
H   -7.07385728692578      1.22822084484047     -0.00046143985387
H   -4.60067330624313     -5.51236229778631      0.00021776644566
H   -7.07385645456741     -1.22822025997701     -0.00017736581114

    units angstrom      # Angstroms are the default
    no_reorient         # Geometry fixed, default
    symmetry c1         # C1 symmetry, default
}

set {
    scf_type DF         # Density fitting, faster than exact integrals
    freeze_core True    # Freeze core electrons
    basis jun-cc-pVDZ   # Jun-cc-pVDZ basis set, recommended for sSAPT0 in https://doi.org/10.1063/1.4867135
}

energy('ssapt0')        # Compute sSAPT0 energy, includes also SAPT0
--------------------------------------------------------------------------

  //              Dimer HF             //
    Molecular point group: c1
  Charge       = 1
  Multiplicity = 1
  Basis Set: JUN-CC-PVDZ
    Blend: JUN-CC-PVDZ
  Basis Set: (JUN-CC-PVDZ AUX)
    Blend: JUN-CC-PVDZ-JKFIT
  @DF-RHF Final Energy: -2358.93268530206478
    Total Energy =                      -2358.9326853020647832
 Dipole X            :          0.0134591            0.0006313            0.0140904
 Dipole Y            :         -1.7962572            1.8864948            0.0902376
 Dipole Z            :        -10.3796106           12.4545389            2.0749284
 Magnitude           :                                                    2.0769374
  //            Monomer A HF           //
    Molecular point group: c1
  Multiplicity = 1
  Basis Set: JUN-CC-PVDZ
    Blend: JUN-CC-PVDZ
  Basis Set: (JUN-CC-PVDZ AUX)
    Blend: JUN-CC-PVDZ-JKFIT
  @DF-RHF Final Energy:  -303.30100891666871
    Total Energy =                       -303.3010089166687067
  //            Monomer B HF           //
    Molecular point group: c1

    Geometry (in Angstrom), charge = 0, multiplicity = 1:

       Center              X                  Y                   Z               Mass
    ------------   -----------------  -----------------  -----------------  -----------------
      Gh(C)           0.680066520158    -1.215933861162     2.102778905741    12.000000000000
      Gh(C)          -0.680504479842    -1.215549861162     2.100750905741    12.000000000000
      Gh(N)          -1.085635479842     0.102774138838     2.099752905741    14.003074004430
      Gh(C)           0.000107520158     0.884175138838     2.096476905741    12.000000000000
      Gh(C)          -2.477365479842     0.570753138838     2.050346905741    12.000000000000
      Gh(N)           1.085221520158     0.102774138838     2.099752905741    14.003074004430
      Gh(H)           1.385145520158    -2.033372861162     2.110606905741     1.007825032230
      Gh(H)          -1.385302479842    -2.033218861162     2.100940905741     1.007825032230
      Gh(H)          -0.000009479842     1.965264138838     2.094729905741     1.007825032230
      Gh(C)           2.478116520158     0.567872138838     2.116644905741    12.000000000000
      Gh(H)           2.490591520158     1.658125138838     2.089299905741     1.007825032230
      Gh(H)           2.967027520158     0.220696138838     3.030090905741     1.007825032230
      Gh(H)           3.001427520158     0.176400138838     1.241161905741     1.007825032230
      Gh(H)          -2.857359479842     0.490794138838     1.028275905741     1.007825032230
      Gh(H)          -3.082679479842    -0.042310861162     2.720430905741     1.007825032230
      Gh(H)          -2.518128479842     1.610701138838     2.377330905741     1.007825032230
         C            1.225311895423     0.707533799757    -0.299125466975    12.000000000000
         C            1.225323856051    -0.707543383733    -0.311456276545    12.000000000000
         C           -0.000006153932     1.414961424928    -0.311989900066    12.000000000000
         C            2.456448753949     1.418323398016    -0.296238609575    12.000000000000
         C            0.000010827279    -1.414980987797    -0.301790342741    12.000000000000
         C           -1.225300948908     0.707540884822    -0.296873946652    12.000000000000
         C            2.456437755320    -1.418327793043    -0.313701433402    12.000000000000
         C           -0.000001332978     2.836796542119    -0.314393450200    12.000000000000
         C            3.681826697470     0.709313466839    -0.313352643604    12.000000000000
         C            2.455120048865     2.834219172327    -0.313455200565    12.000000000000
         C            3.681821105219    -0.709338328591    -0.297280159586    12.000000000000
         C           -1.225313598688    -0.707532004706    -0.310383515118    12.000000000000
         C            1.226699581202     3.543464994832    -0.297096127655    12.000000000000
         C            0.000004784858    -2.836786628398    -0.296942175120    12.000000000000
         C           -2.456436032848     1.418312429123    -0.296838550807    12.000000000000
         C            2.455123417779    -2.834234517751    -0.297432067953    12.000000000000
         C           -1.226714364589     3.543464574588    -0.296992794436    12.000000000000
         C            4.914517295202     1.427168383327    -0.306871960575    12.000000000000
         C            3.693150191476     3.542790803383    -0.306822160938    12.000000000000
         C           -2.456437600068    -1.418317770001    -0.313726471527    12.000000000000
         C            1.226704841943    -3.543478731069    -0.313066258405    12.000000000000
         C           -2.455125398508     2.834212173472    -0.313448824219    12.000000000000
         C            4.914524380782    -1.427191399106    -0.303899217840    12.000000000000
         C            1.221424613699     4.970129576098    -0.303760783580    12.000000000000
         C            4.893008229321     2.825183510864    -0.305655292216    12.000000000000
         C           -1.226697008489    -3.543475486239    -0.312799053995    12.000000000000
         C           -3.681818976526     0.709320477570    -0.313339963124    12.000000000000
         C            3.693147101150    -3.542805830553    -0.303781327279    12.000000000000
         C           -1.221432251994     4.970123808701    -0.303577288208    12.000000000000
         C            6.134770972926     0.680543457943    -0.306102186025    12.000000000000
         C            3.656788880610     4.972948754405    -0.305913523156    12.000000000000
         C           -2.455126907733    -2.834219582223    -0.297676425751    12.000000000000
         C           -3.681819179061    -0.709330192631    -0.297162538007    12.000000000000
         C            4.893012617914    -2.825204594794    -0.305044140321    12.000000000000
         C           -0.000001073113     5.650442876870    -0.304808596915    12.000000000000
         C            6.134775112332    -0.680559343237    -0.304836865509    12.000000000000
         C            2.478131482856     5.653572262169    -0.304624743506    12.000000000000
         C            1.221422404738    -4.970131544095    -0.306560280603    12.000000000000
         C           -3.693162383965     3.542792465030    -0.306656653479    12.000000000000
         C           -1.221428520945    -4.970122792758    -0.306673042436    12.000000000000
         C           -4.914521807942     1.427170957833    -0.306795015567    12.000000000000
         C            3.656787019679    -4.972959715401    -0.304463022622    12.000000000000
         C           -2.478138530106     5.653569933366    -0.304340218497    12.000000000000
         C           -3.693141738564    -3.542794708141    -0.303897453435    12.000000000000
         C           -4.914512483053    -1.427185489190    -0.303864520666    12.000000000000
         C           -0.000006008926    -5.650442776176    -0.305204101036    12.000000000000
         C           -4.893020484101     2.825184109757    -0.305665374076    12.000000000000
         C            2.478125993298    -5.653578033051    -0.305553623414    12.000000000000
         C           -3.656798710258     4.972951692879    -0.305736842781    12.000000000000
         C           -4.892999478856    -2.825196256222    -0.305198176018    12.000000000000
         C           -2.478128498083    -5.653570659169    -0.305828811061    12.000000000000
         C           -6.134770503331     0.680544277094    -0.306127737727    12.000000000000
         C           -3.656788833189    -4.972948512133    -0.304677310438    12.000000000000
         C           -6.134765042913    -0.680558404644    -0.304857341304    12.000000000000
         H            5.835288495816     3.369271405792    -0.301295966553     1.007825032230
         H            7.073859172747     1.228212759737    -0.305640542632     1.007825032230
         H            4.600663264174     5.512376313291    -0.305408322404     1.007825032230
         H            5.835283387305    -3.369310545891    -0.309498607635     1.007825032230
         H           -0.000012151306     6.738526184974    -0.309157841922     1.007825032230
         H            7.073861171831    -1.228231431906    -0.305345603603     1.007825032230
         H            2.473313731799     6.740679802232    -0.305091464436     1.007825032230
         H            4.600668491381    -5.512380618338    -0.304873019790     1.007825032230
         H           -2.473318680537     6.740677230444    -0.304790117811     1.007825032230
         H           -0.000010268228    -6.738532665614    -0.300674416051     1.007825032230
         H           -5.835301914343     3.369266461134    -0.301159944405     1.007825032230
         H            2.473307923831    -6.740689863591    -0.304983292989     1.007825032230
         H           -4.600674841208     5.512373537441    -0.305242994080     1.007825032230
         H           -5.835279506835    -3.369293452942    -0.309777913516     1.007825032230
         H           -2.473300347440    -6.740683567302    -0.305432609534     1.007825032230
         H           -7.073857766768     1.228215983678    -0.305724534112     1.007825032230
         H           -4.600673786085    -5.512367158949    -0.305045327813     1.007825032230
         H           -7.073856934409    -1.228225121139    -0.305440460070     1.007825032230

  Charge       = 0
  Multiplicity = 1
  Basis Set: JUN-CC-PVDZ
    Blend: JUN-CC-PVDZ
  Basis Set: (JUN-CC-PVDZ AUX)
    Blend: JUN-CC-PVDZ-JKFIT

    Orbital Energies [Eh]
    ---------------------

    Doubly Occupied:

       1A    -11.260643     2A    -11.260189     3A    -11.260179
       4A    -11.259404     5A    -11.259396     6A    -11.259192
       7A    -11.258923     8A    -11.258858     9A    -11.258840
      10A    -11.258525    11A    -11.258523    12A    -11.258351
      13A    -11.258313    14A    -11.258298    15A    -11.258286
      16A    -11.258258    17A    -11.258255    18A    -11.258237
      19A    -11.258230    20A    -11.258229    21A    -11.258210
      22A    -11.258190    23A    -11.258183    24A    -11.258019
      25A    -11.257167    26A    -11.257106    27A    -11.257095
      28A    -11.256979    29A    -11.256976    30A    -11.256890
      31A    -11.256265    32A    -11.256195    33A    -11.256181
      34A    -11.256089    35A    -11.256084    36A    -11.256027
      37A    -11.252124    38A    -11.252114    39A    -11.252081
      40A    -11.252080    41A    -11.252078    42A    -11.252076
      43A    -11.251196    44A    -11.251182    45A    -11.251164
      46A    -11.251160    47A    -11.251154    48A    -11.251148
      49A    -11.250685    50A    -11.250674    51A    -11.250643
      52A    -11.250641    53A    -11.250639    54A    -11.250636
      55A     -1.243708    56A     -1.219496    57A     -1.219467
      58A     -1.189239    59A     -1.189218    60A     -1.180622
      61A     -1.157274    62A     -1.148676    63A     -1.135176
      64A     -1.135146    65A     -1.112914    66A     -1.112906
      67A     -1.082102    68A     -1.082093    69A     -1.078278
      70A     -1.065712    71A     -1.065702    72A     -1.039091
      73A     -1.023909    74A     -1.021429    75A     -1.021365
      76A     -1.017449    77A     -1.012536    78A     -0.986693
      79A     -0.986632    80A     -0.961597    81A     -0.961543
      82A     -0.893997    83A     -0.893975    84A     -0.887572
      85A     -0.885813    86A     -0.885779    87A     -0.881047
      88A     -0.881002    89A     -0.861607    90A     -0.837158
      91A     -0.817889    92A     -0.816253    93A     -0.811797
      94A     -0.811791    95A     -0.794408    96A     -0.794392
      97A     -0.746257    98A     -0.744520    99A     -0.733076
     100A     -0.733059   101A     -0.731890   102A     -0.731863
     103A     -0.716174   104A     -0.698681   105A     -0.698644
     106A     -0.693272   107A     -0.693228   108A     -0.660938
     109A     -0.652778   110A     -0.650794   111A     -0.649975
     112A     -0.649970   113A     -0.639069   114A     -0.639048
     115A     -0.629385   116A     -0.627183   117A     -0.627173
     118A     -0.606439   119A     -0.605589   120A     -0.601311
     121A     -0.599442   122A     -0.599370   123A     -0.593292
     124A     -0.590850   125A     -0.590813   126A     -0.585026
     127A     -0.576381   128A     -0.576310   129A     -0.567057
     130A     -0.567038   131A     -0.565613   132A     -0.565610
     133A     -0.558376   134A     -0.554562   135A     -0.554552
     136A     -0.538306   137A     -0.538305   138A     -0.538120
     139A     -0.538110   140A     -0.529402   141A     -0.528100
     142A     -0.522577   143A     -0.522541   144A     -0.500217
     145A     -0.495481   146A     -0.492937   147A     -0.487694
     148A     -0.484731   149A     -0.481426   150A     -0.481425
     151A     -0.470227   152A     -0.470221   153A     -0.450645
     154A     -0.450582   155A     -0.438919   156A     -0.438910
     157A     -0.404562   158A     -0.404560   159A     -0.403198
     160A     -0.375252   161A     -0.375246   162A     -0.348931
     163A     -0.337410   164A     -0.336368   165A     -0.336352
     166A     -0.310881   167A     -0.297934   168A     -0.284124
     169A     -0.284091   170A     -0.224711   171A     -0.224648

  @DF-RHF Final Energy: -2055.89789882952664

   => Energetics <=

    Nuclear Repulsion Energy =           6452.5568002797772351
    One-Electron Energy =              -15636.5724160046556790
    Two-Electron Energy =                7128.1177168953518049
    Total Energy =                      -2055.8978988295266390
 Dipole X            :         -0.0010469           -0.0000085           -0.0010554
 Dipole Y            :         -0.0003130           -0.0028843           -0.0031973
 Dipole Z            :        197.2940608         -197.2888093            0.0052515
 Magnitude           :                                                    0.0062381

    SAPT Results
  --------------------------------------------------------------------------------------------------------
    Electrostatics               -196.24000459 [mEh]    -123.14246202 [kcal/mol]    -515.22806108 [kJ/mol]
      Elst10,r                   -196.24000459 [mEh]    -123.14246202 [kcal/mol]    -515.22806108 [kJ/mol]

    Exchange                      525.64824687 [mEh]     329.84925479 [kcal/mol]    1380.08928202 [kJ/mol]
      Exch10                      525.64824687 [mEh]     329.84925479 [kcal/mol]    1380.08928202 [kJ/mol]
      Exch10(S^2)                 499.18723539 [mEh]     313.24471940 [kcal/mol]    1310.61590596 [kJ/mol]

    Induction                     -63.18579815 [mEh]     -39.64968694 [kcal/mol]    -165.89429018 [kJ/mol]
      Ind20,r                    -283.08646456 [mEh]    -177.63943841 [kcal/mol]    -743.24341030 [kJ/mol]
      Exch-Ind20,r                222.93504755 [mEh]     139.89385437 [kcal/mol]     585.31588669 [kJ/mol]
      delta HF,r (2)               -3.03438113 [mEh]      -1.90410291 [kcal/mol]      -7.96676657 [kJ/mol]

    Dispersion                   -148.27234524 [mEh]     -93.04230134 [kcal/mol]    -389.28898879 [kJ/mol]
      Disp20                     -184.55907212 [mEh]    -115.81256623 [kcal/mol]    -484.55977709 [kJ/mol]
      Exch-Disp20                  36.28672688 [mEh]      22.77026489 [kcal/mol]      95.27078830 [kJ/mol]
      Disp20 (SS)                 -92.27953606 [mEh]     -57.90628311 [kcal/mol]    -242.27988855 [kJ/mol]
      Disp20 (OS)                 -92.27953606 [mEh]     -57.90628311 [kcal/mol]    -242.27988855 [kJ/mol]
      Exch-Disp20 (SS)             21.43243810 [mEh]      13.44905796 [kcal/mol]      56.27085849 [kJ/mol]
      Exch-Disp20 (OS)             14.85428878 [mEh]       9.32120693 [kcal/mol]      38.99992981 [kJ/mol]

  Total HF                        266.22244413 [mEh]     167.05710582 [kcal/mol]     698.96693077 [kJ/mol]
  Total SAPT0                     117.95009889 [mEh]      74.01480449 [kcal/mol]     309.67794197 [kJ/mol]

  Special recipe for scaled SAPT0 (see Manual):
    Electrostatics sSAPT0        -196.24000459 [mEh]    -123.14246202 [kcal/mol]    -515.22806108 [kJ/mol]
    Exchange sSAPT0               525.64824687 [mEh]     329.84925479 [kcal/mol]    1380.08928202 [kJ/mol]
    Induction sSAPT0              -25.82118898 [mEh]     -16.20304071 [kcal/mol]     -67.79352233 [kJ/mol]
    Dispersion sSAPT0            -142.19057666 [mEh]     -89.22593394 [kcal/mol]    -373.32130759 [kJ/mol]
  Total sSAPT0                    161.39647664 [mEh]     101.27781812 [kcal/mol]     423.74639103 [kJ/mol]
  --------------------------------------------------------------------------------------------------------

*** Psi4 exiting successfully. Buy a developer a beer!
