                               Psi4 1.9 release

  ==> Input File <==

--------------------------------------------------------------------------
memory 32 GB # how much memory is available ! Depends on the nodes/cores !

molecule dimer {
# monomer A
+1 1    # Charge and multiplicity
C  0.680067 -1.215929 4.208042
C -0.680504 -1.215545 4.206014
N -1.085635  0.102779 4.205016
C  0.000108  0.884180 4.201740
C -2.477365  0.570758 4.155610
N  1.085222  0.102779 4.205016
H  1.385146 -2.033368 4.215870
H -1.385302 -2.033214 4.206204
H -0.000009  1.965269 4.199993
C  2.478117  0.567877 4.221908
H  2.490592  1.658130 4.194563
H  2.967028  0.220701 5.135354
H  3.001428  0.176405 3.346425
H -2.857359  0.490799 3.133539
H -3.082679 -0.042306 4.825694
H -2.518128  1.610706 4.482594
--
# monomer B
0 1     # Charge and multiplicity
C   1.22531237526482      0.70753866091955      0.00613762728373
C   1.22532433589282     -0.70753852257020     -0.00619318228664
C   -0.00000567409046      1.41496628609039     -0.00672680580738
C   2.45644923379077      1.41832825917820      0.00902448468363
C   0.00001130712078     -1.41497612663474      0.00347275151708
C   -1.22530046906674      0.70754574598412      0.00838914760619
C   2.45643823516184     -1.41832293188077     -0.00843833914343
C   -0.00000085313587      2.83680140328112     -0.00913035594137
C   3.68182717731192      0.70931832800114     -0.00808954934571
C   2.45512052870677      2.83422403348893     -0.00819210630633
C   3.68182158506039     -0.70933346742900      0.00798293467272
C   -1.22531311884624     -0.70752714354401     -0.00512042085974
C   1.22670006104402      3.54346985599427      0.00816696660346
C   0.00000526469929     -2.83678176723568      0.00832091913869
C   -2.45643555300670      1.41831729028492      0.00842454345199
C   2.45512389762097     -2.83422965658853      0.00783102630520
C   -1.22671388474763      3.54346943575023      0.00827029982280
C   4.91451777504333      1.42717324448953     -0.00160886631602
C   3.69315067131765      3.54279566454522     -0.00155906667985
C   -2.45643712022637     -1.41831290883911     -0.00846337726810
C   1.22670532178455     -3.54347386990643     -0.00780316414624
C   -2.45512491866593      2.83421703463423     -0.00818572995999
C   4.91452486062398     -1.42718653794377      0.00136387641845
C   1.22142509354026      4.97013443726031      0.00150231067809
C   4.89300870916237      2.82518837202648     -0.00039219795739
C   -1.22669652864725     -3.54347062507680     -0.00753595973677
C   -3.68181849668397      0.70932533873199     -0.00807686886569
C   3.69314758099218     -3.54280096939050      0.00148176697923
C   -1.22143177215231      4.97012866986289      0.00168580605083
C   6.13477145276790      0.68054831910577     -0.00083909176631
C   3.65678936045204      4.97295361556775     -0.00065042889723
C   -2.45512642789169     -2.83421472106065      0.00758666850712
C   -3.68181869921921     -0.70932533146830      0.00810055625144
C   4.89301309775526     -2.82519973363176      0.00021895393805
C   -0.00000059327114      5.65044773803267      0.00045449734393
C   6.13477559217374     -0.68055448207492      0.00042622874941
C   2.47813196269732      5.65357712333155      0.00063835075260
C   1.22142288457925     -4.97012668293268     -0.00129718634452
C   -3.69316190412301      3.54279732619245     -0.00139355922051
C   -1.22142804110313     -4.97011793159564     -0.00140994817719
C   -4.91452132810043      1.42717581899491     -0.00153192130862
C   3.65678749952045     -4.97295485423912      0.00080007163680
C   -2.47813805026426      5.65357479452875      0.00092287576113
C   -3.69314125872231     -3.54278984697859      0.00136564082345
C   -4.91451200321153     -1.42718062802730      0.00139857359209
C   -0.00000552908399     -5.65043791501335      0.00005899322272
C   -4.89302000425900      2.82518897091939     -0.00040227981744
C   2.47812647313991     -5.65357317188818     -0.00029052915548
C   -3.65679823041642      4.97295655404175     -0.00047374852278
C   -4.89299899901461     -2.82519139505969      0.00006491824035
C   -2.47812801824129     -5.65356579800621     -0.00056571680280
C   -6.13477002348955      0.68054913825639     -0.00086464346868
C   -3.65678835334731     -4.97294365097028      0.00058578382008
C   -6.13476456307132     -0.68055354348201      0.00040575295444
H   5.83528897565761      3.36927626695423      0.00396712770529
H   7.07385965258860      1.22821762089947     -0.00037744837300
H   4.60066374401555      5.51238117445323     -0.00014522814529
H   5.83528386714679     -3.36930568472863     -0.00423551337640
H   -0.00001167146422      6.73853104613662     -0.00389474766392
H   7.07386165167227     -1.22822657074368     -0.00008250934481
H   2.47331421164041      6.74068466339473      0.00017162982210
H   4.60066897122302     -5.51237575717576      0.00039007446835
H   -2.47331820069565      6.74068209160650      0.00047297644710
H   -0.00000978838621     -6.73852780445195      0.00458867820736
H   -5.83530143450167      3.36927132229595      0.00410314985360
H   2.47330840367253     -6.74068500242887      0.00027980126949
H   -4.60067436136587      5.51237839860371      0.00002010017831
H   -5.83527902699321     -3.36928859177951     -0.00451481925734
H   -2.47329986759855     -6.74067870613986     -0.00016951527498
H   -7.07385728692578      1.22822084484047     -0.00046143985387
H   -4.60067330624313     -5.51236229778631      0.00021776644566
H   -7.07385645456741     -1.22822025997701     -0.00017736581114

    units angstrom      # Angstroms are the default
    no_reorient         # Geometry fixed, default
    symmetry c1         # C1 symmetry, default
}

set {
    scf_type DF         # Density fitting, faster than exact integrals
    freeze_core True    # Freeze core electrons
    basis jun-cc-pVDZ   # Jun-cc-pVDZ basis set, recommended for sSAPT0 in https://doi.org/10.1063/1.4867135
}

energy('ssapt0')        # Compute sSAPT0 energy, includes also SAPT0
--------------------------------------------------------------------------

  //              Dimer HF             //
    Molecular point group: c1
  Charge       = 1
  Multiplicity = 1
  Basis Set: JUN-CC-PVDZ
    Blend: JUN-CC-PVDZ
  Basis Set: (JUN-CC-PVDZ AUX)
    Blend: JUN-CC-PVDZ-JKFIT
  @DF-RHF Final Energy: -2359.21192642334154
    Total Energy =                      -2359.2119264233406284
 Dipole X            :          0.0041428            0.0006313            0.0047741
 Dipole Y            :         -1.5753382            1.8864948            0.3111566
 Dipole Z            :        -16.2939190           21.8373365            5.5434175
 Magnitude           :                                                    5.5521454
  //            Monomer A HF           //
    Molecular point group: c1
  Multiplicity = 1
  Basis Set: JUN-CC-PVDZ
    Blend: JUN-CC-PVDZ
  Basis Set: (JUN-CC-PVDZ AUX)
    Blend: JUN-CC-PVDZ-JKFIT
  @DF-RHF Final Energy:  -303.29831697040589
    Total Energy =                       -303.2983169704058923
  //            Monomer B HF           //
    Molecular point group: c1

    Geometry (in Angstrom), charge = 0, multiplicity = 1:

       Center              X                  Y                   Z               Mass
    ------------   -----------------  -----------------  -----------------  -----------------
      Gh(C)           0.680066520158    -1.215933861162     3.673829950344    12.000000000000
      Gh(C)          -0.680504479842    -1.215549861162     3.671801950344    12.000000000000
      Gh(N)          -1.085635479842     0.102774138838     3.670803950344    14.003074004430
      Gh(C)           0.000107520158     0.884175138838     3.667527950344    12.000000000000
      Gh(C)          -2.477365479842     0.570753138838     3.621397950344    12.000000000000
      Gh(N)           1.085221520158     0.102774138838     3.670803950344    14.003074004430
      Gh(H)           1.385145520158    -2.033372861162     3.681657950344     1.007825032230
      Gh(H)          -1.385302479842    -2.033218861162     3.671991950344     1.007825032230
      Gh(H)          -0.000009479842     1.965264138838     3.665780950344     1.007825032230
      Gh(C)           2.478116520158     0.567872138838     3.687695950344    12.000000000000
      Gh(H)           2.490591520158     1.658125138838     3.660350950344     1.007825032230
      Gh(H)           2.967027520158     0.220696138838     4.601141950344     1.007825032230
      Gh(H)           3.001427520158     0.176400138838     2.812212950344     1.007825032230
      Gh(H)          -2.857359479842     0.490794138838     2.599326950344     1.007825032230
      Gh(H)          -3.082679479842    -0.042310861162     4.291481950344     1.007825032230
      Gh(H)          -2.518128479842     1.610701138838     3.948381950344     1.007825032230
         C            1.225311895423     0.707533799757    -0.528074422372    12.000000000000
         C            1.225323856051    -0.707543383733    -0.540405231942    12.000000000000
         C           -0.000006153932     1.414961424928    -0.540938855463    12.000000000000
         C            2.456448753949     1.418323398016    -0.525187564972    12.000000000000
         C            0.000010827279    -1.414980987797    -0.530739298139    12.000000000000
         C           -1.225300948908     0.707540884822    -0.525822902050    12.000000000000
         C            2.456437755320    -1.418327793043    -0.542650388799    12.000000000000
         C           -0.000001332978     2.836796542119    -0.543342405597    12.000000000000
         C            3.681826697470     0.709313466839    -0.542301599001    12.000000000000
         C            2.455120048865     2.834219172327    -0.542404155962    12.000000000000
         C            3.681821105219    -0.709338328591    -0.526229114983    12.000000000000
         C           -1.225313598688    -0.707532004706    -0.539332470516    12.000000000000
         C            1.226699581202     3.543464994832    -0.526045083052    12.000000000000
         C            0.000004784858    -2.836786628398    -0.525891130517    12.000000000000
         C           -2.456436032848     1.418312429123    -0.525787506204    12.000000000000
         C            2.455123417779    -2.834234517751    -0.526381023351    12.000000000000
         C           -1.226714364589     3.543464574588    -0.525941749833    12.000000000000
         C            4.914517295202     1.427168383327    -0.535820915972    12.000000000000
         C            3.693150191476     3.542790803383    -0.535771116336    12.000000000000
         C           -2.456437600068    -1.418317770001    -0.542675426924    12.000000000000
         C            1.226704841943    -3.543478731069    -0.542015213802    12.000000000000
         C           -2.455125398508     2.834212173472    -0.542397779616    12.000000000000
         C            4.914524380782    -1.427191399106    -0.532848173237    12.000000000000
         C            1.221424613699     4.970129576098    -0.532709738978    12.000000000000
         C            4.893008229321     2.825183510864    -0.534604247613    12.000000000000
         C           -1.226697008489    -3.543475486239    -0.541748009393    12.000000000000
         C           -3.681818976526     0.709320477570    -0.542288918521    12.000000000000
         C            3.693147101150    -3.542805830553    -0.532730282677    12.000000000000
         C           -1.221432251994     4.970123808701    -0.532526243605    12.000000000000
         C            6.134770972926     0.680543457943    -0.535051141422    12.000000000000
         C            3.656788880610     4.972948754405    -0.534862478553    12.000000000000
         C           -2.455126907733    -2.834219582223    -0.526625381149    12.000000000000
         C           -3.681819179061    -0.709330192631    -0.526111493404    12.000000000000
         C            4.893012617914    -2.825204594794    -0.533993095718    12.000000000000
         C           -0.000001073113     5.650442876870    -0.533757552312    12.000000000000
         C            6.134775112332    -0.680559343237    -0.533785820906    12.000000000000
         C            2.478131482856     5.653572262169    -0.533573698903    12.000000000000
         C            1.221422404738    -4.970131544095    -0.535509236000    12.000000000000
         C           -3.693162383965     3.542792465030    -0.535605608876    12.000000000000
         C           -1.221428520945    -4.970122792758    -0.535621997833    12.000000000000
         C           -4.914521807942     1.427170957833    -0.535743970964    12.000000000000
         C            3.656787019679    -4.972959715401    -0.533411978019    12.000000000000
         C           -2.478138530106     5.653569933366    -0.533289173895    12.000000000000
         C           -3.693141738564    -3.542794708141    -0.532846408832    12.000000000000
         C           -4.914512483053    -1.427185489190    -0.532813476064    12.000000000000
         C           -0.000006008926    -5.650442776176    -0.534153056433    12.000000000000
         C           -4.893020484101     2.825184109757    -0.534614329473    12.000000000000
         C            2.478125993298    -5.653578033051    -0.534502578811    12.000000000000
         C           -3.656798710258     4.972951692879    -0.534685798179    12.000000000000
         C           -4.892999478856    -2.825196256222    -0.534147131415    12.000000000000
         C           -2.478128498083    -5.653570659169    -0.534777766459    12.000000000000
         C           -6.134770503331     0.680544277094    -0.535076693124    12.000000000000
         C           -3.656788833189    -4.972948512133    -0.533626265836    12.000000000000
         C           -6.134765042913    -0.680558404644    -0.533806296701    12.000000000000
         H            5.835288495816     3.369271405792    -0.530244921950     1.007825032230
         H            7.073859172747     1.228212759737    -0.534589498029     1.007825032230
         H            4.600663264174     5.512376313291    -0.534357277801     1.007825032230
         H            5.835283387305    -3.369310545891    -0.538447563032     1.007825032230
         H           -0.000012151306     6.738526184974    -0.538106797320     1.007825032230
         H            7.073861171831    -1.228231431906    -0.534294559001     1.007825032230
         H            2.473313731799     6.740679802232    -0.534040419834     1.007825032230
         H            4.600668491381    -5.512380618338    -0.533821975187     1.007825032230
         H           -2.473318680537     6.740677230444    -0.533739073209     1.007825032230
         H           -0.000010268228    -6.738532665614    -0.529623371448     1.007825032230
         H           -5.835301914343     3.369266461134    -0.530108899802     1.007825032230
         H            2.473307923831    -6.740689863591    -0.533932248386     1.007825032230
         H           -4.600674841208     5.512373537441    -0.534191949477     1.007825032230
         H           -5.835279506835    -3.369293452942    -0.538726868913     1.007825032230
         H           -2.473300347440    -6.740683567302    -0.534381564931     1.007825032230
         H           -7.073857766768     1.228215983678    -0.534673489510     1.007825032230
         H           -4.600673786085    -5.512367158949    -0.533994283210     1.007825032230
         H           -7.073856934409    -1.228225121139    -0.534389415467     1.007825032230

  Charge       = 0
  Multiplicity = 1
  Basis Set: JUN-CC-PVDZ
    Blend: JUN-CC-PVDZ
  Basis Set: (JUN-CC-PVDZ AUX)
    Blend: JUN-CC-PVDZ-JKFIT

    Orbital Energies [Eh]
    ---------------------

    Doubly Occupied:

       1A    -11.260592     2A    -11.260158     3A    -11.260129
       4A    -11.259427     5A    -11.259395     6A    -11.259230
       7A    -11.259004     8A    -11.258943     9A    -11.258907
      10A    -11.258588    11A    -11.258585    12A    -11.258484
      13A    -11.258426    14A    -11.258417    15A    -11.258414
      16A    -11.258388    17A    -11.258370    18A    -11.258359
      19A    -11.258354    20A    -11.258342    21A    -11.258341
      22A    -11.258281    23A    -11.258271    24A    -11.258020
      25A    -11.257302    26A    -11.257261    27A    -11.257218
      28A    -11.257124    29A    -11.257083    30A    -11.257019
      31A    -11.256406    32A    -11.256360    33A    -11.256303
      34A    -11.256238    35A    -11.256194    36A    -11.256165
      37A    -11.252235    38A    -11.252232    39A    -11.252223
      40A    -11.252220    41A    -11.252209    42A    -11.252197
      43A    -11.251331    44A    -11.251324    45A    -11.251322
      46A    -11.251319    47A    -11.251310    48A    -11.251305
      49A    -11.250796    50A    -11.250792    51A    -11.250785
      52A    -11.250781    53A    -11.250771    54A    -11.250759
      55A     -1.243934    56A     -1.219711    57A     -1.219688
      58A     -1.189439    59A     -1.189428    60A     -1.180820
      61A     -1.157466    62A     -1.148874    63A     -1.135384
      64A     -1.135359    65A     -1.113097    66A     -1.113095
      67A     -1.082318    68A     -1.082306    69A     -1.078481
      70A     -1.065891    71A     -1.065883    72A     -1.039295
      73A     -1.024145    74A     -1.021645    75A     -1.021588
      76A     -1.017632    77A     -1.012705    78A     -0.986909
      79A     -0.986855    80A     -0.961783    81A     -0.961727
      82A     -0.894183    83A     -0.894159    84A     -0.887793
      85A     -0.886042    86A     -0.886000    87A     -0.881268
      88A     -0.881222    89A     -0.861796    90A     -0.837324
      91A     -0.818094    92A     -0.816483    93A     -0.812007
      94A     -0.812006    95A     -0.794591    96A     -0.794578
      97A     -0.746482    98A     -0.744732    99A     -0.733286
     100A     -0.733275   101A     -0.732076   102A     -0.732054
     103A     -0.716375   104A     -0.698874   105A     -0.698843
     106A     -0.693476   107A     -0.693437   108A     -0.661126
     109A     -0.652986   110A     -0.651020   111A     -0.650155
     112A     -0.650149   113A     -0.639259   114A     -0.639238
     115A     -0.629589   116A     -0.627392   117A     -0.627384
     118A     -0.606432   119A     -0.605735   120A     -0.601529
     121A     -0.599637   122A     -0.599578   123A     -0.593508
     124A     -0.591083   125A     -0.591050   126A     -0.585190
     127A     -0.576449   128A     -0.576368   129A     -0.567230
     130A     -0.567211   131A     -0.565824   132A     -0.565817
     133A     -0.558593   134A     -0.554741   135A     -0.554739
     136A     -0.538490   137A     -0.538489   138A     -0.538204
     139A     -0.538197   140A     -0.529600   141A     -0.528143
     142A     -0.522768   143A     -0.522739   144A     -0.500401
     145A     -0.495575   146A     -0.493126   147A     -0.487793
     148A     -0.484942   149A     -0.481631   150A     -0.481629
     151A     -0.470314   152A     -0.470290   153A     -0.450870
     154A     -0.450803   155A     -0.439023   156A     -0.439015
     157A     -0.404718   158A     -0.404672   159A     -0.403327
     160A     -0.375372   161A     -0.375367   162A     -0.349084
     163A     -0.337550   164A     -0.336503   165A     -0.336473
     166A     -0.311045   167A     -0.298043   168A     -0.284289
     169A     -0.284233   170A     -0.224856   171A     -0.224795

  @DF-RHF Final Energy: -2055.89493168411582

   => Energetics <=

    Nuclear Repulsion Energy =           6452.5568002797772351
    One-Electron Energy =              -15636.5128157237450068
    Two-Electron Energy =                7128.0610837598524085
    Total Energy =                      -2055.8949316841153632
 Dipole X            :          0.0002521           -0.0000085            0.0002436
 Dipole Y            :          0.0036348           -0.0028843            0.0007505
 Dipole Z            :        345.2482753         -345.2553906           -0.0071153
 Magnitude           :                                                    0.0071589

    SAPT Results
  --------------------------------------------------------------------------------------------------------
    Electrostatics                -13.08814046 [mEh]      -8.21293213 [kcal/mol]     -34.36290804 [kJ/mol]
      Elst10,r                    -13.08814046 [mEh]      -8.21293213 [kcal/mol]     -34.36290804 [kJ/mol]

    Exchange                        1.97845759 [mEh]       1.24150088 [kcal/mol]       5.19443970 [kJ/mol]
      Exch10                        1.97845759 [mEh]       1.24150088 [kcal/mol]       5.19443970 [kJ/mol]
      Exch10(S^2)                   1.97811384 [mEh]       1.24128518 [kcal/mol]       5.19353718 [kJ/mol]

    Induction                      -7.56808596 [mEh]      -4.74904564 [kcal/mol]     -19.87000694 [kJ/mol]
      Ind20,r                      -7.55459004 [mEh]      -4.74057682 [kcal/mol]     -19.83457341 [kJ/mol]
      Exch-Ind20,r                  0.46661444 [mEh]       0.29280498 [kcal/mol]       1.22509605 [kJ/mol]
      delta HF,r (2)               -0.48011036 [mEh]      -0.30127380 [kcal/mol]      -1.26052958 [kJ/mol]

    Dispersion                    -13.83287519 [mEh]      -8.68026023 [kcal/mol]     -36.31820881 [kJ/mol]
      Disp20                      -14.13114955 [mEh]      -8.86743022 [kcal/mol]     -37.10132804 [kJ/mol]
      Exch-Disp20                   0.29827436 [mEh]       0.18716999 [kcal/mol]       0.78311923 [kJ/mol]
      Disp20 (SS)                  -7.06557478 [mEh]      -4.43371511 [kcal/mol]     -18.55066402 [kJ/mol]
      Disp20 (OS)                  -7.06557478 [mEh]      -4.43371511 [kcal/mol]     -18.55066402 [kJ/mol]
      Exch-Disp20 (SS)              0.19047301 [mEh]       0.11952362 [kcal/mol]       0.50008683 [kJ/mol]
      Exch-Disp20 (OS)              0.10780135 [mEh]       0.06764637 [kcal/mol]       0.28303241 [kJ/mol]

  Total HF                        -18.67776882 [mEh]     -11.72047688 [kcal/mol]     -49.03847528 [kJ/mol]
  Total SAPT0                     -32.51064401 [mEh]     -20.40073711 [kcal/mol]     -85.35668409 [kJ/mol]

  Special recipe for scaled SAPT0 (see Manual):
    Electrostatics sSAPT0         -13.08814046 [mEh]      -8.21293213 [kcal/mol]     -34.36290804 [kJ/mol]
    Exchange sSAPT0                 1.97845759 [mEh]       1.24150088 [kcal/mol]       5.19443970 [kJ/mol]
    Induction sSAPT0               -7.56784265 [mEh]      -4.74889296 [kcal/mol]     -19.86936814 [kJ/mol]
    Dispersion sSAPT0             -13.83271966 [mEh]      -8.68016264 [kcal/mol]     -36.31780047 [kJ/mol]
  Total sSAPT0                    -32.51024518 [mEh]     -20.40048684 [kcal/mol]     -85.35563696 [kJ/mol]
  --------------------------------------------------------------------------------------------------------

*** Psi4 exiting successfully. Buy a developer a beer!
