                               Psi4 1.9 release

  ==> Input File <==

--------------------------------------------------------------------------
memory 80 GB # how much memory is available ! Depends on the nodes/cores !

molecule dimer {
# monomer A
-1 1    # Charge and multiplicity
B -0.000046  0.000337 2.699994
F -1.153597  0.000048 3.515641
F  1.153661 -0.000581 3.515641
F -0.000019 -1.153637 1.884360
F -0.000019  1.153978 1.884360
--
# monomer B
0 1     # Charge and multiplicity
C   -3.66844126402057      7.80375217008252      0.00190004133558
C   -4.84759871934653      7.13124183134024     -0.00046653359696
C   -4.89495929917518      5.69633040353158     -0.00103944469517
C   -3.65374067877320      4.98073034095895      0.00662099703436
C   -2.40942512149445      7.11398103667468      0.00209438359570
C   -2.42547734410473      5.68112195090346     -0.00491050527438
C   -1.19474401643570      7.78614419430947      0.00356656413763
C   0.03795902893699      7.09942164575698      0.00139585983271
C   0.03033258741920      5.66948955970466     -0.00408752508301
C   -1.20098450790502      4.96927034791531      0.00488220885047
C   1.27795782581485      7.77285944319479      0.00277170839332
C   2.48535808472416      7.08769688523756      0.00049722048857
C   2.48612868491717      5.65477081024076     -0.00644052849921
C   1.25408291964399      4.95607811366431      0.00518741308898
C   3.75171459140595      7.76391215098033      0.00062407186893
C   4.92356605618520      7.07878077698995     -0.00143240883900
C   4.95560727132542      5.64344746336949     -0.00159282164606
C   3.70680153420475      4.94121020833308      0.00349873852374
H   -3.65852113775815      8.89082741913536      0.00358502958574
H   -1.18921332975660      8.87412108735996      0.00753844057883
H   1.28429423888630      8.86083343548850      0.00693053253426
H   3.75354208679975      8.85103527897216      0.00214659618464
H   5.86995870320703      7.61379483465560     -0.00235777588134
H   -5.78823170750226      7.67630221293400     -0.00202638095293
C   -6.09197395869619      4.99326001364347     -0.00291168518608
C   -6.12866148031747      3.58258016879823     -0.00171050815740
C   -3.66457974004527      3.56418217974434     -0.00463560277484
C   -4.89429820469869      2.86108077590057      0.00453338221034
C   -2.43733499489796      2.84761165708481      0.00719617576166
C   -1.20922785759670      3.54788693497833     -0.00648285103018
C   1.24714157216223      3.53468075142962     -0.00729145743546
C   0.01517603956900      2.83311183930540      0.00439272578912
C   2.46764517244071      2.82128997725533      0.00449278391269
C   3.70254947457969      3.52466015442405     -0.00899517692985
C   6.14498038638375      4.92757236613191     -0.00282626685777
C   6.16658835886151      3.51658447594213     -0.00065971342101
C   4.92460995845939      2.80840792535402      0.00587903281610
H   7.08990550964105      5.46688776622306     -0.00658814770723
H   -7.03104175110130      5.54268795285765     -0.00714490013730
C   -7.33969804112295      2.85841153457957     -0.00333767559888
C   -7.36488195805880      1.47032337158330     -0.00157213747140
C   -4.90350460894690      1.44442681216000     -0.00628840166334
C   -6.13225715261081      0.73993935705394      0.00600164231964
C   -3.67687480051673      0.72669714267312      0.00433931473643
C   -2.44565658606518      1.42964113326212     -0.00597039546461
C   -1.22360068130162      0.71532450163492      0.00545886906656
C   0.00763786931376      1.41738314923765      0.00392452278437
C   1.23121980774686      0.70211669058719     -0.01490206287210
C   2.46082110053113      1.40329203612573      0.00460244601878
C   3.68443025419614      0.68719842821222      0.00377365974158
C   4.91870890153864      1.39173456118907     -0.00862816189375
C   7.36980207796101      2.77948220318441     -0.00242013321349
C   7.38016266612146      1.39121750785509     -0.00087345036788
C   6.13979953912259      0.67411862320065      0.00545489144369
H   -8.27919079934664      3.40711804112415     -0.00763522772059
H   8.31511347147953      3.31811809662368     -0.00663070901292
C   -8.59175593758115      0.72483255304480     -0.00123170985383
C   -8.59902460370342     -0.63263980622873      0.00089141472904
C   -6.13981313911873     -0.67413663715361     -0.00609792660607
C   -7.38018411213749     -1.39126618958160      0.00131813493501
C   -4.91868448025621     -1.39175501803000      0.00624257154343
C   -3.68443829568458     -0.68723731573599     -0.00478966852105
C   -2.46081704024768     -1.40334517882457      0.00575341766833
C   -1.23116201232071     -0.70217386488055     -0.00636696112346
C   -0.00756962538737     -1.41741884941102      0.00108956317991
C   1.22364771588843     -0.71527537726392      0.01109518512883
C   2.44567064933149     -1.42964328900682     -0.00065482763106
C   3.67686670284649     -0.72670743155550     -0.00479541202602
C   6.13224884641929     -0.73997883984993     -0.00632338623858
C   4.90351914550401     -1.44445752054090      0.00751768830159
C   8.59901484869081      0.63260386666793     -0.00101133422380
C   8.59174548810050     -0.72485086719319      0.00072504603735
C   7.36486276438985     -1.47033266560598      0.00049486934466
H   -9.52830597181814      1.27684744919284     -0.00270163681798
H   9.54141097460619      1.17457248844457     -0.00206336648518
C   -7.36983790976868     -2.77954514593389      0.00312634335708
C   -4.92459910905015     -2.80843725734101     -0.00460528907921
C   -6.16662249566744     -3.51665219282533      0.00169655107992
C   -3.70251035970491     -3.52468154912026      0.00571878010666
C   -2.46764698511392     -2.82132596280400     -0.00632585824990
C   -0.01513347410770     -2.83314164539971     -0.00604426974092
C   -1.24712184122656     -3.53473217556300      0.00551968366725
C   1.20924506964357     -3.54791467864352      0.00805871345849
C   2.43733602215464     -2.84764173817541     -0.00608104485234
C   4.89430234377080     -2.86112296828604     -0.00526030478103
C   3.66461525504104     -3.56421984553201      0.00761911515957
C   6.12863901474565     -3.58258405771778      0.00096495711699
C   7.33967266469532     -2.85841330737039      0.00248018319869
H   -9.54144911125902     -1.17456346666430      0.00226083090216
H   9.52826186807155     -1.27691907390448      0.00197485379837
H   -8.31516504384864     -3.31814985321231      0.00729857188773
H   8.27915514249207     -3.40714078989363      0.00681973918158
C   -6.14499418870218     -4.92764727278338      0.00302254913999
C   -3.70678334799751     -4.94126171411716     -0.00679841894792
C   -4.95559005800169     -5.64349397349412      0.00116871569699
C   -2.48612132622665     -5.65478557440947      0.00614125209662
C   -1.25405833548005     -4.95612205000132     -0.00503435388927
C   1.20101257386816     -4.96928038819302     -0.00385322963129
C   -0.03033667441341     -5.66952030313900      0.00398997003238
C   3.65375010132847     -4.98074377541453     -0.00309522988330
C   2.42549269587528     -5.68117463552727      0.00628170066869
C   6.09196561781097     -4.99325796338655      0.00325918379042
C   4.89497644461045     -5.69634842095790      0.00202298796027
H   -7.08989238804069     -5.46699984223871      0.00742531082125
H   7.03105520920009     -5.54265853633254      0.00683896355417
C   -4.92354532219813     -7.07882109967734      0.00061394679214
C   -2.48534208823777     -7.08772807792913     -0.00189594564379
C   -3.75168589177895     -7.76394715763627     -0.00170126671874
C   -0.03794895698805     -7.09946487446944     -0.00168022049625
C   -1.27795610040136     -7.77290438466689     -0.00366491325785
C   2.40944432072629     -7.11402201200282     -0.00081701968533
C   1.19474993715296     -7.78618536556242     -0.00296931056689
C   4.84762105249800     -7.13126211057943      0.00168979497423
C   3.66847160587561     -7.80378799294376     -0.00065863938960
H   -5.86994035041618     -7.61383059804164      0.00215798365757
H   5.78824962538815     -7.67633218931421      0.00281691445618
H   -3.75352693944918     -8.85107156923607     -0.00353718114765
H   -1.28430440589466     -8.86087539249706     -0.00809229711623
H   1.18922157469537     -8.87416062058945     -0.00706194725726
H   3.65854661482387     -8.89086063405326     -0.00231318081200

    units angstrom      # Angstroms are the default
    no_reorient         # Geometry fixed, default
    symmetry c1         # C1 symmetry, default
}

set {
    scf_type DF         # Density fitting, faster than exact integrals
    freeze_core True    # Freeze core electrons
    basis jun-cc-pVDZ   # Jun-cc-pVDZ basis set, recommended for sSAPT0 in https://doi.org/10.1063/1.4867135
}

energy('ssapt0')        # Compute sSAPT0 energy, includes also SAPT0
--------------------------------------------------------------------------

  //              Dimer HF             //
    Molecular point group: c1
  Charge       = -1
  Multiplicity = 1
  Basis Set: JUN-CC-PVDZ
    Blend: JUN-CC-PVDZ
  Basis Set: (JUN-CC-PVDZ AUX)
    Blend: JUN-CC-PVDZ-JKFIT
  @DF-RHF Final Energy: -4072.97703757497220
    Total Energy =                      -4072.9770375749722007
 Dipole X            :          0.0017656           -0.0001188            0.0016468
 Dipole Y            :          0.0004595           -0.0002727            0.0001868
 Dipole Z            :         13.3887937          -16.0684702           -2.6796765
 Magnitude           :                                                    2.6796770
  //            Monomer A HF           //
    Molecular point group: c1
  Multiplicity = 1
  Basis Set: JUN-CC-PVDZ
    Blend: JUN-CC-PVDZ
  Basis Set: (JUN-CC-PVDZ AUX)
    Blend: JUN-CC-PVDZ-JKFIT
  @DF-RHF Final Energy:  -422.77675869038978
    Total Energy =                       -422.7767586903897836
  //            Monomer B HF           //
    Molecular point group: c1

    Geometry (in Angstrom), charge = 0, multiplicity = 1:

       Center              X                  Y                   Z               Mass
    ------------   -----------------  -----------------  -----------------  -----------------
      Gh(B)          -0.000050191042     0.000351518223     2.514026993521    11.009305360000
      Gh(F)          -1.153601191042     0.000062518223     3.329673993521    18.998403162730
      Gh(F)           1.153656808958    -0.000566481777     3.329673993521    18.998403162730
      Gh(F)          -0.000023191042    -1.153622481777     1.698392993521    18.998403162730
      Gh(F)          -0.000023191042     1.153992518223     1.698392993521    18.998403162730
         C           -3.668445455062     7.803766688305    -0.184066965143    12.000000000000
         C           -4.847602910388     7.131256349563    -0.186433540076    12.000000000000
         C           -4.894963490217     5.696344921754    -0.187006451174    12.000000000000
         C           -3.653744869815     4.980744859182    -0.179346009445    12.000000000000
         C           -2.409429312536     7.113995554897    -0.183872622883    12.000000000000
         C           -2.425481535146     5.681136469126    -0.190877511753    12.000000000000
         C           -1.194748207477     7.786158712532    -0.182400442341    12.000000000000
         C            0.037954837895     7.099436163980    -0.184571146646    12.000000000000
         C            0.030328396378     5.669504077927    -0.190054531562    12.000000000000
         C           -1.200988698947     4.969284866138    -0.181084797629    12.000000000000
         C            1.277953634773     7.772873961417    -0.183195298086    12.000000000000
         C            2.485353893683     7.087711403460    -0.185469785990    12.000000000000
         C            2.486124493876     5.654785328463    -0.192407534978    12.000000000000
         C            1.254078728602     4.956092631887    -0.180779593390    12.000000000000
         C            3.751710400364     7.763926669203    -0.185342934610    12.000000000000
         C            4.923561865144     7.078795295213    -0.187399415318    12.000000000000
         C            4.955603080284     5.643461981592    -0.187559828125    12.000000000000
         C            3.706797343163     4.941224726556    -0.182468267955    12.000000000000
         H           -3.658525328800     8.890841937358    -0.182381976893     1.007825032230
         H           -1.189217520798     8.874135605583    -0.178428565900     1.007825032230
         H            1.284290047845     8.860847953711    -0.179036473945     1.007825032230
         H            3.753537895758     8.851049797195    -0.183820410294     1.007825032230
         H            5.869954512165     7.613809352878    -0.188324782360     1.007825032230
         H           -5.788235898544     7.676316731157    -0.187993387432     1.007825032230
         C           -6.091978149738     4.993274531866    -0.188878691665    12.000000000000
         C           -6.128665671359     3.582594687021    -0.187677514636    12.000000000000
         C           -3.664583931087     3.564196697967    -0.190602609254    12.000000000000
         C           -4.894302395740     2.861095294123    -0.181433624269    12.000000000000
         C           -2.437339185940     2.847626175307    -0.178770830717    12.000000000000
         C           -1.209232048638     3.547901453201    -0.192449857509    12.000000000000
         C            1.247137381121     3.534695269652    -0.193258463914    12.000000000000
         C            0.015171848527     2.833126357528    -0.181574280690    12.000000000000
         C            2.467640981399     2.821304495478    -0.181474222566    12.000000000000
         C            3.702545283538     3.524674672647    -0.194962183409    12.000000000000
         C            6.144976195342     4.927586884354    -0.188793273337    12.000000000000
         C            6.166584167820     3.516598994165    -0.186626719900    12.000000000000
         C            4.924605767418     2.808422443577    -0.180087973663    12.000000000000
         H            7.089901318599     5.466902284446    -0.192555154186     1.007825032230
         H           -7.031045942143     5.542702471080    -0.193111906616     1.007825032230
         C           -7.339702232165     2.858426052802    -0.189304682078    12.000000000000
         C           -7.364886149100     1.470337889806    -0.187539143950    12.000000000000
         C           -4.903508799989     1.444441330383    -0.192255408142    12.000000000000
         C           -6.132261343652     0.739953875277    -0.179965364159    12.000000000000
         C           -3.676878991558     0.726711660896    -0.181627691743    12.000000000000
         C           -2.445660777107     1.429655651485    -0.191937401944    12.000000000000
         C           -1.223604872343     0.715339019858    -0.180508137412    12.000000000000
         C            0.007633678272     1.417397667460    -0.182042483695    12.000000000000
         C            1.231215616705     0.702131208810    -0.200869069351    12.000000000000
         C            2.460816909489     1.403306554348    -0.181364560460    12.000000000000
         C            3.684426063155     0.687212946435    -0.182193346737    12.000000000000
         C            4.918704710497     1.391749079412    -0.194595168373    12.000000000000
         C            7.369797886919     2.779496721407    -0.188387139692    12.000000000000
         C            7.380158475080     1.391232026078    -0.186840456847    12.000000000000
         C            6.139795348081     0.674133141423    -0.180512115035    12.000000000000
         H           -8.279194990388     3.407132559347    -0.193602234200     1.007825032230
         H            8.315109280438     3.318132614846    -0.192597715492     1.007825032230
         C           -8.591760128623     0.724847071267    -0.187198716333    12.000000000000
         C           -8.599028794745    -0.632625288006    -0.185075591750    12.000000000000
         C           -6.139817330160    -0.674122118931    -0.192064933085    12.000000000000
         C           -7.380188303179    -1.391251671359    -0.184648871544    12.000000000000
         C           -4.918688671298    -1.391740499807    -0.179724434936    12.000000000000
         C           -3.684442486726    -0.687222797513    -0.190756675000    12.000000000000
         C           -2.460821231289    -1.403330660602    -0.180213588811    12.000000000000
         C           -1.231166203362    -0.702159346658    -0.192333967602    12.000000000000
         C           -0.007573816429    -1.417404331188    -0.184877443299    12.000000000000
         C            1.223643524847    -0.715260859041    -0.174871821350    12.000000000000
         C            2.445666458290    -1.429628770784    -0.186621834110    12.000000000000
         C            3.676862511805    -0.726692913333    -0.190762418505    12.000000000000
         C            6.132244655378    -0.739964321627    -0.192290392718    12.000000000000
         C            4.903514954462    -1.444443002318    -0.178449318177    12.000000000000
         C            8.599010657649     0.632618384891    -0.186978340703    12.000000000000
         C            8.591741297059    -0.724836348971    -0.185241960442    12.000000000000
         C            7.364858573348    -1.470318147383    -0.185472137134    12.000000000000
         H           -9.528310162860     1.276861967415    -0.188668643297     1.007825032230
         H            9.541406783565     1.174587006667    -0.188030372964     1.007825032230
         C           -7.369842100810    -2.779530627711    -0.182840663122    12.000000000000
         C           -4.924603300092    -2.808422739118    -0.190572295558    12.000000000000
         C           -6.166626686709    -3.516637674603    -0.184270455399    12.000000000000
         C           -3.702514550747    -3.524667030898    -0.180248226372    12.000000000000
         C           -2.467651176156    -2.821311444581    -0.192292864729    12.000000000000
         C           -0.015137665149    -2.833127127177    -0.192011276220    12.000000000000
         C           -1.247126032268    -3.534717657340    -0.180447322812    12.000000000000
         C            1.209240878602    -3.547900160421    -0.177908293020    12.000000000000
         C            2.437331831113    -2.847627219953    -0.192048051331    12.000000000000
         C            4.894298152729    -2.861108450063    -0.191227311260    12.000000000000
         C            3.664611063999    -3.564205327309    -0.178347891319    12.000000000000
         C            6.128634823704    -3.582569539495    -0.185002049362    12.000000000000
         C            7.339668473654    -2.858398789148    -0.183486823280    12.000000000000
         H           -9.541453302301    -1.174548948442    -0.183706175577     1.007825032230
         H            9.528257677030    -1.276904555682    -0.183992152681     1.007825032230
         H           -8.315169234890    -3.318135334990    -0.178668434591     1.007825032230
         H            8.279150951450    -3.407126271671    -0.179147267297     1.007825032230
         C           -6.144998379744    -4.927632754561    -0.182944457339    12.000000000000
         C           -3.706787539039    -4.941247195895    -0.192765425427    12.000000000000
         C           -4.955594249043    -5.643479455272    -0.184798290782    12.000000000000
         C           -2.486125517268    -5.654771056187    -0.179825754382    12.000000000000
         C           -1.254062526522    -4.956107531779    -0.191001360368    12.000000000000
         C            1.201008382827    -4.969265869970    -0.189820236110    12.000000000000
         C           -0.030340865455    -5.669505784916    -0.181977036447    12.000000000000
         C            3.653745910287    -4.980729257192    -0.189062236362    12.000000000000
         C            2.425488504834    -5.681160117305    -0.179685305810    12.000000000000
         C            6.091961426769    -4.993243445164    -0.182707822689    12.000000000000
         C            4.894972253569    -5.696333902735    -0.183944018519    12.000000000000
         H           -7.089896579082    -5.466985324016    -0.178541695658     1.007825032230
         H            7.031051018158    -5.542644018110    -0.179128042925     1.007825032230
         C           -4.923549513240    -7.078806581455    -0.185353059687    12.000000000000
         C           -2.485346279279    -7.087713559707    -0.187862952123    12.000000000000
         C           -3.751690082821    -7.763932639414    -0.187668273198    12.000000000000
         C           -0.037953148030    -7.099450356247    -0.187647226975    12.000000000000
         C           -1.277960291443    -7.772889866444    -0.189631919737    12.000000000000
         C            2.409440129685    -7.114007493780    -0.186784026164    12.000000000000
         C            1.194745746111    -7.786170847340    -0.188936317046    12.000000000000
         C            4.847616861456    -7.131247592357    -0.184277211505    12.000000000000
         C            3.668467414834    -7.803773474721    -0.186625645869    12.000000000000
         H           -5.869944541458    -7.613816079819    -0.183809022821     1.007825032230
         H            5.788245434347    -7.676317671092    -0.183150092023     1.007825032230
         H           -3.753531130491    -8.851057051013    -0.189504187627     1.007825032230
         H           -1.284308596936    -8.860860874274    -0.194059303595     1.007825032230
         H            1.189217383654    -8.874146102367    -0.193028953736     1.007825032230
         H            3.658542423782    -8.890846115831    -0.188280187291     1.007825032230

  Charge       = 0
  Multiplicity = 1
  Basis Set: JUN-CC-PVDZ
    Blend: JUN-CC-PVDZ
  Basis Set: (JUN-CC-PVDZ AUX)
    Blend: JUN-CC-PVDZ-JKFIT

    Orbital Energies [Eh]
    ---------------------

    Doubly Occupied:

       1A    -11.264118     2A    -11.263817     3A    -11.263655
       4A    -11.263312     5A    -11.263242     6A    -11.263236
       7A    -11.263126     8A    -11.263087     9A    -11.263064
      10A    -11.262837    11A    -11.262749    12A    -11.262698
      13A    -11.262257    14A    -11.262244    15A    -11.262208
      16A    -11.262191    17A    -11.262096    18A    -11.262085
      19A    -11.262048    20A    -11.262016    21A    -11.261996
      22A    -11.261930    23A    -11.261879    24A    -11.261746
      25A    -11.261745    26A    -11.261727    27A    -11.261705
      28A    -11.261680    29A    -11.261660    30A    -11.261566
      31A    -11.261557    32A    -11.261549    33A    -11.261538
      34A    -11.261511    35A    -11.261507    36A    -11.261488
      37A    -11.261329    38A    -11.261323    39A    -11.261315
      40A    -11.261311    41A    -11.261306    42A    -11.261302
      43A    -11.261279    44A    -11.261260    45A    -11.261257
      46A    -11.261233    47A    -11.261229    48A    -11.261225
      49A    -11.261026    50A    -11.260997    51A    -11.260982
      52A    -11.260913    53A    -11.260905    54A    -11.260853
      55A    -11.259909    56A    -11.259896    57A    -11.259892
      58A    -11.259865    59A    -11.259860    60A    -11.259845
      61A    -11.259277    62A    -11.259253    63A    -11.259247
      64A    -11.259197    65A    -11.259191    66A    -11.259163
      67A    -11.258911    68A    -11.258894    69A    -11.258890
      70A    -11.258863    71A    -11.258858    72A    -11.258848
      73A    -11.254532    74A    -11.254530    75A    -11.254524
      76A    -11.254523    77A    -11.254523    78A    -11.254522
      79A    -11.253653    80A    -11.253652    81A    -11.253649
      82A    -11.253647    83A    -11.253645    84A    -11.253644
      85A    -11.253568    86A    -11.253567    87A    -11.253564
      88A    -11.253563    89A    -11.253561    90A    -11.253560
      91A    -11.253059    92A    -11.253057    93A    -11.253052
      94A    -11.253051    95A    -11.253050    96A    -11.253050
      97A     -1.253878    98A     -1.238972    99A     -1.238958
     100A     -1.220450   101A     -1.220442   102A     -1.215380
     103A     -1.201036   104A     -1.195595   105A     -1.188093
     106A     -1.188081   107A     -1.173761   108A     -1.173754
     109A     -1.155592   110A     -1.155588   111A     -1.152663
     112A     -1.144719   113A     -1.144716   114A     -1.128546
     115A     -1.114679   116A     -1.113157   117A     -1.112427
     118A     -1.112420   119A     -1.111618   120A     -1.088406
     121A     -1.088384   122A     -1.076957   123A     -1.076955
     124A     -1.067583   125A     -1.067553   126A     -1.064928
     127A     -1.046787   128A     -1.046777   129A     -1.040459
     130A     -1.038730   131A     -1.038729   132A     -1.025194
     133A     -1.021324   134A     -1.021278   135A     -1.007167
     136A     -1.006797   137A     -1.003777   138A     -1.000453
     139A     -1.000400   140A     -0.991072   141A     -0.970958
     142A     -0.970915   143A     -0.955870   144A     -0.955814
     145A     -0.905548   146A     -0.905538   147A     -0.905508
     148A     -0.905504   149A     -0.904278   150A     -0.892323
     151A     -0.892268   152A     -0.890323   153A     -0.890266
     154A     -0.889428   155A     -0.872208   156A     -0.869058
     157A     -0.851526   158A     -0.847834   159A     -0.847812
     160A     -0.845557   161A     -0.842993   162A     -0.834546
     163A     -0.834532   164A     -0.828106   165A     -0.828105
     166A     -0.784528   167A     -0.784520   168A     -0.783624
     169A     -0.783599   170A     -0.782262   171A     -0.782243
     172A     -0.782000   173A     -0.766979   174A     -0.760752
     175A     -0.750524   176A     -0.733475   177A     -0.727052
     178A     -0.727041   179A     -0.725056   180A     -0.724524
     181A     -0.724511   182A     -0.718434   183A     -0.713733
     184A     -0.713727   185A     -0.699553   186A     -0.699545
     187A     -0.686072   188A     -0.685948   189A     -0.685945
     190A     -0.682165   191A     -0.682150   192A     -0.678730
     193A     -0.653599   194A     -0.650846   195A     -0.650817
     196A     -0.649767   197A     -0.649757   198A     -0.649556
     199A     -0.640876   200A     -0.640858   201A     -0.640078
     202A     -0.639157   203A     -0.635981   204A     -0.635957
     205A     -0.629123   206A     -0.617710   207A     -0.615294
     208A     -0.615276   209A     -0.608786   210A     -0.608779
     211A     -0.599110   212A     -0.599067   213A     -0.598715
     214A     -0.598582   215A     -0.598554   216A     -0.597981
     217A     -0.595055   218A     -0.595045   219A     -0.594697
     220A     -0.594181   221A     -0.591923   222A     -0.591919
     223A     -0.587339   224A     -0.577792   225A     -0.577783
     226A     -0.575642   227A     -0.575634   228A     -0.573368
     229A     -0.569588   230A     -0.568090   231A     -0.568073
     232A     -0.566728   233A     -0.566711   234A     -0.560908
     235A     -0.558683   236A     -0.558663   237A     -0.558421
     238A     -0.554343   239A     -0.550536   240A     -0.547471
     241A     -0.544247   242A     -0.535033   243A     -0.534958
     244A     -0.533512   245A     -0.533489   246A     -0.528062
     247A     -0.528048   248A     -0.527743   249A     -0.517114
     250A     -0.517084   251A     -0.515338   252A     -0.515332
     253A     -0.509630   254A     -0.509613   255A     -0.498011
     256A     -0.496426   257A     -0.496398   258A     -0.493763
     259A     -0.493721   260A     -0.489428   261A     -0.481437
     262A     -0.477407   263A     -0.477402   264A     -0.473978
     265A     -0.469413   266A     -0.466498   267A     -0.466493
     268A     -0.458761   269A     -0.446633   270A     -0.446571
     271A     -0.441003   272A     -0.440758   273A     -0.440736
     274A     -0.434675   275A     -0.433896   276A     -0.407346
     277A     -0.407328   278A     -0.386365   279A     -0.386305
     280A     -0.385728   281A     -0.385721   282A     -0.383706
     283A     -0.354301   284A     -0.354298   285A     -0.350622
     286A     -0.338020   287A     -0.335539   288A     -0.335461
     289A     -0.332701   290A     -0.332698   291A     -0.307012
     292A     -0.301871   293A     -0.301814   294A     -0.300830
     295A     -0.286141   296A     -0.256481   297A     -0.253432
     298A     -0.253384   299A     -0.204228   300A     -0.204135

  @DF-RHF Final Energy: -3650.34056649888817

   => Energetics <=

    Nuclear Repulsion Energy =          15611.4211649754324753
    One-Electron Energy =              -36072.1609366580232745
    Two-Electron Energy =               16810.3992051837012696
    Total Energy =                      -3650.3405664988895296
 Dipole X            :          0.0002498            0.0001983            0.0004482
 Dipole Y            :          0.0012394           -0.0013163           -0.0000769
 Dipole Z            :        210.8540100         -210.8526345            0.0013756
 Magnitude           :                                                    0.0014488

    SAPT Results
  --------------------------------------------------------------------------------------------------------
    Electrostatics               -137.54927795 [mEh]     -86.31347503 [kcal/mol]    -361.13557951 [kJ/mol]
      Elst10,r                   -137.54927795 [mEh]     -86.31347503 [kcal/mol]    -361.13557951 [kJ/mol]

    Exchange                      339.59783170 [mEh]     213.10085667 [kcal/mol]     891.61398429 [kJ/mol]
      Exch10                      339.59783170 [mEh]     213.10085667 [kcal/mol]     891.61398429 [kJ/mol]
      Exch10(S^2)                 323.50999104 [mEh]     203.00558424 [kcal/mol]     849.37536446 [kJ/mol]

    Induction                     -61.76093944 [mEh]     -38.75557461 [kcal/mol]    -162.15332416 [kJ/mol]
      Ind20,r                    -223.81638382 [mEh]    -140.44690123 [kcal/mol]    -587.62983475 [kJ/mol]
      Exch-Ind20,r                171.06325390 [mEh]     107.34381244 [kcal/mol]     449.12651124 [kJ/mol]
      delta HF,r (2)               -9.00780952 [mEh]      -5.65248581 [kcal/mol]     -23.65000065 [kJ/mol]

    Dispersion                    -47.24307301 [mEh]     -29.64547589 [kcal/mol]    -124.03667110 [kJ/mol]
      Disp20                      -70.76450943 [mEh]     -44.40540008 [kcal/mol]    -185.79219391 [kJ/mol]
      Exch-Disp20                  23.52143642 [mEh]      14.75992419 [kcal/mol]      61.75552281 [kJ/mol]
      Disp20 (SS)                 -35.38225472 [mEh]     -22.20270004 [kcal/mol]     -92.89609696 [kJ/mol]
      Disp20 (OS)                 -35.38225472 [mEh]     -22.20270004 [kcal/mol]     -92.89609696 [kJ/mol]
      Exch-Disp20 (SS)             11.84972755 [mEh]       7.43581630 [kcal/mol]      31.11145539 [kJ/mol]
      Exch-Disp20 (OS)             11.67170887 [mEh]       7.32410789 [kcal/mol]      30.64406742 [kJ/mol]

  Total HF                        140.28761431 [mEh]      88.03180703 [kcal/mol]     368.32508062 [kJ/mol]
  Total SAPT0                      93.04454129 [mEh]      58.38633115 [kcal/mol]     244.28840951 [kJ/mol]

  Special recipe for scaled SAPT0 (see Manual):
    Electrostatics sSAPT0        -137.54927795 [mEh]     -86.31347503 [kcal/mol]    -361.13557951 [kJ/mol]
    Exchange sSAPT0               339.59783170 [mEh]     213.10085667 [kcal/mol]     891.61398429 [kJ/mol]
    Induction sSAPT0              -34.95036250 [mEh]     -21.93168358 [kcal/mol]     -91.76216411 [kJ/mol]
    Dispersion sSAPT0             -43.55658122 [mEh]     -27.33216736 [kcal/mol]    -114.35778825 [kJ/mol]
  Total sSAPT0                    123.54161002 [mEh]      77.52353069 [kcal/mol]     324.35845243 [kJ/mol]
  --------------------------------------------------------------------------------------------------------

*** Psi4 exiting successfully. Buy a developer a beer!
