                               Psi4 1.9 release

  ==> Input File <==

--------------------------------------------------------------------------
memory 32 GB # how much memory is available ! Depends on the nodes/cores !

molecule dimer {
# monomer A
+1 1    # Charge and multiplicity
C  0.680067 -0.008042 -7.015929
C -0.680504 -0.006014 -7.015545
N -1.085635 -0.005016 -5.697221
C  0.000108 -0.001740 -4.915820
C -2.477365  0.044390 -5.229242
N  1.085222 -0.005016 -5.697221
H  1.385146 -0.015870 -7.833368
H -1.385302 -0.006204 -7.833214
H -0.000009  0.000007 -3.834731
C  2.478117 -0.021908 -5.232123
H  2.490592  0.005437 -4.141870
H  2.967028 -0.935354 -5.579299
H  3.001428  0.853575 -5.623595
H -2.857359  1.066461 -5.309201
H -3.082679 -0.625694 -5.842306
H -2.518128 -0.282594 -4.189294
--
# monomer B
0 1     # Charge and multiplicity
C   1.22531237526482      0.70753866091955      0.00613762728373
C   1.22532433589282     -0.70753852257020     -0.00619318228664
C   -0.00000567409046      1.41496628609039     -0.00672680580738
C   2.45644923379077      1.41832825917820      0.00902448468363
C   0.00001130712078     -1.41497612663474      0.00347275151708
C   -1.22530046906674      0.70754574598412      0.00838914760619
C   2.45643823516184     -1.41832293188077     -0.00843833914343
C   -0.00000085313587      2.83680140328112     -0.00913035594137
C   3.68182717731192      0.70931832800114     -0.00808954934571
C   2.45512052870677      2.83422403348893     -0.00819210630633
C   3.68182158506039     -0.70933346742900      0.00798293467272
C   -1.22531311884624     -0.70752714354401     -0.00512042085974
C   1.22670006104402      3.54346985599427      0.00816696660346
C   0.00000526469929     -2.83678176723568      0.00832091913869
C   -2.45643555300670      1.41831729028492      0.00842454345199
C   2.45512389762097     -2.83422965658853      0.00783102630520
C   -1.22671388474763      3.54346943575023      0.00827029982280
C   4.91451777504333      1.42717324448953     -0.00160886631602
C   3.69315067131765      3.54279566454522     -0.00155906667985
C   -2.45643712022637     -1.41831290883911     -0.00846337726810
C   1.22670532178455     -3.54347386990643     -0.00780316414624
C   -2.45512491866593      2.83421703463423     -0.00818572995999
C   4.91452486062398     -1.42718653794377      0.00136387641845
C   1.22142509354026      4.97013443726031      0.00150231067809
C   4.89300870916237      2.82518837202648     -0.00039219795739
C   -1.22669652864725     -3.54347062507680     -0.00753595973677
C   -3.68181849668397      0.70932533873199     -0.00807686886569
C   3.69314758099218     -3.54280096939050      0.00148176697923
C   -1.22143177215231      4.97012866986289      0.00168580605083
C   6.13477145276790      0.68054831910577     -0.00083909176631
C   3.65678936045204      4.97295361556775     -0.00065042889723
C   -2.45512642789169     -2.83421472106065      0.00758666850712
C   -3.68181869921921     -0.70932533146830      0.00810055625144
C   4.89301309775526     -2.82519973363176      0.00021895393805
C   -0.00000059327114      5.65044773803267      0.00045449734393
C   6.13477559217374     -0.68055448207492      0.00042622874941
C   2.47813196269732      5.65357712333155      0.00063835075260
C   1.22142288457925     -4.97012668293268     -0.00129718634452
C   -3.69316190412301      3.54279732619245     -0.00139355922051
C   -1.22142804110313     -4.97011793159564     -0.00140994817719
C   -4.91452132810043      1.42717581899491     -0.00153192130862
C   3.65678749952045     -4.97295485423912      0.00080007163680
C   -2.47813805026426      5.65357479452875      0.00092287576113
C   -3.69314125872231     -3.54278984697859      0.00136564082345
C   -4.91451200321153     -1.42718062802730      0.00139857359209
C   -0.00000552908399     -5.65043791501335      0.00005899322272
C   -4.89302000425900      2.82518897091939     -0.00040227981744
C   2.47812647313991     -5.65357317188818     -0.00029052915548
C   -3.65679823041642      4.97295655404175     -0.00047374852278
C   -4.89299899901461     -2.82519139505969      0.00006491824035
C   -2.47812801824129     -5.65356579800621     -0.00056571680280
C   -6.13477002348955      0.68054913825639     -0.00086464346868
C   -3.65678835334731     -4.97294365097028      0.00058578382008
C   -6.13476456307132     -0.68055354348201      0.00040575295444
H   5.83528897565761      3.36927626695423      0.00396712770529
H   7.07385965258860      1.22821762089947     -0.00037744837300
H   4.60066374401555      5.51238117445323     -0.00014522814529
H   5.83528386714679     -3.36930568472863     -0.00423551337640
H   -0.00001167146422      6.73853104613662     -0.00389474766392
H   7.07386165167227     -1.22822657074368     -0.00008250934481
H   2.47331421164041      6.74068466339473      0.00017162982210
H   4.60066897122302     -5.51237575717576      0.00039007446835
H   -2.47331820069565      6.74068209160650      0.00047297644710
H   -0.00000978838621     -6.73852780445195      0.00458867820736
H   -5.83530143450167      3.36927132229595      0.00410314985360
H   2.47330840367253     -6.74068500242887      0.00027980126949
H   -4.60067436136587      5.51237839860371      0.00002010017831
H   -5.83527902699321     -3.36928859177951     -0.00451481925734
H   -2.47329986759855     -6.74067870613986     -0.00016951527498
H   -7.07385728692578      1.22822084484047     -0.00046143985387
H   -4.60067330624313     -5.51236229778631      0.00021776644566
H   -7.07385645456741     -1.22822025997701     -0.00017736581114

    units angstrom      # Angstroms are the default
    no_reorient         # Geometry fixed, default
    symmetry c1         # C1 symmetry, default
}

set {
    scf_type DF         # Density fitting, faster than exact integrals
    freeze_core True    # Freeze core electrons
    basis jun-cc-pVDZ   # Jun-cc-pVDZ basis set, recommended for sSAPT0 in https://doi.org/10.1063/1.4867135
}

energy('ssapt0')        # Compute sSAPT0 energy, includes also SAPT0
--------------------------------------------------------------------------

  //              Dimer HF             //
    Molecular point group: c1
  Charge       = 1
  Multiplicity = 1
  Basis Set: JUN-CC-PVDZ
    Blend: JUN-CC-PVDZ
  Basis Set: (JUN-CC-PVDZ AUX)
    Blend: JUN-CC-PVDZ-JKFIT
  @DF-RHF Final Energy: -2359.20582386605793
    Total Energy =                      -2359.2058238660574716
 Dipole X            :         -0.0014839            0.0006313           -0.0008526
 Dipole Y            :         -0.0489442            0.0560211            0.0070769
 Dipole Z            :         20.3959542          -28.3467295           -7.9507753
 Magnitude           :                                                    7.9507785
  //            Monomer A HF           //
    Molecular point group: c1
  Multiplicity = 1
  Basis Set: JUN-CC-PVDZ
    Blend: JUN-CC-PVDZ
  Basis Set: (JUN-CC-PVDZ AUX)
    Blend: JUN-CC-PVDZ-JKFIT
  @DF-RHF Final Energy:  -303.29748699786830
    Total Energy =                       -303.2974869978683046
  //            Monomer B HF           //
    Molecular point group: c1

    Geometry (in Angstrom), charge = 0, multiplicity = 1:

       Center              X                  Y                   Z               Mass
    ------------   -----------------  -----------------  -----------------  -----------------
      Gh(C)           0.680066520158    -0.008042372515    -6.278206857420    12.000000000000
      Gh(C)          -0.680504479842    -0.006014372515    -6.277822857420    12.000000000000
      Gh(N)          -1.085635479842    -0.005016372515    -4.959498857420    14.003074004430
      Gh(C)           0.000107520158    -0.001740372515    -4.178097857420    12.000000000000
      Gh(C)          -2.477365479842     0.044389627485    -4.491519857420    12.000000000000
      Gh(N)           1.085221520158    -0.005016372515    -4.959498857420    14.003074004430
      Gh(H)           1.385145520158    -0.015870372515    -7.095645857420     1.007825032230
      Gh(H)          -1.385302479842    -0.006204372515    -7.095491857420     1.007825032230
      Gh(H)          -0.000009479842     0.000006627485    -3.097008857420     1.007825032230
      Gh(C)           2.478116520158    -0.021908372515    -4.494400857420    12.000000000000
      Gh(H)           2.490591520158     0.005436627485    -3.404147857420     1.007825032230
      Gh(H)           2.967027520158    -0.935354372515    -4.841576857420     1.007825032230
      Gh(H)           3.001427520158     0.853574627485    -4.885872857420     1.007825032230
      Gh(H)          -2.857359479842     1.066460627485    -4.571478857420     1.007825032230
      Gh(H)          -3.082679479842    -0.625694372515    -5.104583857420     1.007825032230
      Gh(H)          -2.518128479842    -0.282594372515    -3.451571857420     1.007825032230
         C            1.225311895423     0.707538288405     0.743859769864    12.000000000000
         C            1.225323856051    -0.707538895085     0.731528960293    12.000000000000
         C           -0.000006153932     1.414965913575     0.730995336772    12.000000000000
         C            2.456448753949     1.418327886663     0.746746627263    12.000000000000
         C            0.000010827279    -1.414976499150     0.741194894097    12.000000000000
         C           -1.225300948908     0.707545373469     0.746111290186    12.000000000000
         C            2.456437755320    -1.418323304396     0.729283803436    12.000000000000
         C           -0.000001332978     2.836801030766     0.728591786638    12.000000000000
         C            3.681826697470     0.709317955486     0.729632593234    12.000000000000
         C            2.455120048865     2.834223660974     0.729530036273    12.000000000000
         C            3.681821105219    -0.709333839944     0.745705077253    12.000000000000
         C           -1.225313598688    -0.707527516059     0.732601721720    12.000000000000
         C            1.226699581202     3.543469483479     0.745889109183    12.000000000000
         C            0.000004784858    -2.836782139751     0.746043061718    12.000000000000
         C           -2.456436032848     1.418316917770     0.746146686032    12.000000000000
         C            2.455123417779    -2.834230029103     0.745553168885    12.000000000000
         C           -1.226714364589     3.543469063235     0.745992442403    12.000000000000
         C            4.914517295202     1.427172871975     0.736113276264    12.000000000000
         C            3.693150191476     3.542795292030     0.736163075900    12.000000000000
         C           -2.456437600068    -1.418313281354     0.729258765312    12.000000000000
         C            1.226704841943    -3.543474242421     0.729918978434    12.000000000000
         C           -2.455125398508     2.834216662119     0.729536412620    12.000000000000
         C            4.914524380782    -1.427186910459     0.739086018998    12.000000000000
         C            1.221424613699     4.970134064745     0.739224453258    12.000000000000
         C            4.893008229321     2.825187999512     0.737329944622    12.000000000000
         C           -1.226697008489    -3.543470997592     0.730186182843    12.000000000000
         C           -3.681818976526     0.709324966217     0.729645273714    12.000000000000
         C            3.693147101150    -3.542801341905     0.739203909559    12.000000000000
         C           -1.221432251994     4.970128297348     0.739407948631    12.000000000000
         C            6.134770972926     0.680547946591     0.736883050813    12.000000000000
         C            3.656788880610     4.972953243053     0.737071713683    12.000000000000
         C           -2.455126907733    -2.834215093576     0.745308811087    12.000000000000
         C           -3.681819179061    -0.709325703983     0.745822698831    12.000000000000
         C            4.893012617914    -2.825200106147     0.737941096518    12.000000000000
         C           -0.000001073113     5.650447365518     0.738176639924    12.000000000000
         C            6.134775112332    -0.680554854590     0.738148371329    12.000000000000
         C            2.478131482856     5.653576750817     0.738360493332    12.000000000000
         C            1.221422404738    -4.970127055448     0.736424956235    12.000000000000
         C           -3.693162383965     3.542796953677     0.736328583359    12.000000000000
         C           -1.221428520945    -4.970118304111     0.736312194403    12.000000000000
         C           -4.914521807942     1.427175446480     0.736190221271    12.000000000000
         C            3.656787019679    -4.972955226754     0.738522214217    12.000000000000
         C           -2.478138530106     5.653574422014     0.738645018341    12.000000000000
         C           -3.693141738564    -3.542790219494     0.739087783403    12.000000000000
         C           -4.914512483053    -1.427181000542     0.739120716172    12.000000000000
         C           -0.000006008926    -5.650438287528     0.737781135803    12.000000000000
         C           -4.893020484101     2.825188598404     0.737319862762    12.000000000000
         C            2.478125993298    -5.653573544403     0.737431613424    12.000000000000
         C           -3.656798710258     4.972956181527     0.737248394057    12.000000000000
         C           -4.892999478856    -2.825191767575     0.737787060820    12.000000000000
         C           -2.478128498083    -5.653566170521     0.737156425777    12.000000000000
         C           -6.134770503331     0.680548765741     0.736857499111    12.000000000000
         C           -3.656788833189    -4.972944023485     0.738307926400    12.000000000000
         C           -6.134765042913    -0.680553915997     0.738127895534    12.000000000000
         H            5.835288495816     3.369275894439     0.741689270285     1.007825032230
         H            7.073859172747     1.228217248385     0.737344694207     1.007825032230
         H            4.600663264174     5.512380801938     0.737576914435     1.007825032230
         H            5.835283387305    -3.369306057244     0.733486629203     1.007825032230
         H           -0.000012151306     6.738530673622     0.733827394916     1.007825032230
         H            7.073861171831    -1.228226943259     0.737639633235     1.007825032230
         H            2.473313731799     6.740684290880     0.737893772402     1.007825032230
         H            4.600668491381    -5.512376129691     0.738112217048     1.007825032230
         H           -2.473318680537     6.740681719092     0.738195119027     1.007825032230
         H           -0.000010268228    -6.738528176967     0.742310820787     1.007825032230
         H           -5.835301914343     3.369270949781     0.741825292433     1.007825032230
         H            2.473307923831    -6.740685374944     0.738001943849     1.007825032230
         H           -4.600674841208     5.512378026089     0.737742242758     1.007825032230
         H           -5.835279506835    -3.369288964294     0.733207323322     1.007825032230
         H           -2.473300347440    -6.740679078655     0.737552627305     1.007825032230
         H           -7.073857766768     1.228220472326     0.737260702726     1.007825032230
         H           -4.600673786085    -5.512362670301     0.737939909025     1.007825032230
         H           -7.073856934409    -1.228220632492     0.737544776769     1.007825032230

  Charge       = 0
  Multiplicity = 1
  Basis Set: JUN-CC-PVDZ
    Blend: JUN-CC-PVDZ
  Basis Set: (JUN-CC-PVDZ AUX)
    Blend: JUN-CC-PVDZ-JKFIT

    Orbital Energies [Eh]
    ---------------------

    Doubly Occupied:

       1A    -11.260602     2A    -11.260157     3A    -11.260154
       4A    -11.259430     5A    -11.259427     6A    -11.259251
       7A    -11.259034     8A    -11.258959     9A    -11.258956
      10A    -11.258636    11A    -11.258631    12A    -11.258552
      13A    -11.258491    14A    -11.258485    15A    -11.258484
      16A    -11.258453    17A    -11.258445    18A    -11.258429
      19A    -11.258420    20A    -11.258413    21A    -11.258407
      22A    -11.258323    23A    -11.258319    24A    -11.258039
      25A    -11.257347    26A    -11.257291    27A    -11.257279
      28A    -11.257156    29A    -11.257144    30A    -11.257065
      31A    -11.256443    32A    -11.256380    33A    -11.256363
      34A    -11.256269    35A    -11.256254    36A    -11.256214
      37A    -11.252304    38A    -11.252304    39A    -11.252301
      40A    -11.252301    41A    -11.252290    42A    -11.252288
      43A    -11.251419    44A    -11.251417    45A    -11.251413
      46A    -11.251409    47A    -11.251406    48A    -11.251403
      49A    -11.250866    50A    -11.250865    51A    -11.250862
      52A    -11.250862    53A    -11.250851    54A    -11.250850
      55A     -1.244097    56A     -1.219849    57A     -1.219832
      58A     -1.189569    59A     -1.189555    60A     -1.180983
      61A     -1.157582    62A     -1.149002    63A     -1.135529
      64A     -1.135511    65A     -1.113214    66A     -1.113211
      67A     -1.082456    68A     -1.082449    69A     -1.078635
      70A     -1.066004    71A     -1.065996    72A     -1.039420
      73A     -1.024301    74A     -1.021804    75A     -1.021749
      76A     -1.017747    77A     -1.012818    78A     -0.987049
      79A     -0.986995    80A     -0.961903    81A     -0.961851
      82A     -0.894312    83A     -0.894288    84A     -0.887963
      85A     -0.886210    86A     -0.886161    87A     -0.881419
      88A     -0.881373    89A     -0.861920    90A     -0.837428
      91A     -0.818229    92A     -0.816640    93A     -0.812157
      94A     -0.812154    95A     -0.794711    96A     -0.794698
      97A     -0.746650    98A     -0.744883    99A     -0.733441
     100A     -0.733438   101A     -0.732203   102A     -0.732179
     103A     -0.716523   104A     -0.699000   105A     -0.698977
     106A     -0.693616   107A     -0.693582   108A     -0.661252
     109A     -0.653142   110A     -0.651184   111A     -0.650275
     112A     -0.650268   113A     -0.639385   114A     -0.639368
     115A     -0.629738   116A     -0.627545   117A     -0.627533
     118A     -0.606498   119A     -0.605826   120A     -0.601681
     121A     -0.599767   122A     -0.599713   123A     -0.593653
     124A     -0.591253   125A     -0.591228   126A     -0.585297
     127A     -0.576448   128A     -0.576352   129A     -0.567345
     130A     -0.567326   131A     -0.565982   132A     -0.565967
     133A     -0.558750   134A     -0.554868   135A     -0.554866
     136A     -0.538613   137A     -0.538612   138A     -0.538234
     139A     -0.538203   140A     -0.529736   141A     -0.528209
     142A     -0.522900   143A     -0.522876   144A     -0.500523
     145A     -0.495640   146A     -0.493255   147A     -0.487854
     148A     -0.485090   149A     -0.481774   150A     -0.481772
     151A     -0.470364   152A     -0.470335   153A     -0.451042
     154A     -0.450972   155A     -0.439090   156A     -0.439083
     157A     -0.404783   158A     -0.404736   159A     -0.403422
     160A     -0.375447   161A     -0.375439   162A     -0.349152
     163A     -0.337597   164A     -0.336562   165A     -0.336536
     166A     -0.311115   167A     -0.298124   168A     -0.284359
     169A     -0.284313   170A     -0.224936   171A     -0.224877

  @DF-RHF Final Energy: -2055.89321506757733

   => Energetics <=

    Nuclear Repulsion Energy =           6452.5568002797781446
    One-Electron Energy =              -15636.4750629537338682
    Two-Electron Energy =                7128.0250476063793030
    Total Energy =                      -2055.8932150675773300
 Dipole X            :          0.0001405           -0.0000085            0.0001320
 Dipole Y            :         -0.0000667            0.0000167           -0.0000500
 Dipole Z            :       -476.7697814          476.7782967            0.0085154
 Magnitude           :                                                    0.0085166

    SAPT Results
  --------------------------------------------------------------------------------------------------------
    Electrostatics                -10.02237345 [mEh]      -6.28913429 [kcal/mol]     -26.31373786 [kJ/mol]
      Elst10,r                    -10.02237345 [mEh]      -6.28913429 [kcal/mol]     -26.31373786 [kJ/mol]

    Exchange                        0.07849564 [mEh]       0.04925676 [kcal/mol]       0.20609029 [kJ/mol]
      Exch10                        0.07849564 [mEh]       0.04925676 [kcal/mol]       0.20609029 [kJ/mol]
      Exch10(S^2)                   0.07849270 [mEh]       0.04925491 [kcal/mol]       0.20608256 [kJ/mol]

    Induction                      -5.17792281 [mEh]      -3.24919562 [kcal/mol]     -13.59463447 [kJ/mol]
      Ind20,r                      -4.96767015 [mEh]      -3.11726008 [kcal/mol]     -13.04261618 [kJ/mol]
      Exch-Ind20,r                  0.01506608 [mEh]       0.00945411 [kcal/mol]       0.03955598 [kJ/mol]
      delta HF,r (2)               -0.22531874 [mEh]      -0.14138964 [kcal/mol]      -0.59157427 [kJ/mol]

    Dispersion                     -4.21091798 [mEh]      -2.64239093 [kcal/mol]     -11.05576364 [kJ/mol]
      Disp20                       -4.22273477 [mEh]      -2.64980607 [kcal/mol]     -11.08678860 [kJ/mol]
      Exch-Disp20                   0.01181678 [mEh]       0.00741514 [kcal/mol]       0.03102496 [kJ/mol]
      Disp20 (SS)                  -2.11136738 [mEh]      -1.32490304 [kcal/mol]      -5.54339430 [kJ/mol]
      Disp20 (OS)                  -2.11136738 [mEh]      -1.32490304 [kcal/mol]      -5.54339430 [kJ/mol]
      Exch-Disp20 (SS)              0.00800280 [mEh]       0.00502183 [kcal/mol]       0.02101135 [kJ/mol]
      Exch-Disp20 (OS)              0.00381398 [mEh]       0.00239331 [kcal/mol]       0.01001360 [kJ/mol]

  Total HF                        -15.12180061 [mEh]      -9.48907314 [kcal/mol]     -39.70228204 [kJ/mol]
  Total SAPT0                     -19.33271860 [mEh]     -12.13146407 [kcal/mol]     -50.75804568 [kJ/mol]

  Special recipe for scaled SAPT0 (see Manual):
    Electrostatics sSAPT0         -10.02237345 [mEh]      -6.28913429 [kcal/mol]     -26.31373786 [kJ/mol]
    Exchange sSAPT0                 0.07849564 [mEh]       0.04925676 [kcal/mol]       0.20609029 [kJ/mol]
    Induction sSAPT0               -5.17792112 [mEh]      -3.24919455 [kcal/mol]     -13.59463002 [kJ/mol]
    Dispersion sSAPT0              -4.21091665 [mEh]      -2.64239009 [kcal/mol]     -11.05576015 [kJ/mol]
  Total sSAPT0                    -19.33271557 [mEh]     -12.13146217 [kcal/mol]     -50.75803774 [kJ/mol]
  --------------------------------------------------------------------------------------------------------

*** Psi4 exiting successfully. Buy a developer a beer!
