                               Psi4 1.9 release

  ==> Input File <==

--------------------------------------------------------------------------
memory 64 GB # how much memory is available ! Depends on the nodes/cores !

molecule dimer {
# monomer A
-1 1    # Charge and multiplicity
B -1.977592e-04  2.742729e-04 -4.799966
F  1.123153e-16  1.430594e-17 -3.387181
F  1.147860e+00  6.757812e-01 -5.271107
F  1.191806e-02 -1.332011e+00 -5.270905
F -1.159666e+00  6.560735e-01 -5.270826
--
# monomer B
0 1     # Charge and multiplicity
C   -3.66844126402057      7.80375217008252      0.00190004133558
C   -4.84759871934653      7.13124183134024     -0.00046653359696
C   -4.89495929917518      5.69633040353158     -0.00103944469517
C   -3.65374067877320      4.98073034095895      0.00662099703436
C   -2.40942512149445      7.11398103667468      0.00209438359570
C   -2.42547734410473      5.68112195090346     -0.00491050527438
C   -1.19474401643570      7.78614419430947      0.00356656413763
C   0.03795902893699      7.09942164575698      0.00139585983271
C   0.03033258741920      5.66948955970466     -0.00408752508301
C   -1.20098450790502      4.96927034791531      0.00488220885047
C   1.27795782581485      7.77285944319479      0.00277170839332
C   2.48535808472416      7.08769688523756      0.00049722048857
C   2.48612868491717      5.65477081024076     -0.00644052849921
C   1.25408291964399      4.95607811366431      0.00518741308898
C   3.75171459140595      7.76391215098033      0.00062407186893
C   4.92356605618520      7.07878077698995     -0.00143240883900
C   4.95560727132542      5.64344746336949     -0.00159282164606
C   3.70680153420475      4.94121020833308      0.00349873852374
H   -3.65852113775815      8.89082741913536      0.00358502958574
H   -1.18921332975660      8.87412108735996      0.00753844057883
H   1.28429423888630      8.86083343548850      0.00693053253426
H   3.75354208679975      8.85103527897216      0.00214659618464
H   5.86995870320703      7.61379483465560     -0.00235777588134
H   -5.78823170750226      7.67630221293400     -0.00202638095293
C   -6.09197395869619      4.99326001364347     -0.00291168518608
C   -6.12866148031747      3.58258016879823     -0.00171050815740
C   -3.66457974004527      3.56418217974434     -0.00463560277484
C   -4.89429820469869      2.86108077590057      0.00453338221034
C   -2.43733499489796      2.84761165708481      0.00719617576166
C   -1.20922785759670      3.54788693497833     -0.00648285103018
C   1.24714157216223      3.53468075142962     -0.00729145743546
C   0.01517603956900      2.83311183930540      0.00439272578912
C   2.46764517244071      2.82128997725533      0.00449278391269
C   3.70254947457969      3.52466015442405     -0.00899517692985
C   6.14498038638375      4.92757236613191     -0.00282626685777
C   6.16658835886151      3.51658447594213     -0.00065971342101
C   4.92460995845939      2.80840792535402      0.00587903281610
H   7.08990550964105      5.46688776622306     -0.00658814770723
H   -7.03104175110130      5.54268795285765     -0.00714490013730
C   -7.33969804112295      2.85841153457957     -0.00333767559888
C   -7.36488195805880      1.47032337158330     -0.00157213747140
C   -4.90350460894690      1.44442681216000     -0.00628840166334
C   -6.13225715261081      0.73993935705394      0.00600164231964
C   -3.67687480051673      0.72669714267312      0.00433931473643
C   -2.44565658606518      1.42964113326212     -0.00597039546461
C   -1.22360068130162      0.71532450163492      0.00545886906656
C   0.00763786931376      1.41738314923765      0.00392452278437
C   1.23121980774686      0.70211669058719     -0.01490206287210
C   2.46082110053113      1.40329203612573      0.00460244601878
C   3.68443025419614      0.68719842821222      0.00377365974158
C   4.91870890153864      1.39173456118907     -0.00862816189375
C   7.36980207796101      2.77948220318441     -0.00242013321349
C   7.38016266612146      1.39121750785509     -0.00087345036788
C   6.13979953912259      0.67411862320065      0.00545489144369
H   -8.27919079934664      3.40711804112415     -0.00763522772059
H   8.31511347147953      3.31811809662368     -0.00663070901292
C   -8.59175593758115      0.72483255304480     -0.00123170985383
C   -8.59902460370342     -0.63263980622873      0.00089141472904
C   -6.13981313911873     -0.67413663715361     -0.00609792660607
C   -7.38018411213749     -1.39126618958160      0.00131813493501
C   -4.91868448025621     -1.39175501803000      0.00624257154343
C   -3.68443829568458     -0.68723731573599     -0.00478966852105
C   -2.46081704024768     -1.40334517882457      0.00575341766833
C   -1.23116201232071     -0.70217386488055     -0.00636696112346
C   -0.00756962538737     -1.41741884941102      0.00108956317991
C   1.22364771588843     -0.71527537726392      0.01109518512883
C   2.44567064933149     -1.42964328900682     -0.00065482763106
C   3.67686670284649     -0.72670743155550     -0.00479541202602
C   6.13224884641929     -0.73997883984993     -0.00632338623858
C   4.90351914550401     -1.44445752054090      0.00751768830159
C   8.59901484869081      0.63260386666793     -0.00101133422380
C   8.59174548810050     -0.72485086719319      0.00072504603735
C   7.36486276438985     -1.47033266560598      0.00049486934466
H   -9.52830597181814      1.27684744919284     -0.00270163681798
H   9.54141097460619      1.17457248844457     -0.00206336648518
C   -7.36983790976868     -2.77954514593389      0.00312634335708
C   -4.92459910905015     -2.80843725734101     -0.00460528907921
C   -6.16662249566744     -3.51665219282533      0.00169655107992
C   -3.70251035970491     -3.52468154912026      0.00571878010666
C   -2.46764698511392     -2.82132596280400     -0.00632585824990
C   -0.01513347410770     -2.83314164539971     -0.00604426974092
C   -1.24712184122656     -3.53473217556300      0.00551968366725
C   1.20924506964357     -3.54791467864352      0.00805871345849
C   2.43733602215464     -2.84764173817541     -0.00608104485234
C   4.89430234377080     -2.86112296828604     -0.00526030478103
C   3.66461525504104     -3.56421984553201      0.00761911515957
C   6.12863901474565     -3.58258405771778      0.00096495711699
C   7.33967266469532     -2.85841330737039      0.00248018319869
H   -9.54144911125902     -1.17456346666430      0.00226083090216
H   9.52826186807155     -1.27691907390448      0.00197485379837
H   -8.31516504384864     -3.31814985321231      0.00729857188773
H   8.27915514249207     -3.40714078989363      0.00681973918158
C   -6.14499418870218     -4.92764727278338      0.00302254913999
C   -3.70678334799751     -4.94126171411716     -0.00679841894792
C   -4.95559005800169     -5.64349397349412      0.00116871569699
C   -2.48612132622665     -5.65478557440947      0.00614125209662
C   -1.25405833548005     -4.95612205000132     -0.00503435388927
C   1.20101257386816     -4.96928038819302     -0.00385322963129
C   -0.03033667441341     -5.66952030313900      0.00398997003238
C   3.65375010132847     -4.98074377541453     -0.00309522988330
C   2.42549269587528     -5.68117463552727      0.00628170066869
C   6.09196561781097     -4.99325796338655      0.00325918379042
C   4.89497644461045     -5.69634842095790      0.00202298796027
H   -7.08989238804069     -5.46699984223871      0.00742531082125
H   7.03105520920009     -5.54265853633254      0.00683896355417
C   -4.92354532219813     -7.07882109967734      0.00061394679214
C   -2.48534208823777     -7.08772807792913     -0.00189594564379
C   -3.75168589177895     -7.76394715763627     -0.00170126671874
C   -0.03794895698805     -7.09946487446944     -0.00168022049625
C   -1.27795610040136     -7.77290438466689     -0.00366491325785
C   2.40944432072629     -7.11402201200282     -0.00081701968533
C   1.19474993715296     -7.78618536556242     -0.00296931056689
C   4.84762105249800     -7.13126211057943      0.00168979497423
C   3.66847160587561     -7.80378799294376     -0.00065863938960
H   -5.86994035041618     -7.61383059804164      0.00215798365757
H   5.78824962538815     -7.67633218931421      0.00281691445618
H   -3.75352693944918     -8.85107156923607     -0.00353718114765
H   -1.28430440589466     -8.86087539249706     -0.00809229711623
H   1.18922157469537     -8.87416062058945     -0.00706194725726
H   3.65854661482387     -8.89086063405326     -0.00231318081200

    units angstrom      # Angstroms are the default
    no_reorient         # Geometry fixed, default
    symmetry c1         # C1 symmetry, default
}

set {
    scf_type DF         # Density fitting, faster than exact integrals
    freeze_core True    # Freeze core electrons
    basis jun-cc-pVDZ   # Jun-cc-pVDZ basis set, recommended for sSAPT0 in https://doi.org/10.1063/1.4867135
}

energy('ssapt0')        # Compute sSAPT0 energy, includes also SAPT0
--------------------------------------------------------------------------

  //              Dimer HF             //
    Molecular point group: c1
  Charge       = -1
  Multiplicity = 1
  Basis Set: JUN-CC-PVDZ
    Blend: JUN-CC-PVDZ
  Basis Set: (JUN-CC-PVDZ AUX)
    Blend: JUN-CC-PVDZ-JKFIT
  @DF-RHF Final Energy: -4073.10925876873262
    Total Energy =                      -4073.1092587687307969
 Dipole X            :          0.0001168           -0.0000548            0.0000621
 Dipole Y            :          0.0009439           -0.0002464            0.0006975
 Dipole Z            :        -21.4332145           28.5650730            7.1318585
 Magnitude           :                                                    7.1318585
  //            Monomer A HF           //
    Molecular point group: c1
  Multiplicity = 1
  Basis Set: JUN-CC-PVDZ
    Blend: JUN-CC-PVDZ
  Basis Set: (JUN-CC-PVDZ AUX)
    Blend: JUN-CC-PVDZ-JKFIT
  @DF-RHF Final Energy:  -422.77218304422166
    Total Energy =                       -422.7721830442216628
  //            Monomer B HF           //
    Molecular point group: c1

    Geometry (in Angstrom), charge = 0, multiplicity = 1:

       Center              X                  Y                   Z               Mass
    ------------   -----------------  -----------------  -----------------  -----------------
      Gh(B)          -0.000201921932     0.000288800891    -4.469366636910    11.009305360000
      Gh(F)          -0.000004162732     0.000014527991    -3.056581636910    18.998403162730
      Gh(F)           1.147855837268     0.675795727991    -4.940507636910    18.998403162730
      Gh(F)           0.011913897268    -1.331996472009    -4.940305636910    18.998403162730
      Gh(F)          -1.159670162732     0.656088027991    -4.940226636910    18.998403162730
         C           -3.668445426752     7.803766698073     0.332499404426    12.000000000000
         C           -4.847602882078     7.131256359331     0.330132829493    12.000000000000
         C           -4.894963461907     5.696344931522     0.329559918395    12.000000000000
         C           -3.653744841505     4.980744868950     0.337220360125    12.000000000000
         C           -2.409429284226     7.113995564665     0.332693746686    12.000000000000
         C           -2.425481506836     5.681136478894     0.325688857816    12.000000000000
         C           -1.194748179167     7.786158722300     0.334165927228    12.000000000000
         C            0.037954866205     7.099436173748     0.331995222923    12.000000000000
         C            0.030328424687     5.669504087695     0.326511838007    12.000000000000
         C           -1.200988670637     4.969284875906     0.335481571941    12.000000000000
         C            1.277953663083     7.772873971185     0.333371071484    12.000000000000
         C            2.485353921992     7.087711413228     0.331096583579    12.000000000000
         C            2.486124522185     5.654785338231     0.324158834591    12.000000000000
         C            1.254078756912     4.956092641655     0.335786776179    12.000000000000
         C            3.751710428674     7.763926678971     0.331223434959    12.000000000000
         C            4.923561893453     7.078795304981     0.329166954251    12.000000000000
         C            4.955603108594     5.643461991360     0.329006541444    12.000000000000
         C            3.706797371473     4.941224736324     0.334098101614    12.000000000000
         H           -3.658525300490     8.890841947126     0.334184392676     1.007825032230
         H           -1.189217492488     8.874135615351     0.338137803669     1.007825032230
         H            1.284290076155     8.860847963479     0.337529895625     1.007825032230
         H            3.753537924068     8.851049806963     0.332745959275     1.007825032230
         H            5.869954540475     7.613809362646     0.328241587209     1.007825032230
         H           -5.788235870234     7.676316740925     0.328572982137     1.007825032230
         C           -6.091978121428     4.993274541634     0.327687677904    12.000000000000
         C           -6.128665643049     3.582594696789     0.328888854933    12.000000000000
         C           -3.664583902777     3.564196707735     0.325963760316    12.000000000000
         C           -4.894302367430     2.861095303891     0.335132745301    12.000000000000
         C           -2.437339157630     2.847626185075     0.337795538852    12.000000000000
         C           -1.209232020328     3.547901462969     0.324116512060    12.000000000000
         C            1.247137409430     3.534695279420     0.323307905655    12.000000000000
         C            0.015171876837     2.833126367296     0.334992088879    12.000000000000
         C            2.467641009709     2.821304505246     0.335092147003    12.000000000000
         C            3.702545311848     3.524674682415     0.321604186161    12.000000000000
         C            6.144976223652     4.927586894122     0.327773096233    12.000000000000
         C            6.166584196130     3.516599003933     0.329939649669    12.000000000000
         C            4.924605795728     2.808422453345     0.336478395906    12.000000000000
         H            7.089901346909     5.466902294214     0.324011215383     1.007825032230
         H           -7.031045913833     5.542702480848     0.323454462953     1.007825032230
         C           -7.339702203855     2.858426062570     0.327261687491    12.000000000000
         C           -7.364886120791     1.470337899574     0.329027225619    12.000000000000
         C           -4.903508771679     1.444441340151     0.324310961427    12.000000000000
         C           -6.132261315343     0.739953885044     0.336601005410    12.000000000000
         C           -3.676878963248     0.726711670664     0.334938677827    12.000000000000
         C           -2.445660748797     1.429655661253     0.324628967626    12.000000000000
         C           -1.223604844033     0.715339029625     0.336058232157    12.000000000000
         C            0.007633706582     1.417397677228     0.334523885875    12.000000000000
         C            1.231215645015     0.702131218578     0.315697300218    12.000000000000
         C            2.460816937799     1.403306564116     0.335201809109    12.000000000000
         C            3.684426091464     0.687212956203     0.334373022832    12.000000000000
         C            4.918704738807     1.391749089180     0.321971201197    12.000000000000
         C            7.369797915229     2.779496731175     0.328179229877    12.000000000000
         C            7.380158503390     1.391232035846     0.329725912722    12.000000000000
         C            6.139795376391     0.674133151191     0.336054254534    12.000000000000
         H           -8.279194962078     3.407132569115     0.322964135370     1.007825032230
         H            8.315109308748     3.318132624614     0.323968654077     1.007825032230
         C           -8.591760100313     0.724847081035     0.329367653237    12.000000000000
         C           -8.599028766435    -0.632625278238     0.331490777819    12.000000000000
         C           -6.139817301850    -0.674122109163     0.324501436484    12.000000000000
         C           -7.380188274869    -1.391251661591     0.331917498025    12.000000000000
         C           -4.918688642988    -1.391740490039     0.336841934634    12.000000000000
         C           -3.684442458416    -0.687222787745     0.325809694569    12.000000000000
         C           -2.460821202979    -1.403330650834     0.336352780759    12.000000000000
         C           -1.231166175052    -0.702159336890     0.324232401967    12.000000000000
         C           -0.007573788119    -1.417404321420     0.331688926270    12.000000000000
         C            1.223643553157    -0.715260849273     0.341694548219    12.000000000000
         C            2.445666486600    -1.429628761016     0.329944535459    12.000000000000
         C            3.676862540115    -0.726692903565     0.325803951064    12.000000000000
         C            6.132244683688    -0.739964311859     0.324275976852    12.000000000000
         C            4.903514982772    -1.444442992550     0.338117051392    12.000000000000
         C            8.599010685959     0.632618394658     0.329588028867    12.000000000000
         C            8.591741325369    -0.724836339203     0.331324409128    12.000000000000
         C            7.364858601658    -1.470318137615     0.331094232435    12.000000000000
         H           -9.528310134550     1.276861977183     0.327897726272     1.007825032230
         H            9.541406811874     1.174587016435     0.328535996605     1.007825032230
         C           -7.369842072500    -2.779530617943     0.333725706447    12.000000000000
         C           -4.924603271782    -2.808422729350     0.325994074011    12.000000000000
         C           -6.166626658399    -3.516637664835     0.332295914170    12.000000000000
         C           -3.702514522437    -3.524667021130     0.336318143197    12.000000000000
         C           -2.467651147846    -2.821311434813     0.324273504840    12.000000000000
         C           -0.015137636839    -2.833127117409     0.324555093349    12.000000000000
         C           -1.247126003958    -3.534717647572     0.336119046758    12.000000000000
         C            1.209240906912    -3.547900150653     0.338658076549    12.000000000000
         C            2.437331859423    -2.847627210185     0.324518318238    12.000000000000
         C            4.894298181039    -2.861108440295     0.325339058309    12.000000000000
         C            3.664611092309    -3.564205317541     0.338218478250    12.000000000000
         C            6.128634852014    -3.582569529727     0.331564320207    12.000000000000
         C            7.339668501964    -2.858398779380     0.333079546289    12.000000000000
         H           -9.541453273991    -1.174548938674     0.332860193993     1.007825032230
         H            9.528257705340    -1.276904545914     0.332574216889     1.007825032230
         H           -8.315169206580    -3.318135325222     0.337897934978     1.007825032230
         H            8.279150979760    -3.407126261903     0.337419102272     1.007825032230
         C           -6.144998351434    -4.927632744793     0.333621912230    12.000000000000
         C           -3.706787510729    -4.941247186127     0.323800944142    12.000000000000
         C           -4.955594220733    -5.643479445504     0.331768078787    12.000000000000
         C           -2.486125488958    -5.654771046419     0.336740615187    12.000000000000
         C           -1.254062498212    -4.956107522011     0.325565009201    12.000000000000
         C            1.201008411136    -4.969265860202     0.326746133459    12.000000000000
         C           -0.030340837145    -5.669505775148     0.334589333123    12.000000000000
         C            3.653745938597    -4.980729247424     0.327504133207    12.000000000000
         C            2.425488533144    -5.681160107537     0.336881063759    12.000000000000
         C            6.091961455079    -4.993243435396     0.333858546881    12.000000000000
         C            4.894972281879    -5.696333892967     0.332622351051    12.000000000000
         H           -7.089896550772    -5.466985314248     0.338024673912     1.007825032230
         H            7.031051046468    -5.542644008342     0.337438326645     1.007825032230
         C           -4.923549484930    -7.078806571687     0.331213309882    12.000000000000
         C           -2.485346250970    -7.087713549939     0.328703417447    12.000000000000
         C           -3.751690054511    -7.763932629646     0.328898096372    12.000000000000
         C           -0.037953119720    -7.099450346479     0.328919142594    12.000000000000
         C           -1.277960263133    -7.772889856676     0.326934449833    12.000000000000
         C            2.409440157995    -7.114007484012     0.329782343405    12.000000000000
         C            1.194745774421    -7.786170837572     0.327630052523    12.000000000000
         C            4.847616889766    -7.131247582589     0.332289158065    12.000000000000
         C            3.668467443144    -7.803773464953     0.329940723701    12.000000000000
         H           -5.869944513148    -7.613816070051     0.332757346748     1.007825032230
         H            5.788245462656    -7.676317661324     0.333416277547     1.007825032230
         H           -3.753531102181    -8.851057041246     0.327062181943     1.007825032230
         H           -1.284308568626    -8.860860864507     0.322507065974     1.007825032230
         H            1.189217411964    -8.874146092599     0.323537415833     1.007825032230
         H            3.658542452092    -8.890846106063     0.328286182278     1.007825032230

  Charge       = 0
  Multiplicity = 1
  Basis Set: JUN-CC-PVDZ
    Blend: JUN-CC-PVDZ
  Basis Set: (JUN-CC-PVDZ AUX)
    Blend: JUN-CC-PVDZ-JKFIT

    Orbital Energies [Eh]
    ---------------------

    Doubly Occupied:

       1A    -11.264103     2A    -11.263746     3A    -11.263745
       4A    -11.263340     5A    -11.263337     6A    -11.263310
       7A    -11.263159     8A    -11.263156     9A    -11.263144
      10A    -11.262940    11A    -11.262804    12A    -11.262800
      13A    -11.262311    14A    -11.262308    15A    -11.262278
      16A    -11.262277    17A    -11.262179    18A    -11.262167
      19A    -11.262111    20A    -11.262076    21A    -11.262074
      22A    -11.261958    23A    -11.261954    24A    -11.261800
      25A    -11.261798    26A    -11.261776    27A    -11.261769
      28A    -11.261732    29A    -11.261724    30A    -11.261637
      31A    -11.261614    32A    -11.261611    33A    -11.261587
      34A    -11.261580    35A    -11.261578    36A    -11.261555
      37A    -11.261381    38A    -11.261372    39A    -11.261365
      40A    -11.261359    41A    -11.261355    42A    -11.261348
      43A    -11.261337    44A    -11.261321    45A    -11.261316
      46A    -11.261295    47A    -11.261291    48A    -11.261287
      49A    -11.261115    50A    -11.261081    51A    -11.261078
      52A    -11.260997    53A    -11.260996    54A    -11.260934
      55A    -11.259976    56A    -11.259962    57A    -11.259960
      58A    -11.259931    59A    -11.259929    60A    -11.259913
      61A    -11.259349    62A    -11.259323    63A    -11.259321
      64A    -11.259268    65A    -11.259266    66A    -11.259237
      67A    -11.258979    68A    -11.258961    69A    -11.258959
      70A    -11.258931    71A    -11.258929    72A    -11.258918
      73A    -11.254565    74A    -11.254564    75A    -11.254561
      76A    -11.254559    77A    -11.254556    78A    -11.254554
      79A    -11.253705    80A    -11.253703    81A    -11.253701
      82A    -11.253699    83A    -11.253698    84A    -11.253692
      85A    -11.253620    86A    -11.253618    87A    -11.253616
      88A    -11.253615    89A    -11.253613    90A    -11.253608
      91A    -11.253093    92A    -11.253092    93A    -11.253090
      94A    -11.253087    95A    -11.253083    96A    -11.253082
      97A     -1.254024    98A     -1.239075    99A     -1.239075
     100A     -1.220534   101A     -1.220529   102A     -1.215500
     103A     -1.201105   104A     -1.195670   105A     -1.188213
     106A     -1.188211   107A     -1.173825   108A     -1.173822
     109A     -1.155705   110A     -1.155702   111A     -1.152778
     112A     -1.144780   113A     -1.144777   114A     -1.128643
     115A     -1.114791   116A     -1.113218   117A     -1.112546
     118A     -1.112532   119A     -1.111674   120A     -1.088500
     121A     -1.088485   122A     -1.077016   123A     -1.077014
     124A     -1.067685   125A     -1.067656   126A     -1.065037
     127A     -1.046867   128A     -1.046859   129A     -1.040552
     130A     -1.038790   131A     -1.038789   132A     -1.025314
     133A     -1.021457   134A     -1.021407   135A     -1.007240
     136A     -1.006884   137A     -1.003857   138A     -1.000562
     139A     -1.000514   140A     -0.991128   141A     -0.971054
     142A     -0.971006   143A     -0.955941   144A     -0.955886
     145A     -0.905669   146A     -0.905627   147A     -0.905602
     148A     -0.905562   149A     -0.904411   150A     -0.892450
     151A     -0.892391   152A     -0.890434   153A     -0.890376
     154A     -0.889529   155A     -0.872273   156A     -0.869102
     157A     -0.851600   158A     -0.847938   159A     -0.847917
     160A     -0.845670   161A     -0.843094   162A     -0.834630
     163A     -0.834617   164A     -0.828168   165A     -0.828165
     166A     -0.784610   167A     -0.784599   168A     -0.783722
     169A     -0.783696   170A     -0.782356   171A     -0.782336
     172A     -0.782105   173A     -0.767056   174A     -0.760869
     175A     -0.750640   176A     -0.733540   177A     -0.727136
     178A     -0.727123   179A     -0.725155   180A     -0.724607
     181A     -0.724588   182A     -0.718562   183A     -0.713839
     184A     -0.713833   185A     -0.699638   186A     -0.699626
     187A     -0.686193   188A     -0.686017   189A     -0.686014
     190A     -0.682236   191A     -0.682225   192A     -0.678827
     193A     -0.653680   194A     -0.650932   195A     -0.650902
     196A     -0.649879   197A     -0.649863   198A     -0.649621
     199A     -0.640997   200A     -0.640970   201A     -0.640147
     202A     -0.639217   203A     -0.636085   204A     -0.636059
     205A     -0.629209   206A     -0.617718   207A     -0.615359
     208A     -0.615339   209A     -0.608861   210A     -0.608854
     211A     -0.599150   212A     -0.599114   213A     -0.598804
     214A     -0.598681   215A     -0.598656   216A     -0.598095
     217A     -0.595124   218A     -0.595112   219A     -0.594784
     220A     -0.594305   221A     -0.592019   222A     -0.592016
     223A     -0.587467   224A     -0.577841   225A     -0.577831
     226A     -0.575692   227A     -0.575688   228A     -0.573441
     229A     -0.569593   230A     -0.568200   231A     -0.568177
     232A     -0.566815   233A     -0.566805   234A     -0.560959
     235A     -0.558784   236A     -0.558765   237A     -0.558474
     238A     -0.554432   239A     -0.550590   240A     -0.547520
     241A     -0.544300   242A     -0.535038   243A     -0.534998
     244A     -0.533588   245A     -0.533566   246A     -0.528130
     247A     -0.528115   248A     -0.527865   249A     -0.517221
     250A     -0.517187   251A     -0.515387   252A     -0.515382
     253A     -0.509696   254A     -0.509680   255A     -0.498086
     256A     -0.496507   257A     -0.496481   258A     -0.493796
     259A     -0.493785   260A     -0.489470   261A     -0.481506
     262A     -0.477452   263A     -0.477449   264A     -0.474052
     265A     -0.469509   266A     -0.466587   267A     -0.466583
     268A     -0.458830   269A     -0.446758   270A     -0.446697
     271A     -0.441060   272A     -0.440805   273A     -0.440781
     274A     -0.434721   275A     -0.433941   276A     -0.407406
     277A     -0.407382   278A     -0.386431   279A     -0.386383
     280A     -0.385763   281A     -0.385762   282A     -0.383788
     283A     -0.354353   284A     -0.354337   285A     -0.350693
     286A     -0.338108   287A     -0.335633   288A     -0.335562
     289A     -0.332745   290A     -0.332739   291A     -0.307108
     292A     -0.301965   293A     -0.301902   294A     -0.300880
     295A     -0.286202   296A     -0.256498   297A     -0.253534
     298A     -0.253481   299A     -0.204290   300A     -0.204201

  @DF-RHF Final Energy: -3650.33888077585289

   => Energetics <=

    Nuclear Repulsion Energy =          15611.4211649754324753
    One-Electron Energy =              -36072.1128204639753676
    Two-Electron Energy =               16810.3527747126900067
    Total Energy =                      -3650.3388807758528856
 Dipole X            :         -0.0006261            0.0002304           -0.0003957
 Dipole Y            :          0.0011490           -0.0013052           -0.0001562
 Dipole Z            :       -374.8462281          374.8487440            0.0025159
 Magnitude           :                                                    0.0025516

    SAPT Results
  --------------------------------------------------------------------------------------------------------
    Electrostatics                 10.92754745 [mEh]       6.85713955 [kcal/mol]      28.69027187 [kJ/mol]
      Elst10,r                     10.92754745 [mEh]       6.85713955 [kcal/mol]      28.69027187 [kJ/mol]

    Exchange                        0.90712865 [mEh]       0.56923182 [kcal/mol]       2.38166593 [kJ/mol]
      Exch10                        0.90712865 [mEh]       0.56923182 [kcal/mol]       2.38166593 [kJ/mol]
      Exch10(S^2)                   0.90720854 [mEh]       0.56928195 [kcal/mol]       2.38187570 [kJ/mol]

    Induction                     -10.02962475 [mEh]      -6.29368455 [kcal/mol]     -26.33277616 [kJ/mol]
      Ind20,r                     -10.17862519 [mEh]      -6.38718373 [kcal/mol]     -26.72397674 [kJ/mol]
      Exch-Ind20,r                  0.15703802 [mEh]       0.09854285 [kcal/mol]       0.41230327 [kJ/mol]
      delta HF,r (2)               -0.00803759 [mEh]      -0.00504366 [kcal/mol]      -0.02110269 [kJ/mol]

    Dispersion                     -3.56362975 [mEh]      -2.23621143 [kcal/mol]      -9.35630863 [kJ/mol]
      Disp20                       -3.72927567 [mEh]      -2.34015582 [kcal/mol]      -9.79121193 [kJ/mol]
      Exch-Disp20                   0.16564592 [mEh]       0.10394438 [kcal/mol]       0.43490330 [kJ/mol]
      Disp20 (SS)                  -1.86463784 [mEh]      -1.17007791 [kcal/mol]      -4.89560597 [kJ/mol]
      Disp20 (OS)                  -1.86463784 [mEh]      -1.17007791 [kcal/mol]      -4.89560597 [kJ/mol]
      Exch-Disp20 (SS)              0.10343014 [mEh]       0.06490339 [kcal/mol]       0.27155579 [kJ/mol]
      Exch-Disp20 (OS)              0.06221578 [mEh]       0.03904099 [kcal/mol]       0.16334752 [kJ/mol]

  Total HF                          1.80505134 [mEh]       1.13268682 [kcal/mol]       4.73916164 [kJ/mol]
  Total SAPT0                      -1.75857841 [mEh]      -1.10352461 [kcal/mol]      -4.61714698 [kJ/mol]

  Special recipe for scaled SAPT0 (see Manual):
    Electrostatics sSAPT0          10.92754745 [mEh]       6.85713955 [kcal/mol]      28.69027187 [kJ/mol]
    Exchange sSAPT0                 0.90712865 [mEh]       0.56923182 [kcal/mol]       2.38166593 [kJ/mol]
    Induction sSAPT0              -10.02966624 [mEh]      -6.29371058 [kcal/mol]     -26.33288508 [kJ/mol]
    Dispersion sSAPT0              -3.56367351 [mEh]      -2.23623889 [kcal/mol]      -9.35642352 [kJ/mol]
  Total sSAPT0                     -1.75866366 [mEh]      -1.10357811 [kcal/mol]      -4.61737080 [kJ/mol]
  --------------------------------------------------------------------------------------------------------

*** Psi4 exiting successfully. Buy a developer a beer!
