                               Psi4 1.9 release

  ==> Input File <==

--------------------------------------------------------------------------
memory 32 GB # how much memory is available ! Depends on the nodes/cores !

molecule dimer {
# monomer A
+1 1    # Charge and multiplicity
C  0.680067 -1.215929 4.408042
C -0.680504 -1.215545 4.406014
N -1.085635  0.102779 4.405016
C  0.000108  0.884180 4.401740
C -2.477365  0.570758 4.355610
N  1.085222  0.102779 4.405016
H  1.385146 -2.033368 4.415870
H -1.385302 -2.033214 4.406204
H -0.000009  1.965269 4.399993
C  2.478117  0.567877 4.421908
H  2.490592  1.658130 4.394563
H  2.967028  0.220701 5.335354
H  3.001428  0.176405 3.546425
H -2.857359  0.490799 3.333539
H -3.082679 -0.042306 5.025694
H -2.518128  1.610706 4.682594
--
# monomer B
0 1     # Charge and multiplicity
C   1.22531237526482      0.70753866091955      0.00613762728373
C   1.22532433589282     -0.70753852257020     -0.00619318228664
C   -0.00000567409046      1.41496628609039     -0.00672680580738
C   2.45644923379077      1.41832825917820      0.00902448468363
C   0.00001130712078     -1.41497612663474      0.00347275151708
C   -1.22530046906674      0.70754574598412      0.00838914760619
C   2.45643823516184     -1.41832293188077     -0.00843833914343
C   -0.00000085313587      2.83680140328112     -0.00913035594137
C   3.68182717731192      0.70931832800114     -0.00808954934571
C   2.45512052870677      2.83422403348893     -0.00819210630633
C   3.68182158506039     -0.70933346742900      0.00798293467272
C   -1.22531311884624     -0.70752714354401     -0.00512042085974
C   1.22670006104402      3.54346985599427      0.00816696660346
C   0.00000526469929     -2.83678176723568      0.00832091913869
C   -2.45643555300670      1.41831729028492      0.00842454345199
C   2.45512389762097     -2.83422965658853      0.00783102630520
C   -1.22671388474763      3.54346943575023      0.00827029982280
C   4.91451777504333      1.42717324448953     -0.00160886631602
C   3.69315067131765      3.54279566454522     -0.00155906667985
C   -2.45643712022637     -1.41831290883911     -0.00846337726810
C   1.22670532178455     -3.54347386990643     -0.00780316414624
C   -2.45512491866593      2.83421703463423     -0.00818572995999
C   4.91452486062398     -1.42718653794377      0.00136387641845
C   1.22142509354026      4.97013443726031      0.00150231067809
C   4.89300870916237      2.82518837202648     -0.00039219795739
C   -1.22669652864725     -3.54347062507680     -0.00753595973677
C   -3.68181849668397      0.70932533873199     -0.00807686886569
C   3.69314758099218     -3.54280096939050      0.00148176697923
C   -1.22143177215231      4.97012866986289      0.00168580605083
C   6.13477145276790      0.68054831910577     -0.00083909176631
C   3.65678936045204      4.97295361556775     -0.00065042889723
C   -2.45512642789169     -2.83421472106065      0.00758666850712
C   -3.68181869921921     -0.70932533146830      0.00810055625144
C   4.89301309775526     -2.82519973363176      0.00021895393805
C   -0.00000059327114      5.65044773803267      0.00045449734393
C   6.13477559217374     -0.68055448207492      0.00042622874941
C   2.47813196269732      5.65357712333155      0.00063835075260
C   1.22142288457925     -4.97012668293268     -0.00129718634452
C   -3.69316190412301      3.54279732619245     -0.00139355922051
C   -1.22142804110313     -4.97011793159564     -0.00140994817719
C   -4.91452132810043      1.42717581899491     -0.00153192130862
C   3.65678749952045     -4.97295485423912      0.00080007163680
C   -2.47813805026426      5.65357479452875      0.00092287576113
C   -3.69314125872231     -3.54278984697859      0.00136564082345
C   -4.91451200321153     -1.42718062802730      0.00139857359209
C   -0.00000552908399     -5.65043791501335      0.00005899322272
C   -4.89302000425900      2.82518897091939     -0.00040227981744
C   2.47812647313991     -5.65357317188818     -0.00029052915548
C   -3.65679823041642      4.97295655404175     -0.00047374852278
C   -4.89299899901461     -2.82519139505969      0.00006491824035
C   -2.47812801824129     -5.65356579800621     -0.00056571680280
C   -6.13477002348955      0.68054913825639     -0.00086464346868
C   -3.65678835334731     -4.97294365097028      0.00058578382008
C   -6.13476456307132     -0.68055354348201      0.00040575295444
H   5.83528897565761      3.36927626695423      0.00396712770529
H   7.07385965258860      1.22821762089947     -0.00037744837300
H   4.60066374401555      5.51238117445323     -0.00014522814529
H   5.83528386714679     -3.36930568472863     -0.00423551337640
H   -0.00001167146422      6.73853104613662     -0.00389474766392
H   7.07386165167227     -1.22822657074368     -0.00008250934481
H   2.47331421164041      6.74068466339473      0.00017162982210
H   4.60066897122302     -5.51237575717576      0.00039007446835
H   -2.47331820069565      6.74068209160650      0.00047297644710
H   -0.00000978838621     -6.73852780445195      0.00458867820736
H   -5.83530143450167      3.36927132229595      0.00410314985360
H   2.47330840367253     -6.74068500242887      0.00027980126949
H   -4.60067436136587      5.51237839860371      0.00002010017831
H   -5.83527902699321     -3.36928859177951     -0.00451481925734
H   -2.47329986759855     -6.74067870613986     -0.00016951527498
H   -7.07385728692578      1.22822084484047     -0.00046143985387
H   -4.60067330624313     -5.51236229778631      0.00021776644566
H   -7.07385645456741     -1.22822025997701     -0.00017736581114

    units angstrom      # Angstroms are the default
    no_reorient         # Geometry fixed, default
    symmetry c1         # C1 symmetry, default
}

set {
    scf_type DF         # Density fitting, faster than exact integrals
    freeze_core True    # Freeze core electrons
    basis jun-cc-pVDZ   # Jun-cc-pVDZ basis set, recommended for sSAPT0 in https://doi.org/10.1063/1.4867135
}

energy('ssapt0')        # Compute sSAPT0 energy, includes also SAPT0
--------------------------------------------------------------------------

  //              Dimer HF             //
    Molecular point group: c1
  Charge       = 1
  Multiplicity = 1
  Basis Set: JUN-CC-PVDZ
    Blend: JUN-CC-PVDZ
  Basis Set: (JUN-CC-PVDZ AUX)
    Blend: JUN-CC-PVDZ-JKFIT
  @DF-RHF Final Energy: -2359.21087175678440
    Total Energy =                      -2359.2108717567843996
 Dipole X            :          0.0040854            0.0006313            0.0047167
 Dipole Y            :         -1.5696524            1.8864948            0.3168424
 Dipole Z            :        -16.9493531           22.8798695            5.9305164
 Magnitude           :                                                    5.9389760
  //            Monomer A HF           //
    Molecular point group: c1
  Multiplicity = 1
  Basis Set: JUN-CC-PVDZ
    Blend: JUN-CC-PVDZ
  Basis Set: (JUN-CC-PVDZ AUX)
    Blend: JUN-CC-PVDZ-JKFIT
  @DF-RHF Final Energy:  -303.29817345139986
    Total Energy =                       -303.2981734513998617
  //            Monomer B HF           //
    Molecular point group: c1

    Geometry (in Angstrom), charge = 0, multiplicity = 1:

       Center              X                  Y                   Z               Mass
    ------------   -----------------  -----------------  -----------------  -----------------
      Gh(C)           0.680066520158    -1.215933861162     3.848391177522    12.000000000000
      Gh(C)          -0.680504479842    -1.215549861162     3.846363177522    12.000000000000
      Gh(N)          -1.085635479842     0.102774138838     3.845365177522    14.003074004430
      Gh(C)           0.000107520158     0.884175138838     3.842089177522    12.000000000000
      Gh(C)          -2.477365479842     0.570753138838     3.795959177522    12.000000000000
      Gh(N)           1.085221520158     0.102774138838     3.845365177522    14.003074004430
      Gh(H)           1.385145520158    -2.033372861162     3.856219177522     1.007825032230
      Gh(H)          -1.385302479842    -2.033218861162     3.846553177522     1.007825032230
      Gh(H)          -0.000009479842     1.965264138838     3.840342177522     1.007825032230
      Gh(C)           2.478116520158     0.567872138838     3.862257177522    12.000000000000
      Gh(H)           2.490591520158     1.658125138838     3.834912177522     1.007825032230
      Gh(H)           2.967027520158     0.220696138838     4.775703177522     1.007825032230
      Gh(H)           3.001427520158     0.176400138838     2.986774177522     1.007825032230
      Gh(H)          -2.857359479842     0.490794138838     2.773888177522     1.007825032230
      Gh(H)          -3.082679479842    -0.042310861162     4.466043177522     1.007825032230
      Gh(H)          -2.518128479842     1.610701138838     4.122943177522     1.007825032230
         C            1.225311895423     0.707533799757    -0.553513195194    12.000000000000
         C            1.225323856051    -0.707543383733    -0.565844004764    12.000000000000
         C           -0.000006153932     1.414961424928    -0.566377628285    12.000000000000
         C            2.456448753949     1.418323398016    -0.550626337794    12.000000000000
         C            0.000010827279    -1.414980987797    -0.556178070961    12.000000000000
         C           -1.225300948908     0.707540884822    -0.551261674872    12.000000000000
         C            2.456437755320    -1.418327793043    -0.568089161621    12.000000000000
         C           -0.000001332978     2.836796542119    -0.568781178419    12.000000000000
         C            3.681826697470     0.709313466839    -0.567740371823    12.000000000000
         C            2.455120048865     2.834219172327    -0.567842928784    12.000000000000
         C            3.681821105219    -0.709338328591    -0.551667887805    12.000000000000
         C           -1.225313598688    -0.707532004706    -0.564771243337    12.000000000000
         C            1.226699581202     3.543464994832    -0.551483855874    12.000000000000
         C            0.000004784858    -2.836786628398    -0.551329903339    12.000000000000
         C           -2.456436032848     1.418312429123    -0.551226279026    12.000000000000
         C            2.455123417779    -2.834234517751    -0.551819796173    12.000000000000
         C           -1.226714364589     3.543464574588    -0.551380522655    12.000000000000
         C            4.914517295202     1.427168383327    -0.561259688794    12.000000000000
         C            3.693150191476     3.542790803383    -0.561209889158    12.000000000000
         C           -2.456437600068    -1.418317770001    -0.568114199746    12.000000000000
         C            1.226704841943    -3.543478731069    -0.567453986624    12.000000000000
         C           -2.455125398508     2.834212173472    -0.567836552438    12.000000000000
         C            4.914524380782    -1.427191399106    -0.558286946059    12.000000000000
         C            1.221424613699     4.970129576098    -0.558148511800    12.000000000000
         C            4.893008229321     2.825183510864    -0.560043020435    12.000000000000
         C           -1.226697008489    -3.543475486239    -0.567186782214    12.000000000000
         C           -3.681818976526     0.709320477570    -0.567727691343    12.000000000000
         C            3.693147101150    -3.542805830553    -0.558169055498    12.000000000000
         C           -1.221432251994     4.970123808701    -0.557965016427    12.000000000000
         C            6.134770972926     0.680543457943    -0.560489914244    12.000000000000
         C            3.656788880610     4.972948754405    -0.560301251375    12.000000000000
         C           -2.455126907733    -2.834219582223    -0.552064153971    12.000000000000
         C           -3.681819179061    -0.709330192631    -0.551550266226    12.000000000000
         C            4.893012617914    -2.825204594794    -0.559431868540    12.000000000000
         C           -0.000001073113     5.650442876870    -0.559196325134    12.000000000000
         C            6.134775112332    -0.680559343237    -0.559224593728    12.000000000000
         C            2.478131482856     5.653572262169    -0.559012471725    12.000000000000
         C            1.221422404738    -4.970131544095    -0.560948008822    12.000000000000
         C           -3.693162383965     3.542792465030    -0.561044381698    12.000000000000
         C           -1.221428520945    -4.970122792758    -0.561060770655    12.000000000000
         C           -4.914521807942     1.427170957833    -0.561182743786    12.000000000000
         C            3.656787019679    -4.972959715401    -0.558850750841    12.000000000000
         C           -2.478138530106     5.653569933366    -0.558727946717    12.000000000000
         C           -3.693141738564    -3.542794708141    -0.558285181654    12.000000000000
         C           -4.914512483053    -1.427185489190    -0.558252248886    12.000000000000
         C           -0.000006008926    -5.650442776176    -0.559591829255    12.000000000000
         C           -4.893020484101     2.825184109757    -0.560053102295    12.000000000000
         C            2.478125993298    -5.653578033051    -0.559941351633    12.000000000000
         C           -3.656798710258     4.972951692879    -0.560124571000    12.000000000000
         C           -4.892999478856    -2.825196256222    -0.559585904237    12.000000000000
         C           -2.478128498083    -5.653570659169    -0.560216539281    12.000000000000
         C           -6.134770503331     0.680544277094    -0.560515465946    12.000000000000
         C           -3.656788833189    -4.972948512133    -0.559065038658    12.000000000000
         C           -6.134765042913    -0.680558404644    -0.559245069523    12.000000000000
         H            5.835288495816     3.369271405792    -0.555683694772     1.007825032230
         H            7.073859172747     1.228212759737    -0.560028270851     1.007825032230
         H            4.600663264174     5.512376313291    -0.559796050623     1.007825032230
         H            5.835283387305    -3.369310545891    -0.563886335854     1.007825032230
         H           -0.000012151306     6.738526184974    -0.563545570142     1.007825032230
         H            7.073861171831    -1.228231431906    -0.559733331823     1.007825032230
         H            2.473313731799     6.740679802232    -0.559479192656     1.007825032230
         H            4.600668491381    -5.512380618338    -0.559260748009     1.007825032230
         H           -2.473318680537     6.740677230444    -0.559177846031     1.007825032230
         H           -0.000010268228    -6.738532665614    -0.555062144270     1.007825032230
         H           -5.835301914343     3.369266461134    -0.555547672624     1.007825032230
         H            2.473307923831    -6.740689863591    -0.559371021208     1.007825032230
         H           -4.600674841208     5.512373537441    -0.559630722299     1.007825032230
         H           -5.835279506835    -3.369293452942    -0.564165641735     1.007825032230
         H           -2.473300347440    -6.740683567302    -0.559820337753     1.007825032230
         H           -7.073857766768     1.228215983678    -0.560112262332     1.007825032230
         H           -4.600673786085    -5.512367158949    -0.559433056032     1.007825032230
         H           -7.073856934409    -1.228225121139    -0.559828188289     1.007825032230

  Charge       = 0
  Multiplicity = 1
  Basis Set: JUN-CC-PVDZ
    Blend: JUN-CC-PVDZ
  Basis Set: (JUN-CC-PVDZ AUX)
    Blend: JUN-CC-PVDZ-JKFIT

    Orbital Energies [Eh]
    ---------------------

    Doubly Occupied:

       1A    -11.260585     2A    -11.260151     3A    -11.260122
       4A    -11.259422     5A    -11.259393     6A    -11.259227
       7A    -11.259005     8A    -11.258940     9A    -11.258911
      10A    -11.258589    11A    -11.258586    12A    -11.258490
      13A    -11.258430    14A    -11.258422    15A    -11.258419
      16A    -11.258392    17A    -11.258377    18A    -11.258363
      19A    -11.258360    20A    -11.258348    21A    -11.258346
      22A    -11.258282    23A    -11.258273    24A    -11.258015
      25A    -11.257308    26A    -11.257264    27A    -11.257226
      28A    -11.257128    29A    -11.257091    30A    -11.257026
      31A    -11.256411    32A    -11.256362    33A    -11.256312
      34A    -11.256242    35A    -11.256202    36A    -11.256173
      37A    -11.252242    38A    -11.252239    39A    -11.252231
      40A    -11.252229    41A    -11.252223    42A    -11.252211
      43A    -11.251340    44A    -11.251335    45A    -11.251333
      46A    -11.251328    47A    -11.251322    48A    -11.251317
      49A    -11.250803    50A    -11.250799    51A    -11.250793
      52A    -11.250789    53A    -11.250784    54A    -11.250772
      55A     -1.243951    56A     -1.219726    57A     -1.219704
      58A     -1.189453    59A     -1.189442    60A     -1.180839
      61A     -1.157479    62A     -1.148889    63A     -1.135400
      64A     -1.135377    65A     -1.113111    66A     -1.113109
      67A     -1.082334    68A     -1.082323    69A     -1.078499
      70A     -1.065905    71A     -1.065897    72A     -1.039308
      73A     -1.024162    74A     -1.021662    75A     -1.021607
      76A     -1.017645    77A     -1.012719    78A     -0.986923
      79A     -0.986872    80A     -0.961797    81A     -0.961742
      82A     -0.894199    83A     -0.894173    84A     -0.887811
      85A     -0.886062    86A     -0.886018    87A     -0.881285
      88A     -0.881238    89A     -0.861810    90A     -0.837337
      91A     -0.818110    92A     -0.816501    93A     -0.812024
      94A     -0.812022    95A     -0.794606    96A     -0.794592
      97A     -0.746499    98A     -0.744748    99A     -0.733303
     100A     -0.733295   101A     -0.732092   102A     -0.732068
     103A     -0.716392   104A     -0.698888   105A     -0.698859
     106A     -0.693491   107A     -0.693455   108A     -0.661142
     109A     -0.653005   110A     -0.651039   111A     -0.650170
     112A     -0.650164   113A     -0.639273   114A     -0.639254
     115A     -0.629606   116A     -0.627410   117A     -0.627401
     118A     -0.606449   119A     -0.605748   120A     -0.601546
     121A     -0.599650   122A     -0.599595   123A     -0.593525
     124A     -0.591102   125A     -0.591071   126A     -0.585204
     127A     -0.576452   128A     -0.576376   129A     -0.567244
     130A     -0.567226   131A     -0.565844   132A     -0.565834
     133A     -0.558611   134A     -0.554756   135A     -0.554755
     136A     -0.538505   137A     -0.538503   138A     -0.538210
     139A     -0.538203   140A     -0.529615   141A     -0.528150
     142A     -0.522783   143A     -0.522757   144A     -0.500416
     145A     -0.495583   146A     -0.493141   147A     -0.487797
     148A     -0.484959   149A     -0.481648   150A     -0.481645
     151A     -0.470324   152A     -0.470296   153A     -0.450890
     154A     -0.450822   155A     -0.439031   156A     -0.439022
     157A     -0.404726   158A     -0.404680   159A     -0.403336
     160A     -0.375381   161A     -0.375375   162A     -0.349092
     163A     -0.337549   164A     -0.336504   165A     -0.336484
     166A     -0.311052   167A     -0.298052   168A     -0.284296
     169A     -0.284242   170A     -0.224864   171A     -0.224803

  @DF-RHF Final Energy: -2055.89473288732870

   => Energetics <=

    Nuclear Repulsion Energy =           6452.5568002797772351
    One-Electron Energy =              -15636.5085693504152005
    Two-Electron Energy =                7128.0570361833088100
    Total Energy =                      -2055.8947328873291553
 Dipole X            :          0.0001135           -0.0000085            0.0001050
 Dipole Y            :          0.0035145           -0.0028843            0.0006302
 Dipole Z            :        361.6882920         -361.6961219           -0.0078299
 Magnitude           :                                                    0.0078559

    SAPT Results
  --------------------------------------------------------------------------------------------------------
    Electrostatics                -12.28968857 [mEh]      -7.71189601 [kcal/mol]     -32.26657290 [kJ/mol]
      Elst10,r                    -12.28968857 [mEh]      -7.71189601 [kcal/mol]     -32.26657290 [kJ/mol]

    Exchange                        1.00481533 [mEh]       0.63053114 [kcal/mol]       2.63814229 [kJ/mol]
      Exch10                        1.00481533 [mEh]       0.63053114 [kcal/mol]       2.63814229 [kJ/mol]
      Exch10(S^2)                   1.00473374 [mEh]       0.63047994 [kcal/mol]       2.63792808 [kJ/mol]

    Induction                      -6.68054482 [mEh]      -4.19210516 [kcal/mol]     -17.53976800 [kJ/mol]
      Ind20,r                      -6.54865158 [mEh]      -4.10934090 [kcal/mol]     -17.19348235 [kJ/mol]
      Exch-Ind20,r                  0.21910896 [mEh]       0.13749295 [kcal/mol]       0.57527051 [kJ/mol]
      delta HF,r (2)               -0.35100220 [mEh]      -0.22025721 [kcal/mol]      -0.92155616 [kJ/mol]

    Dispersion                    -11.12760790 [mEh]      -6.98267938 [kcal/mol]     -29.21553051 [kJ/mol]
      Disp20                      -11.28946217 [mEh]      -7.08424447 [kcal/mol]     -29.64047885 [kJ/mol]
      Exch-Disp20                   0.16185428 [mEh]       0.10156509 [kcal/mol]       0.42494834 [kJ/mol]
      Disp20 (SS)                  -5.64473109 [mEh]      -3.54212223 [kcal/mol]     -14.82023943 [kJ/mol]
      Disp20 (OS)                  -5.64473109 [mEh]      -3.54212223 [kcal/mol]     -14.82023943 [kJ/mol]
      Exch-Disp20 (SS)              0.10478929 [mEh]       0.06575627 [kcal/mol]       0.27512424 [kJ/mol]
      Exch-Disp20 (OS)              0.05706499 [mEh]       0.03580882 [kcal/mol]       0.14982410 [kJ/mol]

  Total HF                        -17.96541806 [mEh]     -11.27347003 [kcal/mol]     -47.16819861 [kJ/mol]
  Total SAPT0                     -29.09302595 [mEh]     -18.25614941 [kcal/mol]     -76.38372912 [kJ/mol]

  Special recipe for scaled SAPT0 (see Manual):
    Electrostatics sSAPT0         -12.28968857 [mEh]      -7.71189601 [kcal/mol]     -32.26657290 [kJ/mol]
    Exchange sSAPT0                 1.00481533 [mEh]       0.63053114 [kcal/mol]       2.63814229 [kJ/mol]
    Induction sSAPT0               -6.68049143 [mEh]      -4.19207166 [kcal/mol]     -17.53962784 [kJ/mol]
    Dispersion sSAPT0             -11.12756846 [mEh]      -6.98265463 [kcal/mol]     -29.21542698 [kJ/mol]
  Total sSAPT0                    -29.09293314 [mEh]     -18.25609116 [kcal/mol]     -76.38348543 [kJ/mol]
  --------------------------------------------------------------------------------------------------------

*** Psi4 exiting successfully. Buy a developer a beer!
