                               Psi4 1.9 release

  ==> Input File <==

--------------------------------------------------------------------------
memory 32 GB # how much memory is available ! Depends on the nodes/cores !

molecule dimer {
# monomer A
-1 1    # Charge and multiplicity
B -1.977592e-04  2.742729e-04 2.600034
F  1.123153e-16  1.430594e-17 4.012819
F  1.147860e+00  6.757812e-01 2.128893
F  1.191806e-02 -1.332011e+00 2.129095
F -1.159666e+00  6.560735e-01 2.129174
--
# monomer B
0 1     # Charge and multiplicity
C   1.22531237526482      0.70753866091955      0.00613762728373
C   1.22532433589282     -0.70753852257020     -0.00619318228664
C   -0.00000567409046      1.41496628609039     -0.00672680580738
C   2.45644923379077      1.41832825917820      0.00902448468363
C   0.00001130712078     -1.41497612663474      0.00347275151708
C   -1.22530046906674      0.70754574598412      0.00838914760619
C   2.45643823516184     -1.41832293188077     -0.00843833914343
C   -0.00000085313587      2.83680140328112     -0.00913035594137
C   3.68182717731192      0.70931832800114     -0.00808954934571
C   2.45512052870677      2.83422403348893     -0.00819210630633
C   3.68182158506039     -0.70933346742900      0.00798293467272
C   -1.22531311884624     -0.70752714354401     -0.00512042085974
C   1.22670006104402      3.54346985599427      0.00816696660346
C   0.00000526469929     -2.83678176723568      0.00832091913869
C   -2.45643555300670      1.41831729028492      0.00842454345199
C   2.45512389762097     -2.83422965658853      0.00783102630520
C   -1.22671388474763      3.54346943575023      0.00827029982280
C   4.91451777504333      1.42717324448953     -0.00160886631602
C   3.69315067131765      3.54279566454522     -0.00155906667985
C   -2.45643712022637     -1.41831290883911     -0.00846337726810
C   1.22670532178455     -3.54347386990643     -0.00780316414624
C   -2.45512491866593      2.83421703463423     -0.00818572995999
C   4.91452486062398     -1.42718653794377      0.00136387641845
C   1.22142509354026      4.97013443726031      0.00150231067809
C   4.89300870916237      2.82518837202648     -0.00039219795739
C   -1.22669652864725     -3.54347062507680     -0.00753595973677
C   -3.68181849668397      0.70932533873199     -0.00807686886569
C   3.69314758099218     -3.54280096939050      0.00148176697923
C   -1.22143177215231      4.97012866986289      0.00168580605083
C   6.13477145276790      0.68054831910577     -0.00083909176631
C   3.65678936045204      4.97295361556775     -0.00065042889723
C   -2.45512642789169     -2.83421472106065      0.00758666850712
C   -3.68181869921921     -0.70932533146830      0.00810055625144
C   4.89301309775526     -2.82519973363176      0.00021895393805
C   -0.00000059327114      5.65044773803267      0.00045449734393
C   6.13477559217374     -0.68055448207492      0.00042622874941
C   2.47813196269732      5.65357712333155      0.00063835075260
C   1.22142288457925     -4.97012668293268     -0.00129718634452
C   -3.69316190412301      3.54279732619245     -0.00139355922051
C   -1.22142804110313     -4.97011793159564     -0.00140994817719
C   -4.91452132810043      1.42717581899491     -0.00153192130862
C   3.65678749952045     -4.97295485423912      0.00080007163680
C   -2.47813805026426      5.65357479452875      0.00092287576113
C   -3.69314125872231     -3.54278984697859      0.00136564082345
C   -4.91451200321153     -1.42718062802730      0.00139857359209
C   -0.00000552908399     -5.65043791501335      0.00005899322272
C   -4.89302000425900      2.82518897091939     -0.00040227981744
C   2.47812647313991     -5.65357317188818     -0.00029052915548
C   -3.65679823041642      4.97295655404175     -0.00047374852278
C   -4.89299899901461     -2.82519139505969      0.00006491824035
C   -2.47812801824129     -5.65356579800621     -0.00056571680280
C   -6.13477002348955      0.68054913825639     -0.00086464346868
C   -3.65678835334731     -4.97294365097028      0.00058578382008
C   -6.13476456307132     -0.68055354348201      0.00040575295444
H   5.83528897565761      3.36927626695423      0.00396712770529
H   7.07385965258860      1.22821762089947     -0.00037744837300
H   4.60066374401555      5.51238117445323     -0.00014522814529
H   5.83528386714679     -3.36930568472863     -0.00423551337640
H   -0.00001167146422      6.73853104613662     -0.00389474766392
H   7.07386165167227     -1.22822657074368     -0.00008250934481
H   2.47331421164041      6.74068466339473      0.00017162982210
H   4.60066897122302     -5.51237575717576      0.00039007446835
H   -2.47331820069565      6.74068209160650      0.00047297644710
H   -0.00000978838621     -6.73852780445195      0.00458867820736
H   -5.83530143450167      3.36927132229595      0.00410314985360
H   2.47330840367253     -6.74068500242887      0.00027980126949
H   -4.60067436136587      5.51237839860371      0.00002010017831
H   -5.83527902699321     -3.36928859177951     -0.00451481925734
H   -2.47329986759855     -6.74067870613986     -0.00016951527498
H   -7.07385728692578      1.22822084484047     -0.00046143985387
H   -4.60067330624313     -5.51236229778631      0.00021776644566
H   -7.07385645456741     -1.22822025997701     -0.00017736581114

    units angstrom      # Angstroms are the default
    no_reorient         # Geometry fixed, default
    symmetry c1         # C1 symmetry, default
}

set {
    scf_type DF         # Density fitting, faster than exact integrals
    freeze_core True    # Freeze core electrons
    basis jun-cc-pVDZ   # Jun-cc-pVDZ basis set, recommended for sSAPT0 in https://doi.org/10.1063/1.4867135
}

energy('ssapt0')        # Compute sSAPT0 energy, includes also SAPT0
--------------------------------------------------------------------------

  //              Dimer HF             //
    Molecular point group: c1
  Charge       = -1
  Multiplicity = 1
  Basis Set: JUN-CC-PVDZ
    Blend: JUN-CC-PVDZ
  Basis Set: (JUN-CC-PVDZ AUX)
    Blend: JUN-CC-PVDZ-JKFIT
  @DF-RHF Final Energy: -2478.56132113328658
    Total Energy =                      -2478.5613211332874926
 Dipole X            :         -0.0008399            0.0000481           -0.0007918
 Dipole Y            :          0.0021835           -0.0001453            0.0020382
 Dipole Z            :         13.5004982          -15.9387116           -2.4382134
 Magnitude           :                                                    2.4382144
  //            Monomer A HF           //
    Molecular point group: c1
  Multiplicity = 1
  Basis Set: JUN-CC-PVDZ
    Blend: JUN-CC-PVDZ
  Basis Set: (JUN-CC-PVDZ AUX)
    Blend: JUN-CC-PVDZ-JKFIT
  @DF-RHF Final Energy:  -422.77606582488664
    Total Energy =                       -422.7760658248866434
  //            Monomer B HF           //
    Molecular point group: c1

    Geometry (in Angstrom), charge = 0, multiplicity = 1:

       Center              X                  Y                   Z               Mass
    ------------   -----------------  -----------------  -----------------  -----------------
      Gh(B)          -0.000198161052     0.000273808717     2.299685074717    11.009305360000
      Gh(F)          -0.000000401852    -0.000000464183     3.712470074717    18.998403162730
      Gh(F)           1.147859598148     0.675780735817     1.828544074717    18.998403162730
      Gh(F)           0.011917658148    -1.332011464183     1.828746074717    18.998403162730
      Gh(F)          -1.159666401852     0.656073035817     1.828825074717    18.998403162730
         C            1.225311973413     0.707538196736    -0.294211297999    12.000000000000
         C            1.225323934041    -0.707538986754    -0.306542107570    12.000000000000
         C           -0.000006075942     1.414965821907    -0.307075731090    12.000000000000
         C            2.456448831939     1.418327794995    -0.291324440599    12.000000000000
         C            0.000010905269    -1.414976590818    -0.296876173766    12.000000000000
         C           -1.225300870919     0.707545281801    -0.291959777677    12.000000000000
         C            2.456437833310    -1.418323396064    -0.308787264426    12.000000000000
         C           -0.000001254988     2.836800939098    -0.309479281224    12.000000000000
         C            3.681826775460     0.709317863818    -0.308438474629    12.000000000000
         C            2.455120126855     2.834223569306    -0.308541031589    12.000000000000
         C            3.681821183209    -0.709333931612    -0.292365990610    12.000000000000
         C           -1.225313520698    -0.707527607727    -0.305469346143    12.000000000000
         C            1.226699659192     3.543469391811    -0.292181958679    12.000000000000
         C            0.000004862847    -2.836782231419    -0.292028006144    12.000000000000
         C           -2.456435954859     1.418316826102    -0.291924381831    12.000000000000
         C            2.455123495769    -2.834230120772    -0.292517898978    12.000000000000
         C           -1.226714286599     3.543468971567    -0.292078625460    12.000000000000
         C            4.914517373191     1.427172780306    -0.301957791599    12.000000000000
         C            3.693150269466     3.542795200362    -0.301907991963    12.000000000000
         C           -2.456437522078    -1.418313373022    -0.308812302551    12.000000000000
         C            1.226704919933    -3.543474334090    -0.308152089429    12.000000000000
         C           -2.455125320518     2.834216570451    -0.308534655243    12.000000000000
         C            4.914524458772    -1.427187002127    -0.298985048864    12.000000000000
         C            1.221424691688     4.970133973077    -0.298846614605    12.000000000000
         C            4.893008307311     2.825187907843    -0.300741123240    12.000000000000
         C           -1.226696930499    -3.543471089260    -0.307884885020    12.000000000000
         C           -3.681818898536     0.709324874549    -0.308425794149    12.000000000000
         C            3.693147179140    -3.542801433574    -0.298867158304    12.000000000000
         C           -1.221432174004     4.970128205680    -0.298663119232    12.000000000000
         C            6.134771050916     0.680547854922    -0.301188017049    12.000000000000
         C            3.656788958600     4.972953151384    -0.300999354180    12.000000000000
         C           -2.455126829744    -2.834215185244    -0.292762256776    12.000000000000
         C           -3.681819101071    -0.709325795652    -0.292248369032    12.000000000000
         C            4.893012695903    -2.825200197815    -0.300129971345    12.000000000000
         C           -0.000000995123     5.650447273849    -0.299894427939    12.000000000000
         C            6.134775190322    -0.680554946258    -0.299922696534    12.000000000000
         C            2.478131560845     5.653576659148    -0.299710574530    12.000000000000
         C            1.221422482727    -4.970127147116    -0.301646111627    12.000000000000
         C           -3.693162305975     3.542796862009    -0.301742484503    12.000000000000
         C           -1.221428442955    -4.970118395779    -0.301758873460    12.000000000000
         C           -4.914521729952     1.427175354812    -0.301880846592    12.000000000000
         C            3.656787097669    -4.972955318422    -0.299548853646    12.000000000000
         C           -2.478138452116     5.653574330345    -0.299426049522    12.000000000000
         C           -3.693141660574    -3.542790311162    -0.298983284459    12.000000000000
         C           -4.914512405063    -1.427181092211    -0.298950351691    12.000000000000
         C           -0.000005930936    -5.650438379197    -0.300289932060    12.000000000000
         C           -4.893020406111     2.825188506736    -0.300751205100    12.000000000000
         C            2.478126071288    -5.653573636072    -0.300639454438    12.000000000000
         C           -3.656798632268     4.972956089858    -0.300822673806    12.000000000000
         C           -4.892999400866    -2.825191859243    -0.300284007043    12.000000000000
         C           -2.478128420093    -5.653566262190    -0.300914642086    12.000000000000
         C           -6.134770425341     0.680548674073    -0.301213568752    12.000000000000
         C           -3.656788755199    -4.972944115154    -0.299763141463    12.000000000000
         C           -6.134764964923    -0.680554007665    -0.299943172329    12.000000000000
         H            5.835288573806     3.369275802771    -0.296381797578     1.007825032230
         H            7.073859250737     1.228217156716    -0.300726373656     1.007825032230
         H            4.600663342164     5.512380710270    -0.300494153428     1.007825032230
         H            5.835283465295    -3.369306148912    -0.304584438659     1.007825032230
         H           -0.000012073316     6.738530581953    -0.304243672947     1.007825032230
         H            7.073861249820    -1.228227034927    -0.300431434628     1.007825032230
         H            2.473313809789     6.740684199211    -0.300177295461     1.007825032230
         H            4.600668569371    -5.512376221359    -0.299958850815     1.007825032230
         H           -2.473318602548     6.740681627423    -0.299875948836     1.007825032230
         H           -0.000010190238    -6.738528268635    -0.295760247076     1.007825032230
         H           -5.835301836354     3.369270858113    -0.296245775429     1.007825032230
         H            2.473308001821    -6.740685466612    -0.300069124013     1.007825032230
         H           -4.600674763218     5.512377934420    -0.300328825105     1.007825032230
         H           -5.835279428845    -3.369289055963    -0.304863744540     1.007825032230
         H           -2.473300269450    -6.740679170323    -0.300518440558     1.007825032230
         H           -7.073857688778     1.228220380657    -0.300810365137     1.007825032230
         H           -4.600673708095    -5.512362761970    -0.300131158837     1.007825032230
         H           -7.073856856419    -1.228220724160    -0.300526291094     1.007825032230

  Charge       = 0
  Multiplicity = 1
  Basis Set: JUN-CC-PVDZ
    Blend: JUN-CC-PVDZ
  Basis Set: (JUN-CC-PVDZ AUX)
    Blend: JUN-CC-PVDZ-JKFIT

    Orbital Energies [Eh]
    ---------------------

    Doubly Occupied:

       1A    -11.260769     2A    -11.260317     3A    -11.260316
       4A    -11.259486     5A    -11.259485     6A    -11.259273
       7A    -11.259003     8A    -11.258944     9A    -11.258944
      10A    -11.258641    11A    -11.258638    12A    -11.258493
      13A    -11.258453    14A    -11.258446    15A    -11.258439
      16A    -11.258400    17A    -11.258395    18A    -11.258378
      19A    -11.258377    20A    -11.258374    21A    -11.258369
      22A    -11.258317    23A    -11.258312    24A    -11.258133
      25A    -11.257266    26A    -11.257208    27A    -11.257207
      28A    -11.257074    29A    -11.257073    30A    -11.256992
      31A    -11.256355    32A    -11.256287    33A    -11.256286
      34A    -11.256180    35A    -11.256179    36A    -11.256134
      37A    -11.252269    38A    -11.252268    39A    -11.252267
      40A    -11.252265    41A    -11.252263    42A    -11.252262
      43A    -11.251363    44A    -11.251362    45A    -11.251362
      46A    -11.251331    47A    -11.251330    48A    -11.251328
      49A    -11.250831    50A    -11.250829    51A    -11.250828
      52A    -11.250826    53A    -11.250824    54A    -11.250823
      55A     -1.243937    56A     -1.219737    57A     -1.219736
      58A     -1.189488    59A     -1.189481    60A     -1.180829
      61A     -1.157527    62A     -1.148927    63A     -1.135387
      64A     -1.135380    65A     -1.113157    66A     -1.113152
      67A     -1.082350    68A     -1.082343    69A     -1.078505
      70A     -1.065950    71A     -1.065946    72A     -1.039349
      73A     -1.024170    74A     -1.021648    75A     -1.021605
      76A     -1.017702    77A     -1.012765    78A     -0.986944
      79A     -0.986898    80A     -0.961833    81A     -0.961783
      82A     -0.894249    83A     -0.894222    84A     -0.887825
      85A     -0.886074    86A     -0.886016    87A     -0.881321
      88A     -0.881274    89A     -0.861851    90A     -0.837395
      91A     -0.818159    92A     -0.816512    93A     -0.812055
      94A     -0.812046    95A     -0.794648    96A     -0.794637
      97A     -0.746542    98A     -0.744773    99A     -0.733313
     100A     -0.733304   101A     -0.732138   102A     -0.732114
     103A     -0.716417   104A     -0.698930   105A     -0.698919
     106A     -0.693517   107A     -0.693502   108A     -0.661182
     109A     -0.652988   110A     -0.651052   111A     -0.650214
     112A     -0.650208   113A     -0.639322   114A     -0.639320
     115A     -0.629640   116A     -0.627441   117A     -0.627425
     118A     -0.606488   119A     -0.605799   120A     -0.601585
     121A     -0.599685   122A     -0.599654   123A     -0.593581
     124A     -0.591097   125A     -0.591086   126A     -0.585258
     127A     -0.576367   128A     -0.576361   129A     -0.567294
     130A     -0.567280   131A     -0.565859   132A     -0.565840
     133A     -0.558624   134A     -0.554791   135A     -0.554784
     136A     -0.538551   137A     -0.538550   138A     -0.538149
     139A     -0.538143   140A     -0.529667   141A     -0.528202
     142A     -0.522818   143A     -0.522812   144A     -0.500463
     145A     -0.495567   146A     -0.493192   147A     -0.487808
     148A     -0.485012   149A     -0.481689   150A     -0.481682
     151A     -0.470342   152A     -0.470325   153A     -0.450912
     154A     -0.450833   155A     -0.439053   156A     -0.439043
     157A     -0.404693   158A     -0.404670   159A     -0.403336
     160A     -0.375409   161A     -0.375406   162A     -0.349100
     163A     -0.337484   164A     -0.336486   165A     -0.336429
     166A     -0.311040   167A     -0.298099   168A     -0.284255
     169A     -0.284201   170A     -0.224853   171A     -0.224787

  @DF-RHF Final Energy: -2055.89463101263891

   => Energetics <=

    Nuclear Repulsion Energy =           6452.5568002797772351
    One-Electron Energy =              -15636.5005371528914111
    Two-Electron Energy =                7128.0491058604757200
    Total Energy =                      -2055.8946310126384560
 Dipole X            :         -0.0000029            0.0000419            0.0000390
 Dipole Y            :          0.0000827           -0.0000426            0.0000401
 Dipole Z            :        194.1170823         -194.1128491            0.0042332
 Magnitude           :                                                    0.0042336

    SAPT Results
  --------------------------------------------------------------------------------------------------------
    Electrostatics                -94.75906492 [mEh]     -59.46221096 [kcal/mol]    -248.78989068 [kJ/mol]
      Elst10,r                    -94.75906492 [mEh]     -59.46221096 [kcal/mol]    -248.78989068 [kJ/mol]

    Exchange                      249.34492350 [mEh]     156.46630173 [kcal/mol]     654.65500645 [kJ/mol]
      Exch10                      249.34492350 [mEh]     156.46630173 [kcal/mol]     654.65500645 [kJ/mol]
      Exch10(S^2)                 242.36983430 [mEh]     152.08936718 [kcal/mol]     636.34191228 [kJ/mol]

    Induction                     -45.21015434 [mEh]     -28.36980016 [kcal/mol]    -118.69924385 [kJ/mol]
      Ind20,r                    -157.02877240 [mEh]     -98.53704233 [kcal/mol]    -412.27898513 [kJ/mol]
      Exch-Ind20,r                123.95541543 [mEh]      77.78319751 [kcal/mol]     325.44489837 [kJ/mol]
      delta HF,r (2)              -12.13679737 [mEh]      -7.61595533 [kcal/mol]     -31.86515710 [kJ/mol]

    Dispersion                    -43.82439382 [mEh]     -27.50022231 [kcal/mol]    -115.06093013 [kJ/mol]
      Disp20                      -63.59802639 [mEh]     -39.90836407 [kcal/mol]    -166.97659528 [kJ/mol]
      Exch-Disp20                  19.77363257 [mEh]      12.40814177 [kcal/mol]      51.91566515 [kJ/mol]
      Disp20 (SS)                 -31.79901320 [mEh]     -19.95418204 [kcal/mol]     -83.48829764 [kJ/mol]
      Disp20 (OS)                 -31.79901320 [mEh]     -19.95418204 [kcal/mol]     -83.48829764 [kJ/mol]
      Exch-Disp20 (SS)             10.34882338 [mEh]       6.49398472 [kcal/mol]      27.17083205 [kJ/mol]
      Exch-Disp20 (OS)              9.42480918 [mEh]       5.91415705 [kcal/mol]      24.74483310 [kJ/mol]

  Total HF                        109.37570424 [mEh]      68.63429061 [kcal/mol]     287.16587192 [kJ/mol]
  Total SAPT0                      65.55131042 [mEh]      41.13406830 [kcal/mol]     172.10494179 [kJ/mol]

  Special recipe for scaled SAPT0 (see Manual):
    Electrostatics sSAPT0         -94.75906492 [mEh]     -59.46221096 [kcal/mol]    -248.78989068 [kJ/mol]
    Exchange sSAPT0               249.34492350 [mEh]     156.46630173 [kcal/mol]     654.65500645 [kJ/mol]
    Induction sSAPT0              -34.19738732 [mEh]     -21.45918452 [kcal/mol]     -89.78522805 [kJ/mol]
    Dispersion sSAPT0             -42.06761371 [mEh]     -26.39782614 [kcal/mol]    -110.44850458 [kJ/mol]
  Total sSAPT0                     78.32085754 [mEh]      49.14708010 [kcal/mol]     205.63138314 [kJ/mol]
  --------------------------------------------------------------------------------------------------------

*** Psi4 exiting successfully. Buy a developer a beer!
