                               Psi4 1.9 release

  ==> Input File <==

--------------------------------------------------------------------------
memory 32 GB # how much memory is available ! Depends on the nodes/cores !

molecule dimer {
# monomer A
+1 1    # Charge and multiplicity
C  0.680067 -0.008042 -10.815929
C -0.680504 -0.006014 -10.815545
N -1.085635 -0.005016  -9.497221
C  0.000108 -0.001740  -8.715820
C -2.477365  0.044390  -9.029242
N  1.085222 -0.005016  -9.497221
H  1.385146 -0.015870 -11.633368
H -1.385302 -0.006204 -11.633214
H -0.000009  0.000007  -7.634731
C  2.478117 -0.021908  -9.032123
H  2.490592  0.005437  -7.941870
H  2.967028 -0.935354  -9.379299
H  3.001428  0.853575  -9.423595
H -2.857359  1.066461  -9.109201
H -3.082679 -0.625694  -9.642306
H -2.518128 -0.282594  -7.989294
--
# monomer B
0 1     # Charge and multiplicity
C   1.22531237526482      0.70753866091955      0.00613762728373
C   1.22532433589282     -0.70753852257020     -0.00619318228664
C   -0.00000567409046      1.41496628609039     -0.00672680580738
C   2.45644923379077      1.41832825917820      0.00902448468363
C   0.00001130712078     -1.41497612663474      0.00347275151708
C   -1.22530046906674      0.70754574598412      0.00838914760619
C   2.45643823516184     -1.41832293188077     -0.00843833914343
C   -0.00000085313587      2.83680140328112     -0.00913035594137
C   3.68182717731192      0.70931832800114     -0.00808954934571
C   2.45512052870677      2.83422403348893     -0.00819210630633
C   3.68182158506039     -0.70933346742900      0.00798293467272
C   -1.22531311884624     -0.70752714354401     -0.00512042085974
C   1.22670006104402      3.54346985599427      0.00816696660346
C   0.00000526469929     -2.83678176723568      0.00832091913869
C   -2.45643555300670      1.41831729028492      0.00842454345199
C   2.45512389762097     -2.83422965658853      0.00783102630520
C   -1.22671388474763      3.54346943575023      0.00827029982280
C   4.91451777504333      1.42717324448953     -0.00160886631602
C   3.69315067131765      3.54279566454522     -0.00155906667985
C   -2.45643712022637     -1.41831290883911     -0.00846337726810
C   1.22670532178455     -3.54347386990643     -0.00780316414624
C   -2.45512491866593      2.83421703463423     -0.00818572995999
C   4.91452486062398     -1.42718653794377      0.00136387641845
C   1.22142509354026      4.97013443726031      0.00150231067809
C   4.89300870916237      2.82518837202648     -0.00039219795739
C   -1.22669652864725     -3.54347062507680     -0.00753595973677
C   -3.68181849668397      0.70932533873199     -0.00807686886569
C   3.69314758099218     -3.54280096939050      0.00148176697923
C   -1.22143177215231      4.97012866986289      0.00168580605083
C   6.13477145276790      0.68054831910577     -0.00083909176631
C   3.65678936045204      4.97295361556775     -0.00065042889723
C   -2.45512642789169     -2.83421472106065      0.00758666850712
C   -3.68181869921921     -0.70932533146830      0.00810055625144
C   4.89301309775526     -2.82519973363176      0.00021895393805
C   -0.00000059327114      5.65044773803267      0.00045449734393
C   6.13477559217374     -0.68055448207492      0.00042622874941
C   2.47813196269732      5.65357712333155      0.00063835075260
C   1.22142288457925     -4.97012668293268     -0.00129718634452
C   -3.69316190412301      3.54279732619245     -0.00139355922051
C   -1.22142804110313     -4.97011793159564     -0.00140994817719
C   -4.91452132810043      1.42717581899491     -0.00153192130862
C   3.65678749952045     -4.97295485423912      0.00080007163680
C   -2.47813805026426      5.65357479452875      0.00092287576113
C   -3.69314125872231     -3.54278984697859      0.00136564082345
C   -4.91451200321153     -1.42718062802730      0.00139857359209
C   -0.00000552908399     -5.65043791501335      0.00005899322272
C   -4.89302000425900      2.82518897091939     -0.00040227981744
C   2.47812647313991     -5.65357317188818     -0.00029052915548
C   -3.65679823041642      4.97295655404175     -0.00047374852278
C   -4.89299899901461     -2.82519139505969      0.00006491824035
C   -2.47812801824129     -5.65356579800621     -0.00056571680280
C   -6.13477002348955      0.68054913825639     -0.00086464346868
C   -3.65678835334731     -4.97294365097028      0.00058578382008
C   -6.13476456307132     -0.68055354348201      0.00040575295444
H   5.83528897565761      3.36927626695423      0.00396712770529
H   7.07385965258860      1.22821762089947     -0.00037744837300
H   4.60066374401555      5.51238117445323     -0.00014522814529
H   5.83528386714679     -3.36930568472863     -0.00423551337640
H   -0.00001167146422      6.73853104613662     -0.00389474766392
H   7.07386165167227     -1.22822657074368     -0.00008250934481
H   2.47331421164041      6.74068466339473      0.00017162982210
H   4.60066897122302     -5.51237575717576      0.00039007446835
H   -2.47331820069565      6.74068209160650      0.00047297644710
H   -0.00000978838621     -6.73852780445195      0.00458867820736
H   -5.83530143450167      3.36927132229595      0.00410314985360
H   2.47330840367253     -6.74068500242887      0.00027980126949
H   -4.60067436136587      5.51237839860371      0.00002010017831
H   -5.83527902699321     -3.36928859177951     -0.00451481925734
H   -2.47329986759855     -6.74067870613986     -0.00016951527498
H   -7.07385728692578      1.22822084484047     -0.00046143985387
H   -4.60067330624313     -5.51236229778631      0.00021776644566
H   -7.07385645456741     -1.22822025997701     -0.00017736581114

    units angstrom      # Angstroms are the default
    no_reorient         # Geometry fixed, default
    symmetry c1         # C1 symmetry, default
}

set {
    scf_type DF         # Density fitting, faster than exact integrals
    freeze_core True    # Freeze core electrons
    basis jun-cc-pVDZ   # Jun-cc-pVDZ basis set, recommended for sSAPT0 in https://doi.org/10.1063/1.4867135
}

energy('ssapt0')        # Compute sSAPT0 energy, includes also SAPT0
--------------------------------------------------------------------------

  //              Dimer HF             //
    Molecular point group: c1
  Charge       = 1
  Multiplicity = 1
  Basis Set: JUN-CC-PVDZ
    Blend: JUN-CC-PVDZ
  Basis Set: (JUN-CC-PVDZ AUX)
    Blend: JUN-CC-PVDZ-JKFIT
  @DF-RHF Final Energy: -2359.19423697138745
    Total Energy =                      -2359.1942369713869994
 Dipole X            :         -0.0009482            0.0006313           -0.0003169
 Dipole Y            :         -0.0477963            0.0560211            0.0082248
 Dipole Z            :         33.3527826          -48.1548576          -14.8020751
 Magnitude           :                                                   14.8020773
  //            Monomer A HF           //
    Molecular point group: c1
  Multiplicity = 1
  Basis Set: JUN-CC-PVDZ
    Blend: JUN-CC-PVDZ
  Basis Set: (JUN-CC-PVDZ AUX)
    Blend: JUN-CC-PVDZ-JKFIT
  @DF-RHF Final Energy:  -303.29716951236190
    Total Energy =                       -303.2971695123619043
  //            Monomer B HF           //
    Molecular point group: c1

    Geometry (in Angstrom), charge = 0, multiplicity = 1:

       Center              X                  Y                   Z               Mass
    ------------   -----------------  -----------------  -----------------  -----------------
      Gh(C)           0.680066520158    -0.008042372515    -9.594870173804    12.000000000000
      Gh(C)          -0.680504479842    -0.006014372515    -9.594486173804    12.000000000000
      Gh(N)          -1.085635479842    -0.005016372515    -8.276162173804    14.003074004430
      Gh(C)           0.000107520158    -0.001740372515    -7.494761173804    12.000000000000
      Gh(C)          -2.477365479842     0.044389627485    -7.808183173804    12.000000000000
      Gh(N)           1.085221520158    -0.005016372515    -8.276162173804    14.003074004430
      Gh(H)           1.385145520158    -0.015870372515   -10.412309173804     1.007825032230
      Gh(H)          -1.385302479842    -0.006204372515   -10.412155173804     1.007825032230
      Gh(H)          -0.000009479842     0.000006627485    -6.413672173804     1.007825032230
      Gh(C)           2.478116520158    -0.021908372515    -7.811064173804    12.000000000000
      Gh(H)           2.490591520158     0.005436627485    -6.720811173804     1.007825032230
      Gh(H)           2.967027520158    -0.935354372515    -8.158240173804     1.007825032230
      Gh(H)           3.001427520158     0.853574627485    -8.202536173804     1.007825032230
      Gh(H)          -2.857359479842     1.066460627485    -7.888142173804     1.007825032230
      Gh(H)          -3.082679479842    -0.625694372515    -8.421247173804     1.007825032230
      Gh(H)          -2.518128479842    -0.282594372515    -6.768235173804     1.007825032230
         C            1.225311895423     0.707538288405     1.227196453480    12.000000000000
         C            1.225323856051    -0.707538895085     1.214865643910    12.000000000000
         C           -0.000006153932     1.414965913575     1.214332020389    12.000000000000
         C            2.456448753949     1.418327886663     1.230083310880    12.000000000000
         C            0.000010827279    -1.414976499150     1.224531577713    12.000000000000
         C           -1.225300948908     0.707545373469     1.229447973802    12.000000000000
         C            2.456437755320    -1.418323304396     1.212620487053    12.000000000000
         C           -0.000001332978     2.836801030766     1.211928470255    12.000000000000
         C            3.681826697470     0.709317955486     1.212969276850    12.000000000000
         C            2.455120048865     2.834223660974     1.212866719890    12.000000000000
         C            3.681821105219    -0.709333839944     1.229041760869    12.000000000000
         C           -1.225313598688    -0.707527516059     1.215938405336    12.000000000000
         C            1.226699581202     3.543469483479     1.229225792800    12.000000000000
         C            0.000004784858    -2.836782139751     1.229379745335    12.000000000000
         C           -2.456436032848     1.418316917770     1.229483369648    12.000000000000
         C            2.455123417779    -2.834230029103     1.228889852501    12.000000000000
         C           -1.226714364589     3.543469063235     1.229329126019    12.000000000000
         C            4.914517295202     1.427172871975     1.219449959880    12.000000000000
         C            3.693150191476     3.542795292030     1.219499759516    12.000000000000
         C           -2.456437600068    -1.418313281354     1.212595448928    12.000000000000
         C            1.226704841943    -3.543474242421     1.213255662050    12.000000000000
         C           -2.455125398508     2.834216662119     1.212873096236    12.000000000000
         C            4.914524380782    -1.427186910459     1.222422702615    12.000000000000
         C            1.221424613699     4.970134064745     1.222561136874    12.000000000000
         C            4.893008229321     2.825187999512     1.220666628239    12.000000000000
         C           -1.226697008489    -3.543470997592     1.213522866459    12.000000000000
         C           -3.681818976526     0.709324966217     1.212981957330    12.000000000000
         C            3.693147101150    -3.542801341905     1.222540593175    12.000000000000
         C           -1.221432251994     4.970128297348     1.222744632247    12.000000000000
         C            6.134770972926     0.680547946591     1.220219734430    12.000000000000
         C            3.656788880610     4.972953243053     1.220408397299    12.000000000000
         C           -2.455126907733    -2.834215093576     1.228645494703    12.000000000000
         C           -3.681819179061    -0.709325703983     1.229159382448    12.000000000000
         C            4.893012617914    -2.825200106147     1.221277780134    12.000000000000
         C           -0.000001073113     5.650447365518     1.221513323540    12.000000000000
         C            6.134775112332    -0.680554854590     1.221485054946    12.000000000000
         C            2.478131482856     5.653576750817     1.221697176949    12.000000000000
         C            1.221422404738    -4.970127055448     1.219761639852    12.000000000000
         C           -3.693162383965     3.542796953677     1.219665266976    12.000000000000
         C           -1.221428520945    -4.970118304111     1.219648878019    12.000000000000
         C           -4.914521807942     1.427175446480     1.219526904888    12.000000000000
         C            3.656787019679    -4.972955226754     1.221858897833    12.000000000000
         C           -2.478138530106     5.653574422014     1.221981701957    12.000000000000
         C           -3.693141738564    -3.542790219494     1.222424467020    12.000000000000
         C           -4.914512483053    -1.427181000542     1.222457399788    12.000000000000
         C           -0.000006008926    -5.650438287528     1.221117819419    12.000000000000
         C           -4.893020484101     2.825188598404     1.220656546379    12.000000000000
         C            2.478125993298    -5.653573544403     1.220768297041    12.000000000000
         C           -3.656798710258     4.972956181527     1.220585077673    12.000000000000
         C           -4.892999478856    -2.825191767575     1.221123744437    12.000000000000
         C           -2.478128498083    -5.653566170521     1.220493109393    12.000000000000
         C           -6.134770503331     0.680548765741     1.220194182727    12.000000000000
         C           -3.656788833189    -4.972944023485     1.221644610016    12.000000000000
         C           -6.134765042913    -0.680553915997     1.221464579151    12.000000000000
         H            5.835288495816     3.369275894439     1.225025953901     1.007825032230
         H            7.073859172747     1.228217248385     1.220681377823     1.007825032230
         H            4.600663264174     5.512380801938     1.220913598051     1.007825032230
         H            5.835283387305    -3.369306057244     1.216823312820     1.007825032230
         H           -0.000012151306     6.738530673622     1.217164078532     1.007825032230
         H            7.073861171831    -1.228226943259     1.220976316851     1.007825032230
         H            2.473313731799     6.740684290880     1.221230456018     1.007825032230
         H            4.600668491381    -5.512376129691     1.221448900665     1.007825032230
         H           -2.473318680537     6.740681719092     1.221531802643     1.007825032230
         H           -0.000010268228    -6.738528176967     1.225647504404     1.007825032230
         H           -5.835301914343     3.369270949781     1.225161976050     1.007825032230
         H            2.473307923831    -6.740685374944     1.221338627466     1.007825032230
         H           -4.600674841208     5.512378026089     1.221078926374     1.007825032230
         H           -5.835279506835    -3.369288964294     1.216544006939     1.007825032230
         H           -2.473300347440    -6.740679078655     1.220889310921     1.007825032230
         H           -7.073857766768     1.228220472326     1.220597386342     1.007825032230
         H           -4.600673786085    -5.512362670301     1.221276592642     1.007825032230
         H           -7.073856934409    -1.228220632492     1.220881460385     1.007825032230

  Charge       = 0
  Multiplicity = 1
  Basis Set: JUN-CC-PVDZ
    Blend: JUN-CC-PVDZ
  Basis Set: (JUN-CC-PVDZ AUX)
    Blend: JUN-CC-PVDZ-JKFIT

    Orbital Energies [Eh]
    ---------------------

    Doubly Occupied:

       1A    -11.260681     2A    -11.260238     3A    -11.260236
       4A    -11.259526     5A    -11.259526     6A    -11.259356
       7A    -11.259146     8A    -11.259069     9A    -11.259068
      10A    -11.258743    11A    -11.258740    12A    -11.258670
      13A    -11.258608    14A    -11.258603    15A    -11.258600
      16A    -11.258571    17A    -11.258565    18A    -11.258549
      19A    -11.258536    20A    -11.258530    21A    -11.258525
      22A    -11.258428    23A    -11.258424    24A    -11.258126
      25A    -11.257466    26A    -11.257404    27A    -11.257403
      28A    -11.257268    29A    -11.257268    30A    -11.257183
      31A    -11.256561    32A    -11.256490    33A    -11.256490
      34A    -11.256380    35A    -11.256380    36A    -11.256333
      37A    -11.252405    38A    -11.252405    39A    -11.252403
      40A    -11.252402    41A    -11.252400    42A    -11.252398
      43A    -11.251541    44A    -11.251538    45A    -11.251537
      46A    -11.251531    47A    -11.251531    48A    -11.251526
      49A    -11.250967    50A    -11.250966    51A    -11.250965
      52A    -11.250963    53A    -11.250961    54A    -11.250960
      55A     -1.244306    56A     -1.220023    57A     -1.220022
      58A     -1.189731    59A     -1.189723    60A     -1.181176
      61A     -1.157730    62A     -1.149163    63A     -1.135714
      64A     -1.135708    65A     -1.113363    66A     -1.113359
      67A     -1.082638    68A     -1.082631    69A     -1.078822
      70A     -1.066147    71A     -1.066143    72A     -1.039587
      73A     -1.024500    74A     -1.022005    75A     -1.021962
      76A     -1.017896    77A     -1.012957    78A     -0.987231
      79A     -0.987185    80A     -0.962058    81A     -0.962008
      82A     -0.894477    83A     -0.894450    84A     -0.888177
      85A     -0.886423    86A     -0.886365    87A     -0.881610
      88A     -0.881563    89A     -0.862082    90A     -0.837559
      91A     -0.818399    92A     -0.816843    93A     -0.812350
      94A     -0.812340    95A     -0.794863    96A     -0.794852
      97A     -0.746849    98A     -0.745075    99A     -0.733644
     100A     -0.733635   101A     -0.732362   102A     -0.732338
     103A     -0.716710   104A     -0.699158   105A     -0.699148
     106A     -0.693785   107A     -0.693770   108A     -0.661408
     109A     -0.653345   110A     -0.651390   111A     -0.650426
     112A     -0.650420   113A     -0.639538   114A     -0.639535
     115A     -0.629924   116A     -0.627735   117A     -0.627720
     118A     -0.606462   119A     -0.605941   120A     -0.601877
     121A     -0.599929   122A     -0.599897   123A     -0.593833
     124A     -0.591466   125A     -0.591455   126A     -0.585427
     127A     -0.576422   128A     -0.576417   129A     -0.567486
     130A     -0.567472   131A     -0.566176   132A     -0.566157
     133A     -0.558952   134A     -0.555032   135A     -0.555026
     136A     -0.538769   137A     -0.538767   138A     -0.538295
     139A     -0.538289   140A     -0.529905   141A     -0.528211
     142A     -0.523060   143A     -0.523054   144A     -0.500677
     145A     -0.495725   146A     -0.493416   147A     -0.487954
     148A     -0.485276   149A     -0.481957   150A     -0.481949
     151A     -0.470444   152A     -0.470426   153A     -0.451264
     154A     -0.451186   155A     -0.439195   156A     -0.439186
     157A     -0.404876   158A     -0.404853   159A     -0.403497
     160A     -0.375549   161A     -0.375547   162A     -0.349254
     163A     -0.337723   164A     -0.336691   165A     -0.336634
     166A     -0.311230   167A     -0.298216   168A     -0.284488
     169A     -0.284434   170A     -0.225056   171A     -0.224990

  @DF-RHF Final Energy: -2055.89158837159903

   => Energetics <=

    Nuclear Repulsion Energy =           6452.5568002797781446
    One-Electron Energy =              -15636.4235168376908405
    Two-Electron Energy =                7127.9751281863145778
    Total Energy =                      -2055.8915883715990276
 Dipole X            :          0.0001053           -0.0000085            0.0000968
 Dipole Y            :         -0.0000306            0.0000167           -0.0000139
 Dipole Z            :       -789.1520543          789.1521905            0.0001363
 Magnitude           :                                                    0.0001677

    SAPT Results
  --------------------------------------------------------------------------------------------------------
    Electrostatics                 -4.57354421 [mEh]      -2.86994232 [kcal/mol]     -12.00783868 [kJ/mol]
      Elst10,r                     -4.57354421 [mEh]      -2.86994232 [kcal/mol]     -12.00783868 [kJ/mol]

    Exchange                       -0.00002343 [mEh]      -0.00001470 [kcal/mol]      -0.00006152 [kJ/mol]
      Exch10                       -0.00002343 [mEh]      -0.00001470 [kcal/mol]      -0.00006152 [kJ/mol]
      Exch10(S^2)                  -0.00002343 [mEh]      -0.00001470 [kcal/mol]      -0.00006152 [kJ/mol]

    Induction                      -0.90551978 [mEh]      -0.56822224 [kcal/mol]      -2.37744186 [kJ/mol]
      Ind20,r                      -0.89827834 [mEh]      -0.56367817 [kcal/mol]      -2.35842946 [kJ/mol]
      Exch-Ind20,r                  0.00000805 [mEh]       0.00000505 [kcal/mol]       0.00002114 [kJ/mol]
      delta HF,r (2)               -0.00724950 [mEh]      -0.00454913 [kcal/mol]      -0.01903355 [kJ/mol]

    Dispersion                     -0.29758460 [mEh]      -0.18673715 [kcal/mol]      -0.78130825 [kJ/mol]
      Disp20                       -0.29758810 [mEh]      -0.18673935 [kcal/mol]      -0.78131744 [kJ/mol]
      Exch-Disp20                   0.00000350 [mEh]       0.00000220 [kcal/mol]       0.00000919 [kJ/mol]
      Disp20 (SS)                  -0.14879405 [mEh]      -0.09336968 [kcal/mol]      -0.39065872 [kJ/mol]
      Disp20 (OS)                  -0.14879405 [mEh]      -0.09336968 [kcal/mol]      -0.39065872 [kJ/mol]
      Exch-Disp20 (SS)              0.00000259 [mEh]       0.00000163 [kcal/mol]       0.00000681 [kJ/mol]
      Exch-Disp20 (OS)              0.00000091 [mEh]       0.00000057 [kcal/mol]       0.00000238 [kJ/mol]

  Total HF                         -5.47908743 [mEh]      -3.43817927 [kcal/mol]     -14.38534206 [kJ/mol]
  Total SAPT0                      -5.77667202 [mEh]      -3.62491642 [kcal/mol]     -15.16665031 [kJ/mol]

  Special recipe for scaled SAPT0 (see Manual):
    Electrostatics sSAPT0          -4.57354421 [mEh]      -2.86994232 [kcal/mol]     -12.00783868 [kJ/mol]
    Exchange sSAPT0                -0.00002343 [mEh]      -0.00001470 [kcal/mol]      -0.00006152 [kJ/mol]
    Induction sSAPT0               -0.90551978 [mEh]      -0.56822224 [kcal/mol]      -2.37744186 [kJ/mol]
    Dispersion sSAPT0              -0.29758460 [mEh]      -0.18673715 [kcal/mol]      -0.78130825 [kJ/mol]
  Total sSAPT0                     -5.77667202 [mEh]      -3.62491642 [kcal/mol]     -15.16665031 [kJ/mol]
  --------------------------------------------------------------------------------------------------------

*** Psi4 exiting successfully. Buy a developer a beer!
