                               Psi4 1.9 release

  ==> Input File <==

--------------------------------------------------------------------------
memory 32 GB # how much memory is available ! Depends on the nodes/cores !

molecule dimer {
# monomer A
+1 1    # Charge and multiplicity
C  0.680067 1.417258 -10.015929
C -0.680504 1.419286 -10.015545
N -1.085635 1.420284  -8.697221
C  0.000108 1.423560  -7.915820
C -2.477365 1.469690  -8.229242
N  1.085222 1.420284  -8.697221
H  1.385146 1.409430 -10.833368
H -1.385302 1.419096 -10.833214
H -0.000009 1.425307  -6.834731
C  2.478117 1.403392  -8.232123
H  2.490592 1.430737  -7.141870
H  2.967028 0.489946  -8.579299
H  3.001428 2.278875  -8.623595
H -2.857359 2.491761  -8.309201
H -3.082679 0.799606  -8.842306
H -2.518128 1.142706  -7.189294
--
# monomer B
0 1     # Charge and multiplicity
C   1.22531237526482      0.70753866091955      0.00613762728373
C   1.22532433589282     -0.70753852257020     -0.00619318228664
C   -0.00000567409046      1.41496628609039     -0.00672680580738
C   2.45644923379077      1.41832825917820      0.00902448468363
C   0.00001130712078     -1.41497612663474      0.00347275151708
C   -1.22530046906674      0.70754574598412      0.00838914760619
C   2.45643823516184     -1.41832293188077     -0.00843833914343
C   -0.00000085313587      2.83680140328112     -0.00913035594137
C   3.68182717731192      0.70931832800114     -0.00808954934571
C   2.45512052870677      2.83422403348893     -0.00819210630633
C   3.68182158506039     -0.70933346742900      0.00798293467272
C   -1.22531311884624     -0.70752714354401     -0.00512042085974
C   1.22670006104402      3.54346985599427      0.00816696660346
C   0.00000526469929     -2.83678176723568      0.00832091913869
C   -2.45643555300670      1.41831729028492      0.00842454345199
C   2.45512389762097     -2.83422965658853      0.00783102630520
C   -1.22671388474763      3.54346943575023      0.00827029982280
C   4.91451777504333      1.42717324448953     -0.00160886631602
C   3.69315067131765      3.54279566454522     -0.00155906667985
C   -2.45643712022637     -1.41831290883911     -0.00846337726810
C   1.22670532178455     -3.54347386990643     -0.00780316414624
C   -2.45512491866593      2.83421703463423     -0.00818572995999
C   4.91452486062398     -1.42718653794377      0.00136387641845
C   1.22142509354026      4.97013443726031      0.00150231067809
C   4.89300870916237      2.82518837202648     -0.00039219795739
C   -1.22669652864725     -3.54347062507680     -0.00753595973677
C   -3.68181849668397      0.70932533873199     -0.00807686886569
C   3.69314758099218     -3.54280096939050      0.00148176697923
C   -1.22143177215231      4.97012866986289      0.00168580605083
C   6.13477145276790      0.68054831910577     -0.00083909176631
C   3.65678936045204      4.97295361556775     -0.00065042889723
C   -2.45512642789169     -2.83421472106065      0.00758666850712
C   -3.68181869921921     -0.70932533146830      0.00810055625144
C   4.89301309775526     -2.82519973363176      0.00021895393805
C   -0.00000059327114      5.65044773803267      0.00045449734393
C   6.13477559217374     -0.68055448207492      0.00042622874941
C   2.47813196269732      5.65357712333155      0.00063835075260
C   1.22142288457925     -4.97012668293268     -0.00129718634452
C   -3.69316190412301      3.54279732619245     -0.00139355922051
C   -1.22142804110313     -4.97011793159564     -0.00140994817719
C   -4.91452132810043      1.42717581899491     -0.00153192130862
C   3.65678749952045     -4.97295485423912      0.00080007163680
C   -2.47813805026426      5.65357479452875      0.00092287576113
C   -3.69314125872231     -3.54278984697859      0.00136564082345
C   -4.91451200321153     -1.42718062802730      0.00139857359209
C   -0.00000552908399     -5.65043791501335      0.00005899322272
C   -4.89302000425900      2.82518897091939     -0.00040227981744
C   2.47812647313991     -5.65357317188818     -0.00029052915548
C   -3.65679823041642      4.97295655404175     -0.00047374852278
C   -4.89299899901461     -2.82519139505969      0.00006491824035
C   -2.47812801824129     -5.65356579800621     -0.00056571680280
C   -6.13477002348955      0.68054913825639     -0.00086464346868
C   -3.65678835334731     -4.97294365097028      0.00058578382008
C   -6.13476456307132     -0.68055354348201      0.00040575295444
H   5.83528897565761      3.36927626695423      0.00396712770529
H   7.07385965258860      1.22821762089947     -0.00037744837300
H   4.60066374401555      5.51238117445323     -0.00014522814529
H   5.83528386714679     -3.36930568472863     -0.00423551337640
H   -0.00001167146422      6.73853104613662     -0.00389474766392
H   7.07386165167227     -1.22822657074368     -0.00008250934481
H   2.47331421164041      6.74068466339473      0.00017162982210
H   4.60066897122302     -5.51237575717576      0.00039007446835
H   -2.47331820069565      6.74068209160650      0.00047297644710
H   -0.00000978838621     -6.73852780445195      0.00458867820736
H   -5.83530143450167      3.36927132229595      0.00410314985360
H   2.47330840367253     -6.74068500242887      0.00027980126949
H   -4.60067436136587      5.51237839860371      0.00002010017831
H   -5.83527902699321     -3.36928859177951     -0.00451481925734
H   -2.47329986759855     -6.74067870613986     -0.00016951527498
H   -7.07385728692578      1.22822084484047     -0.00046143985387
H   -4.60067330624313     -5.51236229778631      0.00021776644566
H   -7.07385645456741     -1.22822025997701     -0.00017736581114

    units angstrom      # Angstroms are the default
    no_reorient         # Geometry fixed, default
    symmetry c1         # C1 symmetry, default
}

set {
    scf_type DF         # Density fitting, faster than exact integrals
    freeze_core True    # Freeze core electrons
    basis jun-cc-pVDZ   # Jun-cc-pVDZ basis set, recommended for sSAPT0 in https://doi.org/10.1063/1.4867135
}

energy('ssapt0')        # Compute sSAPT0 energy, includes also SAPT0
--------------------------------------------------------------------------

  //              Dimer HF             //
    Molecular point group: c1
  Charge       = 1
  Multiplicity = 1
  Basis Set: JUN-CC-PVDZ
    Blend: JUN-CC-PVDZ
  Basis Set: (JUN-CC-PVDZ AUX)
    Blend: JUN-CC-PVDZ-JKFIT
  @DF-RHF Final Energy: -2359.19531365476359
    Total Energy =                      -2359.1953136547635950
 Dipole X            :         -0.0011818            0.0006313           -0.0005505
 Dipole Y            :         -5.4510155            7.4856329            2.0346174
 Dipole Z            :         30.5735598          -43.9847254          -13.4111656
 Magnitude           :                                                   13.5646243
  //            Monomer A HF           //
    Molecular point group: c1
  Multiplicity = 1
  Basis Set: JUN-CC-PVDZ
    Blend: JUN-CC-PVDZ
  Basis Set: (JUN-CC-PVDZ AUX)
    Blend: JUN-CC-PVDZ-JKFIT
  @DF-RHF Final Energy:  -303.29717800795089
    Total Energy =                       -303.2971780079508903
  //            Monomer B HF           //
    Molecular point group: c1

    Geometry (in Angstrom), charge = 0, multiplicity = 1:

       Center              X                  Y                   Z               Mass
    ------------   -----------------  -----------------  -----------------  -----------------
      Gh(C)           0.680066520158     1.235968212970    -8.896625265091    12.000000000000
      Gh(C)          -0.680504479842     1.237996212970    -8.896241265091    12.000000000000
      Gh(N)          -1.085635479842     1.238994212970    -7.577917265091    14.003074004430
      Gh(C)           0.000107520158     1.242270212970    -6.796516265091    12.000000000000
      Gh(C)          -2.477365479842     1.288400212970    -7.109938265091    12.000000000000
      Gh(N)           1.085221520158     1.238994212970    -7.577917265091    14.003074004430
      Gh(H)           1.385145520158     1.228140212970    -9.714064265091     1.007825032230
      Gh(H)          -1.385302479842     1.237806212970    -9.713910265091     1.007825032230
      Gh(H)          -0.000009479842     1.244017212970    -5.715427265091     1.007825032230
      Gh(C)           2.478116520158     1.222102212970    -7.112819265091    12.000000000000
      Gh(H)           2.490591520158     1.249447212970    -6.022566265091     1.007825032230
      Gh(H)           2.967027520158     0.308656212970    -7.459995265091     1.007825032230
      Gh(H)           3.001427520158     2.097585212970    -7.504291265091     1.007825032230
      Gh(H)          -2.857359479842     2.310471212970    -7.189897265091     1.007825032230
      Gh(H)          -3.082679479842     0.618316212970    -7.723002265091     1.007825032230
      Gh(H)          -2.518128479842     0.961416212970    -6.069990265091     1.007825032230
         C            1.225311895423     0.526248873889     1.125441362192    12.000000000000
         C            1.225323856051    -0.888828309601     1.113110552622    12.000000000000
         C           -0.000006153932     1.233676499060     1.112576929101    12.000000000000
         C            2.456448753949     1.237038472148     1.128328219592    12.000000000000
         C            0.000010827279    -1.596265913665     1.122776486426    12.000000000000
         C           -1.225300948908     0.526255958954     1.127692882515    12.000000000000
         C            2.456437755320    -1.599612718911     1.110865395765    12.000000000000
         C           -0.000001332978     2.655511616251     1.110173378967    12.000000000000
         C            3.681826697470     0.528028540971     1.111214185563    12.000000000000
         C            2.455120048865     2.652934246459     1.111111628602    12.000000000000
         C            3.681821105219    -0.890623254459     1.127286669581    12.000000000000
         C           -1.225313598688    -0.888816930574     1.114183314049    12.000000000000
         C            1.226699581202     3.362180068964     1.127470701512    12.000000000000
         C            0.000004784858    -3.018071554266     1.127624654047    12.000000000000
         C           -2.456436032848     1.237027503255     1.127728278360    12.000000000000
         C            2.455123417779    -3.015519443619     1.127134761214    12.000000000000
         C           -1.226714364589     3.362179648720     1.127574034731    12.000000000000
         C            4.914517295202     1.245883457459     1.117694868592    12.000000000000
         C            3.693150191476     3.361505877515     1.117744668229    12.000000000000
         C           -2.456437600068    -1.599602695869     1.110840357640    12.000000000000
         C            1.226704841943    -3.724763656937     1.111500570762    12.000000000000
         C           -2.455125398508     2.652927247604     1.111118004949    12.000000000000
         C            4.914524380782    -1.608476324974     1.120667611327    12.000000000000
         C            1.221424613699     4.788844650230     1.120806045587    12.000000000000
         C            4.893008229321     2.643898584996     1.118911536951    12.000000000000
         C           -1.226697008489    -3.724760412107     1.111767775172    12.000000000000
         C           -3.681818976526     0.528035551702     1.111226866043    12.000000000000
         C            3.693147101150    -3.724090756421     1.120785501888    12.000000000000
         C           -1.221432251994     4.788838882833     1.120989540959    12.000000000000
         C            6.134770972926     0.499258532075     1.118464643142    12.000000000000
         C            3.656788880610     4.791663828537     1.118653306011    12.000000000000
         C           -2.455126907733    -3.015504508091     1.126890403416    12.000000000000
         C           -3.681819179061    -0.890615118499     1.127404291160    12.000000000000
         C            4.893012617914    -3.006489520662     1.119522688847    12.000000000000
         C           -0.000001073113     5.469157951002     1.119758232252    12.000000000000
         C            6.134775112332    -0.861844269105     1.119729963658    12.000000000000
         C            2.478131482856     5.472287336301     1.119942085661    12.000000000000
         C            1.221422404738    -5.151416469963     1.118006548564    12.000000000000
         C           -3.693162383965     3.361507539162     1.117910175688    12.000000000000
         C           -1.221428520945    -5.151407718626     1.117893786731    12.000000000000
         C           -4.914521807942     1.245886031965     1.117771813600    12.000000000000
         C            3.656787019679    -5.154244641269     1.120103806545    12.000000000000
         C           -2.478138530106     5.472285007498     1.120226610670    12.000000000000
         C           -3.693141738564    -3.724079634009     1.120669375732    12.000000000000
         C           -4.914512483053    -1.608470415058     1.120702308501    12.000000000000
         C           -0.000006008926    -5.831727702044     1.119362728131    12.000000000000
         C           -4.893020484101     2.643899183889     1.118901455091    12.000000000000
         C            2.478125993298    -5.834862958919     1.119013205753    12.000000000000
         C           -3.656798710258     4.791666767011     1.118829986386    12.000000000000
         C           -4.892999478856    -3.006481182090     1.119368653149    12.000000000000
         C           -2.478128498083    -5.834855585037     1.118738018106    12.000000000000
         C           -6.134770503331     0.499259351226     1.118439091440    12.000000000000
         C           -3.656788833189    -5.154233438001     1.119889518729    12.000000000000
         C           -6.134765042913    -0.861843330512     1.119709487863    12.000000000000
         H            5.835288495816     3.187986479924     1.123270862614     1.007825032230
         H            7.073859172747     1.046927833869     1.118926286536     1.007825032230
         H            4.600663264174     5.331091387423     1.119158506763     1.007825032230
         H            5.835283387305    -3.550595471759     1.115068221532     1.007825032230
         H           -0.000012151306     6.557241259106     1.115408987245     1.007825032230
         H            7.073861171831    -1.409516357774     1.119221225564     1.007825032230
         H            2.473313731799     6.559394876364     1.119475364731     1.007825032230
         H            4.600668491381    -5.693665544206     1.119693809377     1.007825032230
         H           -2.473318680537     6.559392304576     1.119776711356     1.007825032230
         H           -0.000010268228    -6.919817591482     1.123892413116     1.007825032230
         H           -5.835301914343     3.187981535266     1.123406884762     1.007825032230
         H            2.473307923831    -6.921974789459     1.119583536178     1.007825032230
         H           -4.600674841208     5.331088611573     1.119323835087     1.007825032230
         H           -5.835279506835    -3.550578378810     1.114788915651     1.007825032230
         H           -2.473300347440    -6.921968493170     1.119134219634     1.007825032230
         H           -7.073857766768     1.046931057810     1.118842295055     1.007825032230
         H           -4.600673786085    -5.693652084817     1.119521501354     1.007825032230
         H           -7.073856934409    -1.409510047007     1.119126369097     1.007825032230

  Charge       = 0
  Multiplicity = 1
  Basis Set: JUN-CC-PVDZ
    Blend: JUN-CC-PVDZ
  Basis Set: (JUN-CC-PVDZ AUX)
    Blend: JUN-CC-PVDZ-JKFIT

    Orbital Energies [Eh]
    ---------------------

    Doubly Occupied:

       1A    -11.260676     2A    -11.260233     3A    -11.260231
       4A    -11.259522     5A    -11.259521     6A    -11.259351
       7A    -11.259142     8A    -11.259065     9A    -11.259063
      10A    -11.258739    11A    -11.258736    12A    -11.258666
      13A    -11.258604    14A    -11.258599    15A    -11.258596
      16A    -11.258567    17A    -11.258562    18A    -11.258545
      19A    -11.258532    20A    -11.258527    21A    -11.258521
      22A    -11.258423    23A    -11.258420    24A    -11.258122
      25A    -11.257462    26A    -11.257400    27A    -11.257399
      28A    -11.257264    29A    -11.257264    30A    -11.257179
      31A    -11.256557    32A    -11.256486    33A    -11.256486
      34A    -11.256376    35A    -11.256376    36A    -11.256329
      37A    -11.252403    38A    -11.252402    39A    -11.252400
      40A    -11.252399    41A    -11.252397    42A    -11.252395
      43A    -11.251537    44A    -11.251534    45A    -11.251533
      46A    -11.251528    47A    -11.251527    48A    -11.251522
      49A    -11.250964    50A    -11.250963    51A    -11.250962
      52A    -11.250959    53A    -11.250958    54A    -11.250956
      55A     -1.244301    56A     -1.220019    57A     -1.220017
      58A     -1.189727    59A     -1.189719    60A     -1.181170
      61A     -1.157726    62A     -1.149158    63A     -1.135709
      64A     -1.135703    65A     -1.113359    66A     -1.113355
      67A     -1.082633    68A     -1.082626    69A     -1.078816
      70A     -1.066142    71A     -1.066139    72A     -1.039583
      73A     -1.024494    74A     -1.021999    75A     -1.021956
      76A     -1.017891    77A     -1.012953    78A     -0.987225
      79A     -0.987179    80A     -0.962053    81A     -0.962003
      82A     -0.894472    83A     -0.894445    84A     -0.888170
      85A     -0.886417    86A     -0.886359    87A     -0.881605
      88A     -0.881557    89A     -0.862077    90A     -0.837555
      91A     -0.818394    92A     -0.816837    93A     -0.812344
      94A     -0.812335    95A     -0.794859    96A     -0.794848
      97A     -0.746843    98A     -0.745070    99A     -0.733638
     100A     -0.733629   101A     -0.732357   102A     -0.732334
     103A     -0.716705   104A     -0.699154   105A     -0.699143
     106A     -0.693780   107A     -0.693764   108A     -0.661404
     109A     -0.653339   110A     -0.651384   111A     -0.650421
     112A     -0.650415   113A     -0.639533   114A     -0.639531
     115A     -0.629918   116A     -0.627730   117A     -0.627714
     118A     -0.606459   119A     -0.605937   120A     -0.601871
     121A     -0.599924   122A     -0.599892   123A     -0.593827
     124A     -0.591460   125A     -0.591449   126A     -0.585423
     127A     -0.576420   128A     -0.576416   129A     -0.567482
     130A     -0.567467   131A     -0.566171   132A     -0.566151
     133A     -0.558946   134A     -0.555027   135A     -0.555021
     136A     -0.538764   137A     -0.538762   138A     -0.538292
     139A     -0.538286   140A     -0.529900   141A     -0.528208
     142A     -0.523055   143A     -0.523048   144A     -0.500672
     145A     -0.495722   146A     -0.493411   147A     -0.487950
     148A     -0.485271   149A     -0.481952   150A     -0.481944
     151A     -0.470441   152A     -0.470423   153A     -0.451257
     154A     -0.451179   155A     -0.439192   156A     -0.439182
     157A     -0.404873   158A     -0.404850   159A     -0.403493
     160A     -0.375546   161A     -0.375543   162A     -0.349250
     163A     -0.337719   164A     -0.336687   165A     -0.336629
     166A     -0.311227   167A     -0.298213   168A     -0.284484
     169A     -0.284430   170A     -0.225052   171A     -0.224986

  @DF-RHF Final Energy: -2055.89162786352517

   => Energetics <=

    Nuclear Repulsion Energy =           6452.5568002797781446
    One-Electron Energy =              -15636.4251038303991663
    Two-Electron Energy =                7127.9766756870967583
    Total Energy =                      -2055.8916278635251729
 Dipole X            :          0.0001059           -0.0000085            0.0000973
 Dipole Y            :        117.1649834         -117.1648546            0.0001288
 Dipole Z            :       -723.3885044          723.3892655            0.0007611
 Magnitude           :                                                    0.0007780

    SAPT Results
  --------------------------------------------------------------------------------------------------------
    Electrostatics                 -5.26025680 [mEh]      -3.30086098 [kcal/mol]     -13.81080234 [kJ/mol]
      Elst10,r                     -5.26025680 [mEh]      -3.30086098 [kcal/mol]     -13.81080234 [kJ/mol]

    Exchange                       -0.00007686 [mEh]      -0.00004823 [kcal/mol]      -0.00020178 [kJ/mol]
      Exch10                       -0.00007686 [mEh]      -0.00004823 [kcal/mol]      -0.00020178 [kJ/mol]
      Exch10(S^2)                  -0.00007686 [mEh]      -0.00004823 [kcal/mol]      -0.00020178 [kJ/mol]

    Induction                      -1.24744963 [mEh]      -0.78278646 [kcal/mol]      -3.27517855 [kJ/mol]
      Ind20,r                      -1.23402806 [mEh]      -0.77436430 [kcal/mol]      -3.23994022 [kJ/mol]
      Exch-Ind20,r                  0.00002477 [mEh]       0.00001555 [kcal/mol]       0.00006504 [kJ/mol]
      delta HF,r (2)               -0.01344634 [mEh]      -0.00843771 [kcal/mol]      -0.03530337 [kJ/mol]

    Dispersion                     -0.46183176 [mEh]      -0.28980380 [kcal/mol]      -1.21253911 [kJ/mol]
      Disp20                       -0.46184388 [mEh]      -0.28981141 [kcal/mol]      -1.21257094 [kJ/mol]
      Exch-Disp20                   0.00001213 [mEh]       0.00000761 [kcal/mol]       0.00003184 [kJ/mol]
      Disp20 (SS)                  -0.23092194 [mEh]      -0.14490571 [kcal/mol]      -0.60628547 [kJ/mol]
      Disp20 (OS)                  -0.23092194 [mEh]      -0.14490571 [kcal/mol]      -0.60628547 [kJ/mol]
      Exch-Disp20 (SS)              0.00000881 [mEh]       0.00000553 [kcal/mol]       0.00002312 [kJ/mol]
      Exch-Disp20 (OS)              0.00000332 [mEh]       0.00000208 [kcal/mol]       0.00000872 [kJ/mol]

  Total HF                         -6.50778329 [mEh]      -4.08369567 [kcal/mol]     -17.08618267 [kJ/mol]
  Total SAPT0                      -6.96961504 [mEh]      -4.37349947 [kcal/mol]     -18.29872178 [kJ/mol]

  Special recipe for scaled SAPT0 (see Manual):
    Electrostatics sSAPT0          -5.26025680 [mEh]      -3.30086098 [kcal/mol]     -13.81080234 [kJ/mol]
    Exchange sSAPT0                -0.00007686 [mEh]      -0.00004823 [kcal/mol]      -0.00020178 [kJ/mol]
    Induction sSAPT0               -1.24744963 [mEh]      -0.78278646 [kcal/mol]      -3.27517855 [kJ/mol]
    Dispersion sSAPT0              -0.46183176 [mEh]      -0.28980380 [kcal/mol]      -1.21253911 [kJ/mol]
  Total sSAPT0                     -6.96961504 [mEh]      -4.37349947 [kcal/mol]     -18.29872178 [kJ/mol]
  --------------------------------------------------------------------------------------------------------

*** Psi4 exiting successfully. Buy a developer a beer!
