                               Psi4 1.9 release

  ==> Input File <==

--------------------------------------------------------------------------
memory 64 GB # how much memory is available ! Depends on the nodes/cores !

molecule dimer {
# monomer A
+1 1    # Charge and multiplicity
C  0.680067 -1.215929 5.608042
C -0.680504 -1.215545 5.606014
N -1.085635  0.102779 5.605016
C  0.000108  0.884180 5.601740
C -2.477365  0.570758 5.555610
N  1.085222  0.102779 5.605016
H  1.385146 -2.033368 5.615870
H -1.385302 -2.033214 5.606204
H -0.000009  1.965269 5.599993
C  2.478117  0.567877 5.621908
H  2.490592  1.658130 5.594563
H  2.967028  0.220701 6.535354
H  3.001428  0.176405 4.746425
H -2.857359  0.490799 4.533539
H -3.082679 -0.042306 6.225694
H -2.518128  1.610706 5.882594
--
# monomer B
0 1     # Charge and multiplicity
C   -3.66844126402057      7.80375217008252      0.00190004133558
C   -4.84759871934653      7.13124183134024     -0.00046653359696
C   -4.89495929917518      5.69633040353158     -0.00103944469517
C   -3.65374067877320      4.98073034095895      0.00662099703436
C   -2.40942512149445      7.11398103667468      0.00209438359570
C   -2.42547734410473      5.68112195090346     -0.00491050527438
C   -1.19474401643570      7.78614419430947      0.00356656413763
C   0.03795902893699      7.09942164575698      0.00139585983271
C   0.03033258741920      5.66948955970466     -0.00408752508301
C   -1.20098450790502      4.96927034791531      0.00488220885047
C   1.27795782581485      7.77285944319479      0.00277170839332
C   2.48535808472416      7.08769688523756      0.00049722048857
C   2.48612868491717      5.65477081024076     -0.00644052849921
C   1.25408291964399      4.95607811366431      0.00518741308898
C   3.75171459140595      7.76391215098033      0.00062407186893
C   4.92356605618520      7.07878077698995     -0.00143240883900
C   4.95560727132542      5.64344746336949     -0.00159282164606
C   3.70680153420475      4.94121020833308      0.00349873852374
H   -3.65852113775815      8.89082741913536      0.00358502958574
H   -1.18921332975660      8.87412108735996      0.00753844057883
H   1.28429423888630      8.86083343548850      0.00693053253426
H   3.75354208679975      8.85103527897216      0.00214659618464
H   5.86995870320703      7.61379483465560     -0.00235777588134
H   -5.78823170750226      7.67630221293400     -0.00202638095293
C   -6.09197395869619      4.99326001364347     -0.00291168518608
C   -6.12866148031747      3.58258016879823     -0.00171050815740
C   -3.66457974004527      3.56418217974434     -0.00463560277484
C   -4.89429820469869      2.86108077590057      0.00453338221034
C   -2.43733499489796      2.84761165708481      0.00719617576166
C   -1.20922785759670      3.54788693497833     -0.00648285103018
C   1.24714157216223      3.53468075142962     -0.00729145743546
C   0.01517603956900      2.83311183930540      0.00439272578912
C   2.46764517244071      2.82128997725533      0.00449278391269
C   3.70254947457969      3.52466015442405     -0.00899517692985
C   6.14498038638375      4.92757236613191     -0.00282626685777
C   6.16658835886151      3.51658447594213     -0.00065971342101
C   4.92460995845939      2.80840792535402      0.00587903281610
H   7.08990550964105      5.46688776622306     -0.00658814770723
H   -7.03104175110130      5.54268795285765     -0.00714490013730
C   -7.33969804112295      2.85841153457957     -0.00333767559888
C   -7.36488195805880      1.47032337158330     -0.00157213747140
C   -4.90350460894690      1.44442681216000     -0.00628840166334
C   -6.13225715261081      0.73993935705394      0.00600164231964
C   -3.67687480051673      0.72669714267312      0.00433931473643
C   -2.44565658606518      1.42964113326212     -0.00597039546461
C   -1.22360068130162      0.71532450163492      0.00545886906656
C   0.00763786931376      1.41738314923765      0.00392452278437
C   1.23121980774686      0.70211669058719     -0.01490206287210
C   2.46082110053113      1.40329203612573      0.00460244601878
C   3.68443025419614      0.68719842821222      0.00377365974158
C   4.91870890153864      1.39173456118907     -0.00862816189375
C   7.36980207796101      2.77948220318441     -0.00242013321349
C   7.38016266612146      1.39121750785509     -0.00087345036788
C   6.13979953912259      0.67411862320065      0.00545489144369
H   -8.27919079934664      3.40711804112415     -0.00763522772059
H   8.31511347147953      3.31811809662368     -0.00663070901292
C   -8.59175593758115      0.72483255304480     -0.00123170985383
C   -8.59902460370342     -0.63263980622873      0.00089141472904
C   -6.13981313911873     -0.67413663715361     -0.00609792660607
C   -7.38018411213749     -1.39126618958160      0.00131813493501
C   -4.91868448025621     -1.39175501803000      0.00624257154343
C   -3.68443829568458     -0.68723731573599     -0.00478966852105
C   -2.46081704024768     -1.40334517882457      0.00575341766833
C   -1.23116201232071     -0.70217386488055     -0.00636696112346
C   -0.00756962538737     -1.41741884941102      0.00108956317991
C   1.22364771588843     -0.71527537726392      0.01109518512883
C   2.44567064933149     -1.42964328900682     -0.00065482763106
C   3.67686670284649     -0.72670743155550     -0.00479541202602
C   6.13224884641929     -0.73997883984993     -0.00632338623858
C   4.90351914550401     -1.44445752054090      0.00751768830159
C   8.59901484869081      0.63260386666793     -0.00101133422380
C   8.59174548810050     -0.72485086719319      0.00072504603735
C   7.36486276438985     -1.47033266560598      0.00049486934466
H   -9.52830597181814      1.27684744919284     -0.00270163681798
H   9.54141097460619      1.17457248844457     -0.00206336648518
C   -7.36983790976868     -2.77954514593389      0.00312634335708
C   -4.92459910905015     -2.80843725734101     -0.00460528907921
C   -6.16662249566744     -3.51665219282533      0.00169655107992
C   -3.70251035970491     -3.52468154912026      0.00571878010666
C   -2.46764698511392     -2.82132596280400     -0.00632585824990
C   -0.01513347410770     -2.83314164539971     -0.00604426974092
C   -1.24712184122656     -3.53473217556300      0.00551968366725
C   1.20924506964357     -3.54791467864352      0.00805871345849
C   2.43733602215464     -2.84764173817541     -0.00608104485234
C   4.89430234377080     -2.86112296828604     -0.00526030478103
C   3.66461525504104     -3.56421984553201      0.00761911515957
C   6.12863901474565     -3.58258405771778      0.00096495711699
C   7.33967266469532     -2.85841330737039      0.00248018319869
H   -9.54144911125902     -1.17456346666430      0.00226083090216
H   9.52826186807155     -1.27691907390448      0.00197485379837
H   -8.31516504384864     -3.31814985321231      0.00729857188773
H   8.27915514249207     -3.40714078989363      0.00681973918158
C   -6.14499418870218     -4.92764727278338      0.00302254913999
C   -3.70678334799751     -4.94126171411716     -0.00679841894792
C   -4.95559005800169     -5.64349397349412      0.00116871569699
C   -2.48612132622665     -5.65478557440947      0.00614125209662
C   -1.25405833548005     -4.95612205000132     -0.00503435388927
C   1.20101257386816     -4.96928038819302     -0.00385322963129
C   -0.03033667441341     -5.66952030313900      0.00398997003238
C   3.65375010132847     -4.98074377541453     -0.00309522988330
C   2.42549269587528     -5.68117463552727      0.00628170066869
C   6.09196561781097     -4.99325796338655      0.00325918379042
C   4.89497644461045     -5.69634842095790      0.00202298796027
H   -7.08989238804069     -5.46699984223871      0.00742531082125
H   7.03105520920009     -5.54265853633254      0.00683896355417
C   -4.92354532219813     -7.07882109967734      0.00061394679214
C   -2.48534208823777     -7.08772807792913     -0.00189594564379
C   -3.75168589177895     -7.76394715763627     -0.00170126671874
C   -0.03794895698805     -7.09946487446944     -0.00168022049625
C   -1.27795610040136     -7.77290438466689     -0.00366491325785
C   2.40944432072629     -7.11402201200282     -0.00081701968533
C   1.19474993715296     -7.78618536556242     -0.00296931056689
C   4.84762105249800     -7.13126211057943      0.00168979497423
C   3.66847160587561     -7.80378799294376     -0.00065863938960
H   -5.86994035041618     -7.61383059804164      0.00215798365757
H   5.78824962538815     -7.67633218931421      0.00281691445618
H   -3.75352693944918     -8.85107156923607     -0.00353718114765
H   -1.28430440589466     -8.86087539249706     -0.00809229711623
H   1.18922157469537     -8.87416062058945     -0.00706194725726
H   3.65854661482387     -8.89086063405326     -0.00231318081200

    units angstrom      # Angstroms are the default
    no_reorient         # Geometry fixed, default
    symmetry c1         # C1 symmetry, default
}

set {
    scf_type DF         # Density fitting, faster than exact integrals
    freeze_core True    # Freeze core electrons
    basis jun-cc-pVDZ   # Jun-cc-pVDZ basis set, recommended for sSAPT0 in https://doi.org/10.1063/1.4867135
}

energy('ssapt0')        # Compute sSAPT0 energy, includes also SAPT0
--------------------------------------------------------------------------

  //              Dimer HF             //
    Molecular point group: c1
  Charge       = 1
  Multiplicity = 1
  Basis Set: JUN-CC-PVDZ
    Blend: JUN-CC-PVDZ
  Basis Set: (JUN-CC-PVDZ AUX)
    Blend: JUN-CC-PVDZ-JKFIT
  @DF-RHF Final Energy: -3953.65126526109725
    Total Energy =                      -3953.6512652610981604
 Dipole X            :          0.0017422            0.0004804            0.0022226
 Dipole Y            :         -1.5687700            1.8866171            0.3178471
 Dipole Z            :        -25.4292388           33.9533783            8.5241395
 Magnitude           :                                                    8.5300637
  //            Monomer A HF           //
    Molecular point group: c1
  Multiplicity = 1
  Basis Set: JUN-CC-PVDZ
    Blend: JUN-CC-PVDZ
  Basis Set: (JUN-CC-PVDZ AUX)
    Blend: JUN-CC-PVDZ-JKFIT
  @DF-RHF Final Energy:  -303.29757141260689
    Total Energy =                       -303.2975714126068851
  //            Monomer B HF           //
    Molecular point group: c1

    Geometry (in Angstrom), charge = 0, multiplicity = 1:

       Center              X                  Y                   Z               Mass
    ------------   -----------------  -----------------  -----------------  -----------------
      Gh(C)           0.680062820275    -1.215917226251     5.181082145675    12.000000000000
      Gh(C)          -0.680508179725    -1.215533226251     5.179054145675    12.000000000000
      Gh(N)          -1.085639179725     0.102790773749     5.178056145675    14.003074004430
      Gh(C)           0.000103820275     0.884191773749     5.174780145675    12.000000000000
      Gh(C)          -2.477369179725     0.570769773749     5.128650145675    12.000000000000
      Gh(N)           1.085217820275     0.102790773749     5.178056145675    14.003074004430
      Gh(H)           1.385141820275    -2.033356226251     5.188910145675     1.007825032230
      Gh(H)          -1.385306179725    -2.033202226251     5.179244145675     1.007825032230
      Gh(H)          -0.000013179725     1.965280773749     5.173033145675     1.007825032230
      Gh(C)           2.478112820275     0.567888773749     5.194948145675    12.000000000000
      Gh(H)           2.490587820275     1.658141773750     5.167603145675     1.007825032230
      Gh(H)           2.967023820275     0.220712773749     6.108394145675     1.007825032230
      Gh(H)           3.001423820275     0.176416773749     4.319465145675     1.007825032230
      Gh(H)          -2.857363179725     0.490810773749     4.106579145675     1.007825032230
      Gh(H)          -3.082683179725    -0.042294226251     5.798734145675     1.007825032230
      Gh(H)          -2.518132179725     1.610717773749     5.455634145675     1.007825032230
         C           -3.668445443746     7.803763943832    -0.425059812989    12.000000000000
         C           -4.847602899072     7.131253605090    -0.427426387922    12.000000000000
         C           -4.894963478901     5.696342177281    -0.427999299020    12.000000000000
         C           -3.653744858499     4.980742114708    -0.420338857291    12.000000000000
         C           -2.409429301220     7.113992810424    -0.424865470729    12.000000000000
         C           -2.425481523830     5.681133724653    -0.431870359599    12.000000000000
         C           -1.194748196161     7.786155968059    -0.423393290187    12.000000000000
         C            0.037954849212     7.099433419506    -0.425563994492    12.000000000000
         C            0.030328407694     5.669501333454    -0.431047379408    12.000000000000
         C           -1.200988687630     4.969282121665    -0.422077645474    12.000000000000
         C            1.277953646089     7.772871216944    -0.424188145932    12.000000000000
         C            2.485353904999     7.087708658987    -0.426462633836    12.000000000000
         C            2.486124505192     5.654782583990    -0.433400382824    12.000000000000
         C            1.254078739919     4.956089887414    -0.421772441236    12.000000000000
         C            3.751710411681     7.763923924730    -0.426335782456    12.000000000000
         C            4.923561876460     7.078792550739    -0.428392263164    12.000000000000
         C            4.955603091600     5.643459237119    -0.428552675971    12.000000000000
         C            3.706797354479     4.941221982083    -0.423461115801    12.000000000000
         H           -3.658525317484     8.890839192885    -0.423374824739     1.007825032230
         H           -1.189217509482     8.874132861109    -0.419421413746     1.007825032230
         H            1.284290059161     8.860845209238    -0.420029321791     1.007825032230
         H            3.753537907074     8.851047052722    -0.424813258140     1.007825032230
         H            5.869954523482     7.613806608405    -0.429317630206     1.007825032230
         H           -5.788235887228     7.676313986684    -0.428986235278     1.007825032230
         C           -6.091978138422     4.993271787393    -0.429871539511    12.000000000000
         C           -6.128665660043     3.582591942548    -0.428670362482    12.000000000000
         C           -3.664583919771     3.564193953494    -0.431595457100    12.000000000000
         C           -4.894302384424     2.861092549650    -0.422426472115    12.000000000000
         C           -2.437339174623     2.847623430834    -0.419763678563    12.000000000000
         C           -1.209232037322     3.547898708728    -0.433442705355    12.000000000000
         C            1.247137392437     3.534692525179    -0.434251311760    12.000000000000
         C            0.015171859844     2.833123613055    -0.422567128536    12.000000000000
         C            2.467640992715     2.821301751005    -0.422467070412    12.000000000000
         C            3.702545294854     3.524671928174    -0.435955031255    12.000000000000
         C            6.144976206658     4.927584139881    -0.429786121183    12.000000000000
         C            6.166584179136     3.516596249692    -0.427619567746    12.000000000000
         C            4.924605778734     2.808419699104    -0.421080821509    12.000000000000
         H            7.089901329916     5.466899539973    -0.433548002032     1.007825032230
         H           -7.031045930827     5.542699726607    -0.434104754462     1.007825032230
         C           -7.339702220848     2.858423308329    -0.430297529924    12.000000000000
         C           -7.364886137784     1.470335145333    -0.428531991796    12.000000000000
         C           -4.903508788672     1.444438585909    -0.433248255988    12.000000000000
         C           -6.132261332336     0.739951130803    -0.420958212005    12.000000000000
         C           -3.676878980242     0.726708916423    -0.422620539589    12.000000000000
         C           -2.445660765791     1.429652907012    -0.432930249790    12.000000000000
         C           -1.223604861027     0.715336275384    -0.421500985258    12.000000000000
         C            0.007633689588     1.417394922987    -0.423035331541    12.000000000000
         C            1.231215628021     0.702128464337    -0.441861917197    12.000000000000
         C            2.460816920806     1.403303809875    -0.422357408306    12.000000000000
         C            3.684426074471     0.687210201962    -0.423186194583    12.000000000000
         C            4.918704721813     1.391746334939    -0.435588016219    12.000000000000
         C            7.369797898236     2.779493976934    -0.429379987538    12.000000000000
         C            7.380158486396     1.391229281605    -0.427833304693    12.000000000000
         C            6.139795359397     0.674130396950    -0.421504962881    12.000000000000
         H           -8.279194979072     3.407129814874    -0.434595082046     1.007825032230
         H            8.315109291754     3.318129870373    -0.433590563338     1.007825032230
         C           -8.591760117307     0.724844326794    -0.428191564179    12.000000000000
         C           -8.599028783429    -0.632628032479    -0.426068439596    12.000000000000
         C           -6.139817318844    -0.674124863404    -0.433057780931    12.000000000000
         C           -7.380188291863    -1.391254415832    -0.425641719390    12.000000000000
         C           -4.918688659982    -1.391743244281    -0.420717282782    12.000000000000
         C           -3.684442475410    -0.687225541986    -0.431749522846    12.000000000000
         C           -2.460821219973    -1.403333405075    -0.421206436657    12.000000000000
         C           -1.231166192046    -0.702162091131    -0.433326815448    12.000000000000
         C           -0.007573805113    -1.417407075662    -0.425870291145    12.000000000000
         C            1.223643536163    -0.715263603514    -0.415864669196    12.000000000000
         C            2.445666469606    -1.429631515257    -0.427614681956    12.000000000000
         C            3.676862523121    -0.726695657806    -0.431755266351    12.000000000000
         C            6.132244666694    -0.739967066100    -0.433283240564    12.000000000000
         C            4.903514965779    -1.444445746791    -0.419442166023    12.000000000000
         C            8.599010668965     0.632615640417    -0.427971188549    12.000000000000
         C            8.591741308375    -0.724839093444    -0.426234808288    12.000000000000
         C            7.364858584664    -1.470320891856    -0.426464984980    12.000000000000
         H           -9.528310151544     1.276859222942    -0.429661491143     1.007825032230
         H            9.541406794881     1.174584262194    -0.429023220810     1.007825032230
         C           -7.369842089494    -2.779533372184    -0.423833510968    12.000000000000
         C           -4.924603288776    -2.808425483592    -0.431565143404    12.000000000000
         C           -6.166626675393    -3.516640419076    -0.425263303245    12.000000000000
         C           -3.702514539430    -3.524669775371    -0.421241074218    12.000000000000
         C           -2.467651164839    -2.821314189055    -0.433285712575    12.000000000000
         C           -0.015137653833    -2.833129871650    -0.433004124066    12.000000000000
         C           -1.247126020952    -3.534720401814    -0.421440170658    12.000000000000
         C            1.209240889918    -3.547902904894    -0.418901140866    12.000000000000
         C            2.437331842429    -2.847629964426    -0.433040899177    12.000000000000
         C            4.894298164045    -2.861111194537    -0.432220159106    12.000000000000
         C            3.664611075316    -3.564208071783    -0.419340739165    12.000000000000
         C            6.128634835020    -3.582572283968    -0.425994897208    12.000000000000
         C            7.339668484970    -2.858401533621    -0.424479671126    12.000000000000
         H           -9.541453290984    -1.174551692915    -0.424699023423     1.007825032230
         H            9.528257688346    -1.276907300155    -0.424985000527     1.007825032230
         H           -8.315169223574    -3.318138079463    -0.419661282437     1.007825032230
         H            8.279150962767    -3.407129016144    -0.420140115143     1.007825032230
         C           -6.144998368428    -4.927635499034    -0.423937305185    12.000000000000
         C           -3.706787527723    -4.941249940368    -0.433758273273    12.000000000000
         C           -4.955594237727    -5.643482199745    -0.425791138628    12.000000000000
         C           -2.486125505952    -5.654773800660    -0.420818602228    12.000000000000
         C           -1.254062515205    -4.956110276252    -0.431994208214    12.000000000000
         C            1.201008394143    -4.969268614444    -0.430813083956    12.000000000000
         C           -0.030340854139    -5.669508529390    -0.422969884293    12.000000000000
         C            3.653745921603    -4.980732001665    -0.430055084208    12.000000000000
         C            2.425488516150    -5.681162861778    -0.420678153656    12.000000000000
         C            6.091961438086    -4.993246189637    -0.423700670535    12.000000000000
         C            4.894972264885    -5.696336647208    -0.424936866365    12.000000000000
         H           -7.089896567766    -5.466988068489    -0.419534543504     1.007825032230
         H            7.031051029475    -5.542646762583    -0.420120890771     1.007825032230
         C           -4.923549501924    -7.078809325928    -0.426345907533    12.000000000000
         C           -2.485346267963    -7.087716304180    -0.428855799969    12.000000000000
         C           -3.751690071504    -7.763935383887    -0.428661121044    12.000000000000
         C           -0.037953136713    -7.099453100720    -0.428640074821    12.000000000000
         C           -1.277960280127    -7.772892610917    -0.430624767583    12.000000000000
         C            2.409440141001    -7.114010238253    -0.427776874010    12.000000000000
         C            1.194745757428    -7.786173591813    -0.429929164892    12.000000000000
         C            4.847616872773    -7.131250336830    -0.425270059351    12.000000000000
         C            3.668467426150    -7.803776219194    -0.427618493715    12.000000000000
         H           -5.869944530142    -7.613818824292    -0.424801870667     1.007825032230
         H            5.788245445663    -7.676320415565    -0.424142939869     1.007825032230
         H           -3.753531119175    -8.851059795487    -0.430497035473     1.007825032230
         H           -1.284308585620    -8.860863618748    -0.435052151441     1.007825032230
         H            1.189217394970    -8.874148846840    -0.434021801582     1.007825032230
         H            3.658542435098    -8.890848860304    -0.429273035137     1.007825032230

  Charge       = 0
  Multiplicity = 1
  Basis Set: JUN-CC-PVDZ
    Blend: JUN-CC-PVDZ
  Basis Set: (JUN-CC-PVDZ AUX)
    Blend: JUN-CC-PVDZ-JKFIT

    Orbital Energies [Eh]
    ---------------------

    Doubly Occupied:

       1A    -11.263992     2A    -11.263674     3A    -11.263674
       4A    -11.263329     5A    -11.263327     6A    -11.263292
       7A    -11.263134     8A    -11.263110     9A    -11.263108
      10A    -11.262947    11A    -11.262788    12A    -11.262785
      13A    -11.262306    14A    -11.262304    15A    -11.262233
      16A    -11.262233    17A    -11.262179    18A    -11.262148
      19A    -11.262103    20A    -11.262066    21A    -11.262063
      22A    -11.261913    23A    -11.261909    24A    -11.261793
      25A    -11.261781    26A    -11.261765    27A    -11.261761
      28A    -11.261714    29A    -11.261706    30A    -11.261629
      31A    -11.261602    32A    -11.261600    33A    -11.261573
      34A    -11.261572    35A    -11.261550    36A    -11.261502
      37A    -11.261373    38A    -11.261363    39A    -11.261357
      40A    -11.261351    41A    -11.261345    42A    -11.261338
      43A    -11.261329    44A    -11.261313    45A    -11.261308
      46A    -11.261286    47A    -11.261282    48A    -11.261278
      49A    -11.261114    50A    -11.261080    51A    -11.261078
      52A    -11.260996    53A    -11.260995    54A    -11.260924
      55A    -11.259966    56A    -11.259952    57A    -11.259950
      58A    -11.259921    59A    -11.259919    60A    -11.259903
      61A    -11.259341    62A    -11.259316    63A    -11.259313
      64A    -11.259261    65A    -11.259258    66A    -11.259230
      67A    -11.258969    68A    -11.258951    69A    -11.258950
      70A    -11.258922    71A    -11.258920    72A    -11.258908
      73A    -11.254558    74A    -11.254557    75A    -11.254554
      76A    -11.254552    77A    -11.254548    78A    -11.254545
      79A    -11.253698    80A    -11.253697    81A    -11.253694
      82A    -11.253692    83A    -11.253690    84A    -11.253686
      85A    -11.253614    86A    -11.253612    87A    -11.253610
      88A    -11.253607    89A    -11.253605    90A    -11.253601
      91A    -11.253086    92A    -11.253084    93A    -11.253082
      94A    -11.253080    95A    -11.253076    96A    -11.253073
      97A     -1.254029    98A     -1.239065    99A     -1.239060
     100A     -1.220522   101A     -1.220516   102A     -1.215518
     103A     -1.201092   104A     -1.195658   105A     -1.188215
     106A     -1.188210   107A     -1.173813   108A     -1.173811
     109A     -1.155694   110A     -1.155691   111A     -1.152790
     112A     -1.144769   113A     -1.144766   114A     -1.128626
     115A     -1.114778   116A     -1.113210   117A     -1.112556
     118A     -1.112540   119A     -1.111662   120A     -1.088488
     121A     -1.088473   122A     -1.077007   123A     -1.077006
     124A     -1.067678   125A     -1.067648   126A     -1.065040
     127A     -1.046855   128A     -1.046847   129A     -1.040537
     130A     -1.038780   131A     -1.038779   132A     -1.025307
     133A     -1.021465   134A     -1.021411   135A     -1.007230
     136A     -1.006864   137A     -1.003847   138A     -1.000553
     139A     -1.000505   140A     -0.991118   141A     -0.971049
     142A     -0.971000   143A     -0.955932   144A     -0.955877
     145A     -0.905667   146A     -0.905625   147A     -0.905591
     148A     -0.905551   149A     -0.904413   150A     -0.892437
     151A     -0.892379   152A     -0.890432   153A     -0.890375
     154A     -0.889515   155A     -0.872265   156A     -0.869093
     157A     -0.851589   158A     -0.847929   159A     -0.847909
     160A     -0.845663   161A     -0.843075   162A     -0.834618
     163A     -0.834605   164A     -0.828161   165A     -0.828157
     166A     -0.784605   167A     -0.784594   168A     -0.783724
     169A     -0.783699   170A     -0.782344   171A     -0.782324
     172A     -0.782097   173A     -0.767043   174A     -0.760862
     175A     -0.750641   176A     -0.733531   177A     -0.727124
     178A     -0.727108   179A     -0.725139   180A     -0.724592
     181A     -0.724572   182A     -0.718564   183A     -0.713836
     184A     -0.713830   185A     -0.699627   186A     -0.699613
     187A     -0.686195   188A     -0.686002   189A     -0.685998
     190A     -0.682220   191A     -0.682211   192A     -0.678838
     193A     -0.653679   194A     -0.650925   195A     -0.650894
     196A     -0.649878   197A     -0.649864   198A     -0.649610
     199A     -0.640997   200A     -0.640967   201A     -0.640132
     202A     -0.639203   203A     -0.636081   204A     -0.636053
     205A     -0.629190   206A     -0.617712   207A     -0.615346
     208A     -0.615325   209A     -0.608849   210A     -0.608843
     211A     -0.599145   212A     -0.599123   213A     -0.598797
     214A     -0.598661   215A     -0.598641   216A     -0.598107
     217A     -0.595110   218A     -0.595097   219A     -0.594771
     220A     -0.594302   221A     -0.592010   222A     -0.592007
     223A     -0.587459   224A     -0.577831   225A     -0.577820
     226A     -0.575707   227A     -0.575699   228A     -0.573425
     229A     -0.569569   230A     -0.568207   231A     -0.568183
     232A     -0.566804   233A     -0.566794   234A     -0.560949
     235A     -0.558775   236A     -0.558753   237A     -0.558464
     238A     -0.554417   239A     -0.550589   240A     -0.547508
     241A     -0.544296   242A     -0.535019   243A     -0.534994
     244A     -0.533585   245A     -0.533564   246A     -0.528120
     247A     -0.528105   248A     -0.527858   249A     -0.517228
     250A     -0.517195   251A     -0.515383   252A     -0.515377
     253A     -0.509682   254A     -0.509667   255A     -0.498070
     256A     -0.496500   257A     -0.496471   258A     -0.493810
     259A     -0.493803   260A     -0.489446   261A     -0.481491
     262A     -0.477445   263A     -0.477443   264A     -0.474037
     265A     -0.469490   266A     -0.466573   267A     -0.466568
     268A     -0.458831   269A     -0.446754   270A     -0.446695
     271A     -0.441050   272A     -0.440788   273A     -0.440756
     274A     -0.434714   275A     -0.433931   276A     -0.407399
     277A     -0.407377   278A     -0.386435   279A     -0.386386
     280A     -0.385755   281A     -0.385754   282A     -0.383779
     283A     -0.354350   284A     -0.354332   285A     -0.350688
     286A     -0.338110   287A     -0.335605   288A     -0.335548
     289A     -0.332737   290A     -0.332732   291A     -0.307104
     292A     -0.301967   293A     -0.301909   294A     -0.300865
     295A     -0.286194   296A     -0.256489   297A     -0.253518
     298A     -0.253470   299A     -0.204285   300A     -0.204198

  @DF-RHF Final Energy: -3650.33877448740077

   => Energetics <=

    Nuclear Repulsion Energy =          15611.4211649754324753
    One-Electron Energy =              -36072.1182946855915361
    Two-Electron Energy =               16810.3583552227573819
    Total Energy =                      -3650.3387744874016789
 Dipole X            :         -0.0010088            0.0002112           -0.0007976
 Dipole Y            :          0.0042526           -0.0044281           -0.0001755
 Dipole Z            :        484.0870868         -484.0989228           -0.0118360
 Magnitude           :                                                    0.0118642

    SAPT Results
  --------------------------------------------------------------------------------------------------------
    Electrostatics                -10.07668903 [mEh]      -6.32321783 [kcal/mol]     -26.45634341 [kJ/mol]
      Elst10,r                    -10.07668903 [mEh]      -6.32321783 [kcal/mol]     -26.45634341 [kJ/mol]

    Exchange                        0.00813194 [mEh]       0.00510287 [kcal/mol]       0.02135039 [kJ/mol]
      Exch10                        0.00813194 [mEh]       0.00510287 [kcal/mol]       0.02135039 [kJ/mol]
      Exch10(S^2)                   0.00813192 [mEh]       0.00510286 [kcal/mol]       0.02135036 [kJ/mol]

    Induction                      -4.85080399 [mEh]      -3.04392546 [kcal/mol]     -12.73578413 [kJ/mol]
      Ind20,r                      -4.74862310 [mEh]      -2.97980598 [kcal/mol]     -12.46750824 [kJ/mol]
      Exch-Ind20,r                  0.00410056 [mEh]       0.00257314 [kcal/mol]       0.01076603 [kJ/mol]
      delta HF,r (2)               -0.10628145 [mEh]      -0.06669262 [kcal/mol]      -0.27904192 [kJ/mol]

    Dispersion                     -4.07377675 [mEh]      -2.55633350 [kcal/mol]     -10.69569937 [kJ/mol]
      Disp20                       -4.07769860 [mEh]      -2.55879450 [kcal/mol]     -10.70599619 [kJ/mol]
      Exch-Disp20                   0.00392185 [mEh]       0.00246100 [kcal/mol]       0.01029682 [kJ/mol]
      Disp20 (SS)                  -2.03884930 [mEh]      -1.27939725 [kcal/mol]      -5.35299810 [kJ/mol]
      Disp20 (OS)                  -2.03884930 [mEh]      -1.27939725 [kcal/mol]      -5.35299810 [kJ/mol]
      Exch-Disp20 (SS)              0.00281058 [mEh]       0.00176366 [kcal/mol]       0.00737917 [kJ/mol]
      Exch-Disp20 (OS)              0.00111127 [mEh]       0.00069734 [kcal/mol]       0.00291765 [kJ/mol]

  Total HF                        -14.91936109 [mEh]      -9.36204043 [kcal/mol]     -39.17077714 [kJ/mol]
  Total SAPT0                     -18.99313784 [mEh]     -11.91837393 [kcal/mol]     -49.86647652 [kJ/mol]

  Special recipe for scaled SAPT0 (see Manual):
    Electrostatics sSAPT0         -10.07668903 [mEh]      -6.32321783 [kcal/mol]     -26.45634341 [kJ/mol]
    Exchange sSAPT0                 0.00813194 [mEh]       0.00510287 [kcal/mol]       0.02135039 [kJ/mol]
    Induction sSAPT0               -4.85080399 [mEh]      -3.04392546 [kcal/mol]     -12.73578413 [kJ/mol]
    Dispersion sSAPT0              -4.07377675 [mEh]      -2.55633350 [kcal/mol]     -10.69569937 [kJ/mol]
  Total sSAPT0                    -18.99313784 [mEh]     -11.91837393 [kcal/mol]     -49.86647652 [kJ/mol]
  --------------------------------------------------------------------------------------------------------

*** Psi4 exiting successfully. Buy a developer a beer!
