                               Psi4 1.9 release

  ==> Input File <==

--------------------------------------------------------------------------
memory 32 GB # how much memory is available ! Depends on the nodes/cores !

molecule dimer {
# monomer A
+1 1    # Charge and multiplicity
C  0.680067 -1.215929 3.208042
C -0.680504 -1.215545 3.206014
N -1.085635  0.102779 3.205016
C  0.000108  0.884180 3.201740
C -2.477365  0.570758 3.155610
N  1.085222  0.102779 3.205016
H  1.385146 -2.033368 3.215870
H -1.385302 -2.033214 3.206204
H -0.000009  1.965269 3.199993
C  2.478117  0.567877 3.221908
H  2.490592  1.658130 3.194563
H  2.967028  0.220701 4.135354
H  3.001428  0.176405 2.346425
H -2.857359  0.490799 2.133539
H -3.082679 -0.042306 3.825694
H -2.518128  1.610706 3.482594
--
# monomer B
0 1     # Charge and multiplicity
C   1.22531237526482      0.70753866091955      0.00613762728373
C   1.22532433589282     -0.70753852257020     -0.00619318228664
C   -0.00000567409046      1.41496628609039     -0.00672680580738
C   2.45644923379077      1.41832825917820      0.00902448468363
C   0.00001130712078     -1.41497612663474      0.00347275151708
C   -1.22530046906674      0.70754574598412      0.00838914760619
C   2.45643823516184     -1.41832293188077     -0.00843833914343
C   -0.00000085313587      2.83680140328112     -0.00913035594137
C   3.68182717731192      0.70931832800114     -0.00808954934571
C   2.45512052870677      2.83422403348893     -0.00819210630633
C   3.68182158506039     -0.70933346742900      0.00798293467272
C   -1.22531311884624     -0.70752714354401     -0.00512042085974
C   1.22670006104402      3.54346985599427      0.00816696660346
C   0.00000526469929     -2.83678176723568      0.00832091913869
C   -2.45643555300670      1.41831729028492      0.00842454345199
C   2.45512389762097     -2.83422965658853      0.00783102630520
C   -1.22671388474763      3.54346943575023      0.00827029982280
C   4.91451777504333      1.42717324448953     -0.00160886631602
C   3.69315067131765      3.54279566454522     -0.00155906667985
C   -2.45643712022637     -1.41831290883911     -0.00846337726810
C   1.22670532178455     -3.54347386990643     -0.00780316414624
C   -2.45512491866593      2.83421703463423     -0.00818572995999
C   4.91452486062398     -1.42718653794377      0.00136387641845
C   1.22142509354026      4.97013443726031      0.00150231067809
C   4.89300870916237      2.82518837202648     -0.00039219795739
C   -1.22669652864725     -3.54347062507680     -0.00753595973677
C   -3.68181849668397      0.70932533873199     -0.00807686886569
C   3.69314758099218     -3.54280096939050      0.00148176697923
C   -1.22143177215231      4.97012866986289      0.00168580605083
C   6.13477145276790      0.68054831910577     -0.00083909176631
C   3.65678936045204      4.97295361556775     -0.00065042889723
C   -2.45512642789169     -2.83421472106065      0.00758666850712
C   -3.68181869921921     -0.70932533146830      0.00810055625144
C   4.89301309775526     -2.82519973363176      0.00021895393805
C   -0.00000059327114      5.65044773803267      0.00045449734393
C   6.13477559217374     -0.68055448207492      0.00042622874941
C   2.47813196269732      5.65357712333155      0.00063835075260
C   1.22142288457925     -4.97012668293268     -0.00129718634452
C   -3.69316190412301      3.54279732619245     -0.00139355922051
C   -1.22142804110313     -4.97011793159564     -0.00140994817719
C   -4.91452132810043      1.42717581899491     -0.00153192130862
C   3.65678749952045     -4.97295485423912      0.00080007163680
C   -2.47813805026426      5.65357479452875      0.00092287576113
C   -3.69314125872231     -3.54278984697859      0.00136564082345
C   -4.91451200321153     -1.42718062802730      0.00139857359209
C   -0.00000552908399     -5.65043791501335      0.00005899322272
C   -4.89302000425900      2.82518897091939     -0.00040227981744
C   2.47812647313991     -5.65357317188818     -0.00029052915548
C   -3.65679823041642      4.97295655404175     -0.00047374852278
C   -4.89299899901461     -2.82519139505969      0.00006491824035
C   -2.47812801824129     -5.65356579800621     -0.00056571680280
C   -6.13477002348955      0.68054913825639     -0.00086464346868
C   -3.65678835334731     -4.97294365097028      0.00058578382008
C   -6.13476456307132     -0.68055354348201      0.00040575295444
H   5.83528897565761      3.36927626695423      0.00396712770529
H   7.07385965258860      1.22821762089947     -0.00037744837300
H   4.60066374401555      5.51238117445323     -0.00014522814529
H   5.83528386714679     -3.36930568472863     -0.00423551337640
H   -0.00001167146422      6.73853104613662     -0.00389474766392
H   7.07386165167227     -1.22822657074368     -0.00008250934481
H   2.47331421164041      6.74068466339473      0.00017162982210
H   4.60066897122302     -5.51237575717576      0.00039007446835
H   -2.47331820069565      6.74068209160650      0.00047297644710
H   -0.00000978838621     -6.73852780445195      0.00458867820736
H   -5.83530143450167      3.36927132229595      0.00410314985360
H   2.47330840367253     -6.74068500242887      0.00027980126949
H   -4.60067436136587      5.51237839860371      0.00002010017831
H   -5.83527902699321     -3.36928859177951     -0.00451481925734
H   -2.47329986759855     -6.74067870613986     -0.00016951527498
H   -7.07385728692578      1.22822084484047     -0.00046143985387
H   -4.60067330624313     -5.51236229778631      0.00021776644566
H   -7.07385645456741     -1.22822025997701     -0.00017736581114

    units angstrom      # Angstroms are the default
    no_reorient         # Geometry fixed, default
    symmetry c1         # C1 symmetry, default
}

set {
    scf_type DF         # Density fitting, faster than exact integrals
    freeze_core True    # Freeze core electrons
    basis jun-cc-pVDZ   # Jun-cc-pVDZ basis set, recommended for sSAPT0 in https://doi.org/10.1063/1.4867135
}

energy('ssapt0')        # Compute sSAPT0 energy, includes also SAPT0
--------------------------------------------------------------------------

  //              Dimer HF             //
    Molecular point group: c1
  Charge       = 1
  Multiplicity = 1
  Basis Set: JUN-CC-PVDZ
    Blend: JUN-CC-PVDZ
  Basis Set: (JUN-CC-PVDZ AUX)
    Blend: JUN-CC-PVDZ-JKFIT
  @DF-RHF Final Energy: -2359.19488723690165
    Total Energy =                      -2359.1948872369011951
 Dipole X            :          0.0032990            0.0006313            0.0039303
 Dipole Y            :         -1.6215291            1.8864948            0.2649658
 Dipole Z            :        -13.0422252           16.6246712            3.5824460
 Magnitude           :                                                    3.5922335
  //            Monomer A HF           //
    Molecular point group: c1
  Multiplicity = 1
  Basis Set: JUN-CC-PVDZ
    Blend: JUN-CC-PVDZ
  Basis Set: (JUN-CC-PVDZ AUX)
    Blend: JUN-CC-PVDZ-JKFIT
  @DF-RHF Final Energy:  -303.29936350047694
    Total Energy =                       -303.2993635004769430
  //            Monomer B HF           //
    Molecular point group: c1

    Geometry (in Angstrom), charge = 0, multiplicity = 1:

       Center              X                  Y                   Z               Mass
    ------------   -----------------  -----------------  -----------------  -----------------
      Gh(C)           0.680066520158    -1.215933861162     2.801023814454    12.000000000000
      Gh(C)          -0.680504479842    -1.215549861162     2.798995814454    12.000000000000
      Gh(N)          -1.085635479842     0.102774138838     2.797997814454    14.003074004430
      Gh(C)           0.000107520158     0.884175138838     2.794721814454    12.000000000000
      Gh(C)          -2.477365479842     0.570753138838     2.748591814454    12.000000000000
      Gh(N)           1.085221520158     0.102774138838     2.797997814454    14.003074004430
      Gh(H)           1.385145520158    -2.033372861162     2.808851814454     1.007825032230
      Gh(H)          -1.385302479842    -2.033218861162     2.799185814454     1.007825032230
      Gh(H)          -0.000009479842     1.965264138838     2.792974814454     1.007825032230
      Gh(C)           2.478116520158     0.567872138838     2.814889814454    12.000000000000
      Gh(H)           2.490591520158     1.658125138838     2.787544814454     1.007825032230
      Gh(H)           2.967027520158     0.220696138838     3.728335814454     1.007825032230
      Gh(H)           3.001427520158     0.176400138838     1.939406814454     1.007825032230
      Gh(H)          -2.857359479842     0.490794138838     1.726520814454     1.007825032230
      Gh(H)          -3.082679479842    -0.042310861162     3.418675814454     1.007825032230
      Gh(H)          -2.518128479842     1.610701138838     3.075575814454     1.007825032230
         C            1.225311895423     0.707533799757    -0.400880558262    12.000000000000
         C            1.225323856051    -0.707543383733    -0.413211367833    12.000000000000
         C           -0.000006153932     1.414961424928    -0.413744991354    12.000000000000
         C            2.456448753949     1.418323398016    -0.397993700863    12.000000000000
         C            0.000010827279    -1.414980987797    -0.403545434029    12.000000000000
         C           -1.225300948908     0.707540884822    -0.398629037940    12.000000000000
         C            2.456437755320    -1.418327793043    -0.415456524690    12.000000000000
         C           -0.000001332978     2.836796542119    -0.416148541488    12.000000000000
         C            3.681826697470     0.709313466839    -0.415107734892    12.000000000000
         C            2.455120048865     2.834219172327    -0.415210291853    12.000000000000
         C            3.681821105219    -0.709338328591    -0.399035250873    12.000000000000
         C           -1.225313598688    -0.707532004706    -0.412138606406    12.000000000000
         C            1.226699581202     3.543464994832    -0.398851218943    12.000000000000
         C            0.000004784858    -2.836786628398    -0.398697266408    12.000000000000
         C           -2.456436032848     1.418312429123    -0.398593642094    12.000000000000
         C            2.455123417779    -2.834234517751    -0.399187159241    12.000000000000
         C           -1.226714364589     3.543464574588    -0.398747885723    12.000000000000
         C            4.914517295202     1.427168383327    -0.408627051862    12.000000000000
         C            3.693150191476     3.542790803383    -0.408577252226    12.000000000000
         C           -2.456437600068    -1.418317770001    -0.415481562814    12.000000000000
         C            1.226704841943    -3.543478731069    -0.414821349692    12.000000000000
         C           -2.455125398508     2.834212173472    -0.415203915506    12.000000000000
         C            4.914524380782    -1.427191399106    -0.405654309128    12.000000000000
         C            1.221424613699     4.970129576098    -0.405515874868    12.000000000000
         C            4.893008229321     2.825183510864    -0.407410383504    12.000000000000
         C           -1.226697008489    -3.543475486239    -0.414554145283    12.000000000000
         C           -3.681818976526     0.709320477570    -0.415095054412    12.000000000000
         C            3.693147101150    -3.542805830553    -0.405536418567    12.000000000000
         C           -1.221432251994     4.970123808701    -0.405332379495    12.000000000000
         C            6.134770972926     0.680543457943    -0.407857277313    12.000000000000
         C            3.656788880610     4.972948754405    -0.407668614443    12.000000000000
         C           -2.455126907733    -2.834219582223    -0.399431517039    12.000000000000
         C           -3.681819179061    -0.709330192631    -0.398917629295    12.000000000000
         C            4.893012617914    -2.825204594794    -0.406799231608    12.000000000000
         C           -0.000001073113     5.650442876870    -0.406563688202    12.000000000000
         C            6.134775112332    -0.680559343237    -0.406591956797    12.000000000000
         C            2.478131482856     5.653572262169    -0.406379834794    12.000000000000
         C            1.221422404738    -4.970131544095    -0.408315371891    12.000000000000
         C           -3.693162383965     3.542792465030    -0.408411744767    12.000000000000
         C           -1.221428520945    -4.970122792758    -0.408428133723    12.000000000000
         C           -4.914521807942     1.427170957833    -0.408550106855    12.000000000000
         C            3.656787019679    -4.972959715401    -0.406218113909    12.000000000000
         C           -2.478138530106     5.653569933366    -0.406095309785    12.000000000000
         C           -3.693141738564    -3.542794708141    -0.405652544723    12.000000000000
         C           -4.914512483053    -1.427185489190    -0.405619611954    12.000000000000
         C           -0.000006008926    -5.650442776176    -0.406959192323    12.000000000000
         C           -4.893020484101     2.825184109757    -0.407420465364    12.000000000000
         C            2.478125993298    -5.653578033051    -0.407308714702    12.000000000000
         C           -3.656798710258     4.972951692879    -0.407491934069    12.000000000000
         C           -4.892999478856    -2.825196256222    -0.406953267306    12.000000000000
         C           -2.478128498083    -5.653570659169    -0.407583902349    12.000000000000
         C           -6.134770503331     0.680544277094    -0.407882829015    12.000000000000
         C           -3.656788833189    -4.972948512133    -0.406432401726    12.000000000000
         C           -6.134765042913    -0.680558404644    -0.406612432592    12.000000000000
         H            5.835288495816     3.369271405792    -0.403051057841     1.007825032230
         H            7.073859172747     1.228212759737    -0.407395633919     1.007825032230
         H            4.600663264174     5.512376313291    -0.407163413692     1.007825032230
         H            5.835283387305    -3.369310545891    -0.411253698923     1.007825032230
         H           -0.000012151306     6.738526184974    -0.410912933210     1.007825032230
         H            7.073861171831    -1.228231431906    -0.407100694891     1.007825032230
         H            2.473313731799     6.740679802232    -0.406846555724     1.007825032230
         H            4.600668491381    -5.512380618338    -0.406628111078     1.007825032230
         H           -2.473318680537     6.740677230444    -0.406545209099     1.007825032230
         H           -0.000010268228    -6.738532665614    -0.402429507339     1.007825032230
         H           -5.835301914343     3.369266461134    -0.402915035693     1.007825032230
         H            2.473307923831    -6.740689863591    -0.406738384277     1.007825032230
         H           -4.600674841208     5.512373537441    -0.406998085368     1.007825032230
         H           -5.835279506835    -3.369293452942    -0.411533004804     1.007825032230
         H           -2.473300347440    -6.740683567302    -0.407187700821     1.007825032230
         H           -7.073857766768     1.228215983678    -0.407479625400     1.007825032230
         H           -4.600673786085    -5.512367158949    -0.406800419101     1.007825032230
         H           -7.073856934409    -1.228225121139    -0.407195551357     1.007825032230

  Charge       = 0
  Multiplicity = 1
  Basis Set: JUN-CC-PVDZ
    Blend: JUN-CC-PVDZ
  Basis Set: (JUN-CC-PVDZ AUX)
    Blend: JUN-CC-PVDZ-JKFIT

    Orbital Energies [Eh]
    ---------------------

    Doubly Occupied:

       1A    -11.260668     2A    -11.260237     3A    -11.260191
       4A    -11.259476     5A    -11.259429     6A    -11.259260
       7A    -11.258996     8A    -11.258946     9A    -11.258898
      10A    -11.258588    11A    -11.258568    12A    -11.258411
      13A    -11.258361    14A    -11.258354    15A    -11.258347
      16A    -11.258320    17A    -11.258305    18A    -11.258293
      19A    -11.258286    20A    -11.258279    21A    -11.258268
      22A    -11.258249    23A    -11.258238    24A    -11.258065
      25A    -11.257245    26A    -11.257210    27A    -11.257154
      28A    -11.257071    29A    -11.257029    30A    -11.256967
      31A    -11.256353    32A    -11.256308    33A    -11.256243
      34A    -11.256185    35A    -11.256139    36A    -11.256102
      37A    -11.252156    38A    -11.252153    39A    -11.252144
      40A    -11.252138    41A    -11.252125    42A    -11.252108
      43A    -11.251235    44A    -11.251231    45A    -11.251221
      46A    -11.251217    47A    -11.251214    48A    -11.251195
      49A    -11.250717    50A    -11.250713    51A    -11.250705
      52A    -11.250699    53A    -11.250687    54A    -11.250669
      55A     -1.243812    56A     -1.219582    57A     -1.219558
      58A     -1.189316    59A     -1.189299    60A     -1.180711
      61A     -1.157347    62A     -1.148747    63A     -1.135265
      64A     -1.135239    65A     -1.112980    66A     -1.112974
      67A     -1.082194    68A     -1.082181    69A     -1.078368
      70A     -1.065776    71A     -1.065765    72A     -1.039175
      73A     -1.024012    74A     -1.021527    75A     -1.021469
      76A     -1.017513    77A     -1.012597    78A     -0.986787
      79A     -0.986725    80A     -0.961668    81A     -0.961612
      82A     -0.894065    83A     -0.894045    84A     -0.887667
      85A     -0.885911    86A     -0.885870    87A     -0.881136
      88A     -0.881091    89A     -0.861680    90A     -0.837217
      91A     -0.817967    92A     -0.816349    93A     -0.811884
      94A     -0.811880    95A     -0.794477    96A     -0.794465
      97A     -0.746346    98A     -0.744605    99A     -0.733161
     100A     -0.733148   101A     -0.731958   102A     -0.731940
     103A     -0.716258   104A     -0.698755   105A     -0.698718
     106A     -0.693352   107A     -0.693306   108A     -0.661009
     109A     -0.652865   110A     -0.650884   111A     -0.650044
     112A     -0.650036   113A     -0.639138   114A     -0.639116
     115A     -0.629463   116A     -0.627268   117A     -0.627257
     118A     -0.606447   119A     -0.605639   120A     -0.601397
     121A     -0.599518   122A     -0.599448   123A     -0.593374
     124A     -0.590946   125A     -0.590914   126A     -0.585083
     127A     -0.576395   128A     -0.576325   129A     -0.567120
     130A     -0.567098   131A     -0.565700   132A     -0.565694
     133A     -0.558464   134A     -0.554632   135A     -0.554620
     136A     -0.538377   137A     -0.538372   138A     -0.538143
     139A     -0.538136   140A     -0.529477   141A     -0.528103
     142A     -0.522650   143A     -0.522613   144A     -0.500285
     145A     -0.495511   146A     -0.493007   147A     -0.487735
     148A     -0.484810   149A     -0.481505   150A     -0.481504
     151A     -0.470256   152A     -0.470251   153A     -0.450734
     154A     -0.450669   155A     -0.438948   156A     -0.438942
     157A     -0.404626   158A     -0.404612   159A     -0.403256
     160A     -0.375288   161A     -0.375281   162A     -0.348993
     163A     -0.337519   164A     -0.336468   165A     -0.336429
     166A     -0.310938   167A     -0.297963   168A     -0.284211
     169A     -0.284168   170A     -0.224771   171A     -0.224718

  @DF-RHF Final Energy: -2055.89641377021417

   => Energetics <=

    Nuclear Repulsion Energy =           6452.5568002797772351
    One-Electron Energy =              -15636.5464327314766706
    Two-Electron Energy =                7128.0932186814852685
    Total Energy =                      -2055.8964137702141670
 Dipole X            :          0.0000206           -0.0000085            0.0000121
 Dipole Y            :          0.0019711           -0.0028843           -0.0009132
 Dipole Z            :        263.0510870         -263.0517343           -0.0006474
 Magnitude           :                                                    0.0011194

    SAPT Results
  --------------------------------------------------------------------------------------------------------
    Electrostatics                -30.71968919 [mEh]     -19.27689600 [kcal/mol]     -80.65453286 [kJ/mol]
      Elst10,r                    -30.71968919 [mEh]     -19.27689600 [kcal/mol]     -80.65453286 [kJ/mol]

    Exchange                       49.84460306 [mEh]      31.27796064 [kcal/mol]     130.86698731 [kJ/mol]
      Exch10                       49.84460306 [mEh]      31.27796064 [kcal/mol]     130.86698731 [kJ/mol]
      Exch10(S^2)                  49.55839434 [mEh]      31.09836195 [kcal/mol]     130.11554641 [kJ/mol]

    Induction                     -18.23488008 [mEh]     -11.44256000 [kcal/mol]     -47.87567106 [kJ/mol]
      Ind20,r                     -30.70499053 [mEh]     -19.26767245 [kcal/mol]     -80.61594153 [kJ/mol]
      Exch-Ind20,r                 16.85237765 [mEh]      10.57502663 [kcal/mol]      44.24591141 [kJ/mol]
      delta HF,r (2)               -4.38226720 [mEh]      -2.74991418 [kcal/mol]     -11.50564094 [kJ/mol]

    Dispersion                    -46.94703385 [mEh]     -29.45970851 [kcal/mol]    -123.25942039 [kJ/mol]
      Disp20                      -52.13377027 [mEh]     -32.71443475 [kcal/mol]    -136.87719499 [kJ/mol]
      Exch-Disp20                   5.18673642 [mEh]       3.25472624 [kcal/mol]      13.61777460 [kJ/mol]
      Disp20 (SS)                 -26.06688514 [mEh]     -16.35721738 [kcal/mol]     -68.43859750 [kJ/mol]
      Disp20 (OS)                 -26.06688514 [mEh]     -16.35721738 [kcal/mol]     -68.43859750 [kJ/mol]
      Exch-Disp20 (SS)              3.12122270 [mEh]       1.95859681 [kcal/mol]       8.19476906 [kJ/mol]
      Exch-Disp20 (OS)              2.06551373 [mEh]       1.29612943 [kcal/mol]       5.42300554 [kJ/mol]

  Total HF                          0.89003379 [mEh]       0.55850463 [kcal/mol]       2.33678339 [kJ/mol]
  Total SAPT0                     -46.05700006 [mEh]     -28.90120387 [kcal/mol]    -120.92263700 [kJ/mol]

  Special recipe for scaled SAPT0 (see Manual):
    Electrostatics sSAPT0         -30.71968919 [mEh]     -19.27689600 [kcal/mol]     -80.65453286 [kJ/mol]
    Exchange sSAPT0                49.84460306 [mEh]      31.27796064 [kcal/mol]     130.86698731 [kJ/mol]
    Induction sSAPT0              -17.94121400 [mEh]     -11.25828176 [kcal/mol]     -47.10465086 [kJ/mol]
    Dispersion sSAPT0             -46.85665084 [mEh]     -29.40299231 [kcal/mol]    -123.02211984 [kJ/mol]
  Total sSAPT0                    -45.67295097 [mEh]     -28.66020943 [kcal/mol]    -119.91431626 [kJ/mol]
  --------------------------------------------------------------------------------------------------------

*** Psi4 exiting successfully. Buy a developer a beer!
