                               Psi4 1.9 release

  ==> Input File <==

--------------------------------------------------------------------------
memory 32 GB # how much memory is available ! Depends on the nodes/cores !

molecule dimer {
# monomer A
+1 1    # Charge and multiplicity
C  0.680067 -1.215929 6.208042
C -0.680504 -1.215545 6.206014
N -1.085635  0.102779 6.205016
C  0.000108  0.884180 6.201740
C -2.477365  0.570758 6.155610
N  1.085222  0.102779 6.205016
H  1.385146 -2.033368 6.215870
H -1.385302 -2.033214 6.206204
H -0.000009  1.965269 6.199993
C  2.478117  0.567877 6.221908
H  2.490592  1.658130 6.194563
H  2.967028  0.220701 7.135354
H  3.001428  0.176405 5.346425
H -2.857359  0.490799 5.133539
H -3.082679 -0.042306 6.825694
H -2.518128  1.610706 6.482594
--
# monomer B
0 1     # Charge and multiplicity
C   1.22531237526482      0.70753866091955      0.00613762728373
C   1.22532433589282     -0.70753852257020     -0.00619318228664
C   -0.00000567409046      1.41496628609039     -0.00672680580738
C   2.45644923379077      1.41832825917820      0.00902448468363
C   0.00001130712078     -1.41497612663474      0.00347275151708
C   -1.22530046906674      0.70754574598412      0.00838914760619
C   2.45643823516184     -1.41832293188077     -0.00843833914343
C   -0.00000085313587      2.83680140328112     -0.00913035594137
C   3.68182717731192      0.70931832800114     -0.00808954934571
C   2.45512052870677      2.83422403348893     -0.00819210630633
C   3.68182158506039     -0.70933346742900      0.00798293467272
C   -1.22531311884624     -0.70752714354401     -0.00512042085974
C   1.22670006104402      3.54346985599427      0.00816696660346
C   0.00000526469929     -2.83678176723568      0.00832091913869
C   -2.45643555300670      1.41831729028492      0.00842454345199
C   2.45512389762097     -2.83422965658853      0.00783102630520
C   -1.22671388474763      3.54346943575023      0.00827029982280
C   4.91451777504333      1.42717324448953     -0.00160886631602
C   3.69315067131765      3.54279566454522     -0.00155906667985
C   -2.45643712022637     -1.41831290883911     -0.00846337726810
C   1.22670532178455     -3.54347386990643     -0.00780316414624
C   -2.45512491866593      2.83421703463423     -0.00818572995999
C   4.91452486062398     -1.42718653794377      0.00136387641845
C   1.22142509354026      4.97013443726031      0.00150231067809
C   4.89300870916237      2.82518837202648     -0.00039219795739
C   -1.22669652864725     -3.54347062507680     -0.00753595973677
C   -3.68181849668397      0.70932533873199     -0.00807686886569
C   3.69314758099218     -3.54280096939050      0.00148176697923
C   -1.22143177215231      4.97012866986289      0.00168580605083
C   6.13477145276790      0.68054831910577     -0.00083909176631
C   3.65678936045204      4.97295361556775     -0.00065042889723
C   -2.45512642789169     -2.83421472106065      0.00758666850712
C   -3.68181869921921     -0.70932533146830      0.00810055625144
C   4.89301309775526     -2.82519973363176      0.00021895393805
C   -0.00000059327114      5.65044773803267      0.00045449734393
C   6.13477559217374     -0.68055448207492      0.00042622874941
C   2.47813196269732      5.65357712333155      0.00063835075260
C   1.22142288457925     -4.97012668293268     -0.00129718634452
C   -3.69316190412301      3.54279732619245     -0.00139355922051
C   -1.22142804110313     -4.97011793159564     -0.00140994817719
C   -4.91452132810043      1.42717581899491     -0.00153192130862
C   3.65678749952045     -4.97295485423912      0.00080007163680
C   -2.47813805026426      5.65357479452875      0.00092287576113
C   -3.69314125872231     -3.54278984697859      0.00136564082345
C   -4.91451200321153     -1.42718062802730      0.00139857359209
C   -0.00000552908399     -5.65043791501335      0.00005899322272
C   -4.89302000425900      2.82518897091939     -0.00040227981744
C   2.47812647313991     -5.65357317188818     -0.00029052915548
C   -3.65679823041642      4.97295655404175     -0.00047374852278
C   -4.89299899901461     -2.82519139505969      0.00006491824035
C   -2.47812801824129     -5.65356579800621     -0.00056571680280
C   -6.13477002348955      0.68054913825639     -0.00086464346868
C   -3.65678835334731     -4.97294365097028      0.00058578382008
C   -6.13476456307132     -0.68055354348201      0.00040575295444
H   5.83528897565761      3.36927626695423      0.00396712770529
H   7.07385965258860      1.22821762089947     -0.00037744837300
H   4.60066374401555      5.51238117445323     -0.00014522814529
H   5.83528386714679     -3.36930568472863     -0.00423551337640
H   -0.00001167146422      6.73853104613662     -0.00389474766392
H   7.07386165167227     -1.22822657074368     -0.00008250934481
H   2.47331421164041      6.74068466339473      0.00017162982210
H   4.60066897122302     -5.51237575717576      0.00039007446835
H   -2.47331820069565      6.74068209160650      0.00047297644710
H   -0.00000978838621     -6.73852780445195      0.00458867820736
H   -5.83530143450167      3.36927132229595      0.00410314985360
H   2.47330840367253     -6.74068500242887      0.00027980126949
H   -4.60067436136587      5.51237839860371      0.00002010017831
H   -5.83527902699321     -3.36928859177951     -0.00451481925734
H   -2.47329986759855     -6.74067870613986     -0.00016951527498
H   -7.07385728692578      1.22822084484047     -0.00046143985387
H   -4.60067330624313     -5.51236229778631      0.00021776644566
H   -7.07385645456741     -1.22822025997701     -0.00017736581114

    units angstrom      # Angstroms are the default
    no_reorient         # Geometry fixed, default
    symmetry c1         # C1 symmetry, default
}

set {
    scf_type DF         # Density fitting, faster than exact integrals
    freeze_core True    # Freeze core electrons
    basis jun-cc-pVDZ   # Jun-cc-pVDZ basis set, recommended for sSAPT0 in https://doi.org/10.1063/1.4867135
}

energy('ssapt0')        # Compute sSAPT0 energy, includes also SAPT0
--------------------------------------------------------------------------

  //              Dimer HF             //
    Molecular point group: c1
  Charge       = 1
  Multiplicity = 1
  Basis Set: JUN-CC-PVDZ
    Blend: JUN-CC-PVDZ
  Basis Set: (JUN-CC-PVDZ AUX)
    Blend: JUN-CC-PVDZ-JKFIT
  @DF-RHF Final Energy: -2359.20040483158300
    Total Energy =                      -2359.2004048315830005
 Dipole X            :          0.0033863            0.0006313            0.0040176
 Dipole Y            :         -1.5259490            1.8864948            0.3605459
 Dipole Z            :        -22.9639012           32.2626670            9.2987659
 Magnitude           :                                                    9.3057539
  //            Monomer A HF           //
    Molecular point group: c1
  Multiplicity = 1
  Basis Set: JUN-CC-PVDZ
    Blend: JUN-CC-PVDZ
  Basis Set: (JUN-CC-PVDZ AUX)
    Blend: JUN-CC-PVDZ-JKFIT
  @DF-RHF Final Energy:  -303.29737268656828
    Total Energy =                       -303.2973726865682806
  //            Monomer B HF           //
    Molecular point group: c1

    Geometry (in Angstrom), charge = 0, multiplicity = 1:

       Center              X                  Y                   Z               Mass
    ------------   -----------------  -----------------  -----------------  -----------------
      Gh(C)           0.680066520158    -1.215933861162     5.419442222125    12.000000000000
      Gh(C)          -0.680504479842    -1.215549861162     5.417414222125    12.000000000000
      Gh(N)          -1.085635479842     0.102774138838     5.416416222125    14.003074004430
      Gh(C)           0.000107520158     0.884175138838     5.413140222125    12.000000000000
      Gh(C)          -2.477365479842     0.570753138838     5.367010222125    12.000000000000
      Gh(N)           1.085221520158     0.102774138838     5.416416222125    14.003074004430
      Gh(H)           1.385145520158    -2.033372861162     5.427270222125     1.007825032230
      Gh(H)          -1.385302479842    -2.033218861162     5.417604222125     1.007825032230
      Gh(H)          -0.000009479842     1.965264138838     5.411393222125     1.007825032230
      Gh(C)           2.478116520158     0.567872138838     5.433308222125    12.000000000000
      Gh(H)           2.490591520158     1.658125138838     5.405963222125     1.007825032230
      Gh(H)           2.967027520158     0.220696138838     6.346754222125     1.007825032230
      Gh(H)           3.001427520158     0.176400138838     4.557825222125     1.007825032230
      Gh(H)          -2.857359479842     0.490794138838     4.344939222125     1.007825032230
      Gh(H)          -3.082679479842    -0.042310861162     6.037094222125     1.007825032230
      Gh(H)          -2.518128479842     1.610701138838     5.693994222125     1.007825032230
         C            1.225311895423     0.707533799757    -0.782462150591    12.000000000000
         C            1.225323856051    -0.707543383733    -0.794792960162    12.000000000000
         C           -0.000006153932     1.414961424928    -0.795326583682    12.000000000000
         C            2.456448753949     1.418323398016    -0.779575293191    12.000000000000
         C            0.000010827279    -1.414980987797    -0.785127026358    12.000000000000
         C           -1.225300948908     0.707540884822    -0.780210630269    12.000000000000
         C            2.456437755320    -1.418327793043    -0.797038117018    12.000000000000
         C           -0.000001332978     2.836796542119    -0.797730133816    12.000000000000
         C            3.681826697470     0.709313466839    -0.796689327221    12.000000000000
         C            2.455120048865     2.834219172327    -0.796791884181    12.000000000000
         C            3.681821105219    -0.709338328591    -0.780616843202    12.000000000000
         C           -1.225313598688    -0.707532004706    -0.793720198735    12.000000000000
         C            1.226699581202     3.543464994832    -0.780432811271    12.000000000000
         C            0.000004784858    -2.836786628398    -0.780278858736    12.000000000000
         C           -2.456436032848     1.418312429123    -0.780175234423    12.000000000000
         C            2.455123417779    -2.834234517751    -0.780768751570    12.000000000000
         C           -1.226714364589     3.543464574588    -0.780329478052    12.000000000000
         C            4.914517295202     1.427168383327    -0.790208644191    12.000000000000
         C            3.693150191476     3.542790803383    -0.790158844555    12.000000000000
         C           -2.456437600068    -1.418317770001    -0.797063155143    12.000000000000
         C            1.226704841943    -3.543478731069    -0.796402942021    12.000000000000
         C           -2.455125398508     2.834212173472    -0.796785507835    12.000000000000
         C            4.914524380782    -1.427191399106    -0.787235901456    12.000000000000
         C            1.221424613699     4.970129576098    -0.787097467197    12.000000000000
         C            4.893008229321     2.825183510864    -0.788991975832    12.000000000000
         C           -1.226697008489    -3.543475486239    -0.796135737612    12.000000000000
         C           -3.681818976526     0.709320477570    -0.796676646741    12.000000000000
         C            3.693147101150    -3.542805830553    -0.787118010896    12.000000000000
         C           -1.221432251994     4.970123808701    -0.786913971824    12.000000000000
         C            6.134770972926     0.680543457943    -0.789438869641    12.000000000000
         C            3.656788880610     4.972948754405    -0.789250206772    12.000000000000
         C           -2.455126907733    -2.834219582223    -0.781013109368    12.000000000000
         C           -3.681819179061    -0.709330192631    -0.780499221623    12.000000000000
         C            4.893012617914    -2.825204594794    -0.788380823937    12.000000000000
         C           -0.000001073113     5.650442876870    -0.788145280531    12.000000000000
         C            6.134775112332    -0.680559343237    -0.788173549126    12.000000000000
         C            2.478131482856     5.653572262169    -0.787961427122    12.000000000000
         C            1.221422404738    -4.970131544095    -0.789896964219    12.000000000000
         C           -3.693162383965     3.542792465030    -0.789993337095    12.000000000000
         C           -1.221428520945    -4.970122792758    -0.790009726052    12.000000000000
         C           -4.914521807942     1.427170957833    -0.790131699184    12.000000000000
         C            3.656787019679    -4.972959715401    -0.787799706238    12.000000000000
         C           -2.478138530106     5.653569933366    -0.787676902114    12.000000000000
         C           -3.693141738564    -3.542794708141    -0.787234137051    12.000000000000
         C           -4.914512483053    -1.427185489190    -0.787201204283    12.000000000000
         C           -0.000006008926    -5.650442776176    -0.788540784652    12.000000000000
         C           -4.893020484101     2.825184109757    -0.789002057692    12.000000000000
         C            2.478125993298    -5.653578033051    -0.788890307030    12.000000000000
         C           -3.656798710258     4.972951692879    -0.789073526398    12.000000000000
         C           -4.892999478856    -2.825196256222    -0.788534859635    12.000000000000
         C           -2.478128498083    -5.653570659169    -0.789165494678    12.000000000000
         C           -6.134770503331     0.680544277094    -0.789464421344    12.000000000000
         C           -3.656788833189    -4.972948512133    -0.788013994055    12.000000000000
         C           -6.134765042913    -0.680558404644    -0.788194024920    12.000000000000
         H            5.835288495816     3.369271405792    -0.784632650170     1.007825032230
         H            7.073859172747     1.228212759737    -0.788977226248     1.007825032230
         H            4.600663264174     5.512376313291    -0.788745006020     1.007825032230
         H            5.835283387305    -3.369310545891    -0.792835291251     1.007825032230
         H           -0.000012151306     6.738526184974    -0.792494525539     1.007825032230
         H            7.073861171831    -1.228231431906    -0.788682287220     1.007825032230
         H            2.473313731799     6.740679802232    -0.788428148053     1.007825032230
         H            4.600668491381    -5.512380618338    -0.788209703407     1.007825032230
         H           -2.473318680537     6.740677230444    -0.788126801428     1.007825032230
         H           -0.000010268228    -6.738532665614    -0.784011099668     1.007825032230
         H           -5.835301914343     3.369266461134    -0.784496628021     1.007825032230
         H            2.473307923831    -6.740689863591    -0.788319976605     1.007825032230
         H           -4.600674841208     5.512373537441    -0.788579677697     1.007825032230
         H           -5.835279506835    -3.369293452942    -0.793114597132     1.007825032230
         H           -2.473300347440    -6.740683567302    -0.788769293150     1.007825032230
         H           -7.073857766768     1.228215983678    -0.789061217729     1.007825032230
         H           -4.600673786085    -5.512367158949    -0.788382011429     1.007825032230
         H           -7.073856934409    -1.228225121139    -0.788777143686     1.007825032230

  Charge       = 0
  Multiplicity = 1
  Basis Set: JUN-CC-PVDZ
    Blend: JUN-CC-PVDZ
  Basis Set: (JUN-CC-PVDZ AUX)
    Blend: JUN-CC-PVDZ-JKFIT

    Orbital Energies [Eh]
    ---------------------

    Doubly Occupied:

       1A    -11.260620     2A    -11.260178     3A    -11.260175
       4A    -11.259468     5A    -11.259468     6A    -11.259299
       7A    -11.259091     8A    -11.259013     9A    -11.259013
      10A    -11.258689    11A    -11.258685    12A    -11.258619
      13A    -11.258556    14A    -11.258552    15A    -11.258548
      16A    -11.258520    17A    -11.258514    18A    -11.258498
      19A    -11.258484    20A    -11.258478    21A    -11.258473
      22A    -11.258371    23A    -11.258368    24A    -11.258066
      25A    -11.257411    26A    -11.257349    27A    -11.257348
      28A    -11.257213    29A    -11.257212    30A    -11.257128
      31A    -11.256505    32A    -11.256435    33A    -11.256434
      34A    -11.256325    35A    -11.256324    36A    -11.256277
      37A    -11.252363    38A    -11.252362    39A    -11.252360
      40A    -11.252359    41A    -11.252356    42A    -11.252354
      43A    -11.251489    44A    -11.251486    45A    -11.251485
      46A    -11.251480    47A    -11.251478    48A    -11.251474
      49A    -11.250924    50A    -11.250923    51A    -11.250921
      52A    -11.250919    53A    -11.250917    54A    -11.250916
      55A     -1.244214    56A     -1.219948    57A     -1.219947
      58A     -1.189664    59A     -1.189656    60A     -1.181092
      61A     -1.157669    62A     -1.149096    63A     -1.135634
      64A     -1.135627    65A     -1.113302    66A     -1.113297
      67A     -1.082561    68A     -1.082554    69A     -1.078740
      70A     -1.066087    71A     -1.066082    72A     -1.039516
      73A     -1.024413    74A     -1.021915    75A     -1.021871
      76A     -1.017833    77A     -1.012898    78A     -0.987151
      79A     -0.987104    80A     -0.961992    81A     -0.961942
      82A     -0.894408    83A     -0.894381    84A     -0.888084
      85A     -0.886333    86A     -0.886276    87A     -0.881528
      88A     -0.881480    89A     -0.862014    90A     -0.837504
      91A     -0.818326    92A     -0.816755    93A     -0.812268
      94A     -0.812259    95A     -0.794798    96A     -0.794787
      97A     -0.746762    98A     -0.744993    99A     -0.733556
     100A     -0.733549   101A     -0.732294   102A     -0.732271
     103A     -0.716629   104A     -0.699090   105A     -0.699077
     106A     -0.693710   107A     -0.693693   108A     -0.661342
     109A     -0.653258   110A     -0.651300   111A     -0.650362
     112A     -0.650356   113A     -0.639471   114A     -0.639467
     115A     -0.629843   116A     -0.627653   117A     -0.627638
     118A     -0.606455   119A     -0.605894   120A     -0.601793
     121A     -0.599856   122A     -0.599822   123A     -0.593755
     124A     -0.591371   125A     -0.591358   126A     -0.585372
     127A     -0.576418   128A     -0.576399   129A     -0.567426
     130A     -0.567412   131A     -0.566092   132A     -0.566074
     133A     -0.558865   134A     -0.554963   135A     -0.554957
     136A     -0.538702   137A     -0.538700   138A     -0.538264
     139A     -0.538255   140A     -0.529832   141A     -0.528189
     142A     -0.522989   143A     -0.522981   144A     -0.500611
     145A     -0.495683   146A     -0.493347   147A     -0.487910
     148A     -0.485196   149A     -0.481879   150A     -0.481871
     151A     -0.470403   152A     -0.470390   153A     -0.451168
     154A     -0.451091   155A     -0.439151   156A     -0.439142
     157A     -0.404830   158A     -0.404808   159A     -0.403451
     160A     -0.375505   161A     -0.375502   162A     -0.349206
     163A     -0.337669   164A     -0.336634   165A     -0.336580
     166A     -0.311182   167A     -0.298175   168A     -0.284433
     169A     -0.284382   170A     -0.225004   171A     -0.224940

  @DF-RHF Final Energy: -2055.89219762861558

   => Energetics <=

    Nuclear Repulsion Energy =           6452.5568002797772351
    One-Electron Energy =              -15636.4460855989636912
    Two-Electron Energy =                7127.9970876905708792
    Total Energy =                      -2055.8921976286155768
 Dipole X            :          0.0000830           -0.0000085            0.0000744
 Dipole Y            :          0.0028722           -0.0028843           -0.0000121
 Dipole Z            :        509.6552527         -509.6627031           -0.0074504
 Magnitude           :                                                    0.0074508

    SAPT Results
  --------------------------------------------------------------------------------------------------------
    Electrostatics                 -8.18342707 [mEh]      -5.13517801 [kcal/mol]     -21.48558480 [kJ/mol]
      Elst10,r                     -8.18342707 [mEh]      -5.13517801 [kcal/mol]     -21.48558480 [kJ/mol]

    Exchange                       -0.00035200 [mEh]      -0.00022088 [kcal/mol]      -0.00092418 [kJ/mol]
      Exch10                       -0.00035200 [mEh]      -0.00022088 [kcal/mol]      -0.00092418 [kJ/mol]
      Exch10(S^2)                  -0.00035200 [mEh]      -0.00022088 [kcal/mol]      -0.00092417 [kJ/mol]

    Induction                      -2.65073733 [mEh]      -1.66336279 [kcal/mol]      -6.95950991 [kJ/mol]
      Ind20,r                      -2.60003627 [mEh]      -1.63154739 [kcal/mol]      -6.82639430 [kJ/mol]
      Exch-Ind20,r                  0.00129418 [mEh]       0.00081211 [kcal/mol]       0.00339786 [kJ/mol]
      delta HF,r (2)               -0.05199524 [mEh]      -0.03262750 [kcal/mol]      -0.13651348 [kJ/mol]

    Dispersion                     -2.17497422 [mEh]      -1.36481693 [kcal/mol]      -5.71039404 [kJ/mol]
      Disp20                       -2.17572541 [mEh]      -1.36528831 [kcal/mol]      -5.71236628 [kJ/mol]
      Exch-Disp20                   0.00075119 [mEh]       0.00047138 [kcal/mol]       0.00197224 [kJ/mol]
      Disp20 (SS)                  -1.08786271 [mEh]      -0.68264415 [kcal/mol]      -2.85618314 [kJ/mol]
      Disp20 (OS)                  -1.08786271 [mEh]      -0.68264415 [kcal/mol]      -2.85618314 [kJ/mol]
      Exch-Disp20 (SS)              0.00057033 [mEh]       0.00035789 [kcal/mol]       0.00149741 [kJ/mol]
      Exch-Disp20 (OS)              0.00018086 [mEh]       0.00011349 [kcal/mol]       0.00047484 [kJ/mol]

  Total HF                        -10.83451640 [mEh]      -6.79876168 [kcal/mol]     -28.44601889 [kJ/mol]
  Total SAPT0                     -13.00949062 [mEh]      -8.16357861 [kcal/mol]     -34.15641292 [kJ/mol]

  Special recipe for scaled SAPT0 (see Manual):
    Electrostatics sSAPT0          -8.18342707 [mEh]      -5.13517801 [kcal/mol]     -21.48558480 [kJ/mol]
    Exchange sSAPT0                -0.00035200 [mEh]      -0.00022088 [kcal/mol]      -0.00092418 [kJ/mol]
    Induction sSAPT0               -2.65073733 [mEh]      -1.66336279 [kcal/mol]      -6.95950991 [kJ/mol]
    Dispersion sSAPT0              -2.17497422 [mEh]      -1.36481693 [kcal/mol]      -5.71039404 [kJ/mol]
  Total sSAPT0                    -13.00949062 [mEh]      -8.16357861 [kcal/mol]     -34.15641292 [kJ/mol]
  --------------------------------------------------------------------------------------------------------

*** Psi4 exiting successfully. Buy a developer a beer!
