                               Psi4 1.9 release

  ==> Input File <==

--------------------------------------------------------------------------
memory 32 GB # how much memory is available ! Depends on the nodes/cores !

molecule dimer {
# monomer A
+1 1    # Charge and multiplicity
C  0.680067 1.417258 -6.015929
C -0.680504 1.419286 -6.015545
N -1.085635 1.420284 -4.697221
C  0.000108 1.423560 -3.915820
C -2.477365 1.469690 -4.229242
N  1.085222 1.420284 -4.697221
H  1.385146 1.409430 -6.833368
H -1.385302 1.419096 -6.833214
H -0.000009 1.425307 -2.834731
C  2.478117 1.403392 -4.232123
H  2.490592 1.430737 -3.141870
H  2.967028 0.489946 -4.579299
H  3.001428 2.278875 -4.623595
H -2.857359 2.491761 -4.309201
H -3.082679 0.799606 -4.842306
H -2.518128 1.142706 -3.189294
--
# monomer B
0 1     # Charge and multiplicity
C   1.22531237526482      0.70753866091955      0.00613762728373
C   1.22532433589282     -0.70753852257020     -0.00619318228664
C   -0.00000567409046      1.41496628609039     -0.00672680580738
C   2.45644923379077      1.41832825917820      0.00902448468363
C   0.00001130712078     -1.41497612663474      0.00347275151708
C   -1.22530046906674      0.70754574598412      0.00838914760619
C   2.45643823516184     -1.41832293188077     -0.00843833914343
C   -0.00000085313587      2.83680140328112     -0.00913035594137
C   3.68182717731192      0.70931832800114     -0.00808954934571
C   2.45512052870677      2.83422403348893     -0.00819210630633
C   3.68182158506039     -0.70933346742900      0.00798293467272
C   -1.22531311884624     -0.70752714354401     -0.00512042085974
C   1.22670006104402      3.54346985599427      0.00816696660346
C   0.00000526469929     -2.83678176723568      0.00832091913869
C   -2.45643555300670      1.41831729028492      0.00842454345199
C   2.45512389762097     -2.83422965658853      0.00783102630520
C   -1.22671388474763      3.54346943575023      0.00827029982280
C   4.91451777504333      1.42717324448953     -0.00160886631602
C   3.69315067131765      3.54279566454522     -0.00155906667985
C   -2.45643712022637     -1.41831290883911     -0.00846337726810
C   1.22670532178455     -3.54347386990643     -0.00780316414624
C   -2.45512491866593      2.83421703463423     -0.00818572995999
C   4.91452486062398     -1.42718653794377      0.00136387641845
C   1.22142509354026      4.97013443726031      0.00150231067809
C   4.89300870916237      2.82518837202648     -0.00039219795739
C   -1.22669652864725     -3.54347062507680     -0.00753595973677
C   -3.68181849668397      0.70932533873199     -0.00807686886569
C   3.69314758099218     -3.54280096939050      0.00148176697923
C   -1.22143177215231      4.97012866986289      0.00168580605083
C   6.13477145276790      0.68054831910577     -0.00083909176631
C   3.65678936045204      4.97295361556775     -0.00065042889723
C   -2.45512642789169     -2.83421472106065      0.00758666850712
C   -3.68181869921921     -0.70932533146830      0.00810055625144
C   4.89301309775526     -2.82519973363176      0.00021895393805
C   -0.00000059327114      5.65044773803267      0.00045449734393
C   6.13477559217374     -0.68055448207492      0.00042622874941
C   2.47813196269732      5.65357712333155      0.00063835075260
C   1.22142288457925     -4.97012668293268     -0.00129718634452
C   -3.69316190412301      3.54279732619245     -0.00139355922051
C   -1.22142804110313     -4.97011793159564     -0.00140994817719
C   -4.91452132810043      1.42717581899491     -0.00153192130862
C   3.65678749952045     -4.97295485423912      0.00080007163680
C   -2.47813805026426      5.65357479452875      0.00092287576113
C   -3.69314125872231     -3.54278984697859      0.00136564082345
C   -4.91451200321153     -1.42718062802730      0.00139857359209
C   -0.00000552908399     -5.65043791501335      0.00005899322272
C   -4.89302000425900      2.82518897091939     -0.00040227981744
C   2.47812647313991     -5.65357317188818     -0.00029052915548
C   -3.65679823041642      4.97295655404175     -0.00047374852278
C   -4.89299899901461     -2.82519139505969      0.00006491824035
C   -2.47812801824129     -5.65356579800621     -0.00056571680280
C   -6.13477002348955      0.68054913825639     -0.00086464346868
C   -3.65678835334731     -4.97294365097028      0.00058578382008
C   -6.13476456307132     -0.68055354348201      0.00040575295444
H   5.83528897565761      3.36927626695423      0.00396712770529
H   7.07385965258860      1.22821762089947     -0.00037744837300
H   4.60066374401555      5.51238117445323     -0.00014522814529
H   5.83528386714679     -3.36930568472863     -0.00423551337640
H   -0.00001167146422      6.73853104613662     -0.00389474766392
H   7.07386165167227     -1.22822657074368     -0.00008250934481
H   2.47331421164041      6.74068466339473      0.00017162982210
H   4.60066897122302     -5.51237575717576      0.00039007446835
H   -2.47331820069565      6.74068209160650      0.00047297644710
H   -0.00000978838621     -6.73852780445195      0.00458867820736
H   -5.83530143450167      3.36927132229595      0.00410314985360
H   2.47330840367253     -6.74068500242887      0.00027980126949
H   -4.60067436136587      5.51237839860371      0.00002010017831
H   -5.83527902699321     -3.36928859177951     -0.00451481925734
H   -2.47329986759855     -6.74067870613986     -0.00016951527498
H   -7.07385728692578      1.22822084484047     -0.00046143985387
H   -4.60067330624313     -5.51236229778631      0.00021776644566
H   -7.07385645456741     -1.22822025997701     -0.00017736581114

    units angstrom      # Angstroms are the default
    no_reorient         # Geometry fixed, default
    symmetry c1         # C1 symmetry, default
}

set {
    scf_type DF         # Density fitting, faster than exact integrals
    freeze_core True    # Freeze core electrons
    basis jun-cc-pVDZ   # Jun-cc-pVDZ basis set, recommended for sSAPT0 in https://doi.org/10.1063/1.4867135
}

energy('ssapt0')        # Compute sSAPT0 energy, includes also SAPT0
--------------------------------------------------------------------------

  //              Dimer HF             //
    Molecular point group: c1
  Charge       = 1
  Multiplicity = 1
  Basis Set: JUN-CC-PVDZ
    Blend: JUN-CC-PVDZ
  Basis Set: (JUN-CC-PVDZ AUX)
    Blend: JUN-CC-PVDZ-JKFIT
  @DF-RHF Final Energy: -2359.21214482861342
    Total Energy =                      -2359.2121448286125087
 Dipole X            :         -0.0023064            0.0006313           -0.0016751
 Dipole Y            :         -5.9758745            7.4856329            1.5097584
 Dipole Z            :         17.1241089          -23.1340642           -6.0099554
 Magnitude           :                                                    6.1966876
  //            Monomer A HF           //
    Molecular point group: c1
  Multiplicity = 1
  Basis Set: JUN-CC-PVDZ
    Blend: JUN-CC-PVDZ
  Basis Set: (JUN-CC-PVDZ AUX)
    Blend: JUN-CC-PVDZ-JKFIT
  @DF-RHF Final Energy:  -303.29788703160887
    Total Energy =                       -303.2978870316088660
  //            Monomer B HF           //
    Molecular point group: c1

    Geometry (in Angstrom), charge = 0, multiplicity = 1:

       Center              X                  Y                   Z               Mass
    ------------   -----------------  -----------------  -----------------  -----------------
      Gh(C)           0.680066520158     1.235968212970    -5.405400721530    12.000000000000
      Gh(C)          -0.680504479842     1.237996212970    -5.405016721530    12.000000000000
      Gh(N)          -1.085635479842     1.238994212970    -4.086692721530    14.003074004430
      Gh(C)           0.000107520158     1.242270212970    -3.305291721530    12.000000000000
      Gh(C)          -2.477365479842     1.288400212970    -3.618713721530    12.000000000000
      Gh(N)           1.085221520158     1.238994212970    -4.086692721530    14.003074004430
      Gh(H)           1.385145520158     1.228140212970    -6.222839721530     1.007825032230
      Gh(H)          -1.385302479842     1.237806212970    -6.222685721530     1.007825032230
      Gh(H)          -0.000009479842     1.244017212970    -2.224202721530     1.007825032230
      Gh(C)           2.478116520158     1.222102212970    -3.621594721530    12.000000000000
      Gh(H)           2.490591520158     1.249447212970    -2.531341721530     1.007825032230
      Gh(H)           2.967027520158     0.308656212970    -3.968770721530     1.007825032230
      Gh(H)           3.001427520158     2.097585212970    -4.013066721530     1.007825032230
      Gh(H)          -2.857359479842     2.310471212970    -3.698672721530     1.007825032230
      Gh(H)          -3.082679479842     0.618316212970    -4.231777721530     1.007825032230
      Gh(H)          -2.518128479842     0.961416212970    -2.578765721530     1.007825032230
         C            1.225311895423     0.526248873889     0.616665905754    12.000000000000
         C            1.225323856051    -0.888828309601     0.604335096184    12.000000000000
         C           -0.000006153932     1.233676499060     0.603801472663    12.000000000000
         C            2.456448753949     1.237038472148     0.619552763154    12.000000000000
         C            0.000010827279    -1.596265913665     0.614001029987    12.000000000000
         C           -1.225300948908     0.526255958954     0.618917426076    12.000000000000
         C            2.456437755320    -1.599612718911     0.602089939327    12.000000000000
         C           -0.000001332978     2.655511616251     0.601397922529    12.000000000000
         C            3.681826697470     0.528028540971     0.602438729125    12.000000000000
         C            2.455120048865     2.652934246459     0.602336172164    12.000000000000
         C            3.681821105219    -0.890623254459     0.618511213143    12.000000000000
         C           -1.225313598688    -0.888816930574     0.605407857610    12.000000000000
         C            1.226699581202     3.362180068964     0.618695245074    12.000000000000
         C            0.000004784858    -3.018071554266     0.618849197609    12.000000000000
         C           -2.456436032848     1.237027503255     0.618952821922    12.000000000000
         C            2.455123417779    -3.015519443619     0.618359304775    12.000000000000
         C           -1.226714364589     3.362179648720     0.618798578293    12.000000000000
         C            4.914517295202     1.245883457459     0.608919412154    12.000000000000
         C            3.693150191476     3.361505877515     0.608969211790    12.000000000000
         C           -2.456437600068    -1.599602695869     0.602064901202    12.000000000000
         C            1.226704841943    -3.724763656937     0.602725114324    12.000000000000
         C           -2.455125398508     2.652927247604     0.602342548510    12.000000000000
         C            4.914524380782    -1.608476324974     0.611892154889    12.000000000000
         C            1.221424613699     4.788844650230     0.612030589148    12.000000000000
         C            4.893008229321     2.643898584996     0.610136080513    12.000000000000
         C           -1.226697008489    -3.724760412107     0.602992318733    12.000000000000
         C           -3.681818976526     0.528035551702     0.602451409605    12.000000000000
         C            3.693147101150    -3.724090756421     0.612010045449    12.000000000000
         C           -1.221432251994     4.788838882833     0.612214084521    12.000000000000
         C            6.134770972926     0.499258532075     0.609689186704    12.000000000000
         C            3.656788880610     4.791663828537     0.609877849573    12.000000000000
         C           -2.455126907733    -3.015504508091     0.618114946977    12.000000000000
         C           -3.681819179061    -0.890615118499     0.618628834722    12.000000000000
         C            4.893012617914    -3.006489520662     0.610747232408    12.000000000000
         C           -0.000001073113     5.469157951002     0.610982775814    12.000000000000
         C            6.134775112332    -0.861844269105     0.610954507220    12.000000000000
         C            2.478131482856     5.472287336301     0.611166629223    12.000000000000
         C            1.221422404738    -5.151416469963     0.609231092126    12.000000000000
         C           -3.693162383965     3.361507539162     0.609134719250    12.000000000000
         C           -1.221428520945    -5.151407718626     0.609118330293    12.000000000000
         C           -4.914521807942     1.245886031965     0.608996357162    12.000000000000
         C            3.656787019679    -5.154244641269     0.611328350107    12.000000000000
         C           -2.478138530106     5.472285007498     0.611451154231    12.000000000000
         C           -3.693141738564    -3.724079634009     0.611893919294    12.000000000000
         C           -4.914512483053    -1.608470415058     0.611926852062    12.000000000000
         C           -0.000006008926    -5.831727702044     0.610587271693    12.000000000000
         C           -4.893020484101     2.643899183889     0.610125998653    12.000000000000
         C            2.478125993298    -5.834862958919     0.610237749315    12.000000000000
         C           -3.656798710258     4.791666767011     0.610054529947    12.000000000000
         C           -4.892999478856    -3.006481182090     0.610593196711    12.000000000000
         C           -2.478128498083    -5.834855585037     0.609962561667    12.000000000000
         C           -6.134770503331     0.499259351226     0.609663635002    12.000000000000
         C           -3.656788833189    -5.154233438001     0.611114062290    12.000000000000
         C           -6.134765042913    -0.861843330512     0.610934031425    12.000000000000
         H            5.835288495816     3.187986479924     0.614495406176     1.007825032230
         H            7.073859172747     1.046927833869     0.610150830097     1.007825032230
         H            4.600663264174     5.331091387423     0.610383050325     1.007825032230
         H            5.835283387305    -3.550595471759     0.606292765094     1.007825032230
         H           -0.000012151306     6.557241259106     0.606633530806     1.007825032230
         H            7.073861171831    -1.409516357774     0.610445769125     1.007825032230
         H            2.473313731799     6.559394876364     0.610699908292     1.007825032230
         H            4.600668491381    -5.693665544206     0.610918352939     1.007825032230
         H           -2.473318680537     6.559392304576     0.611001254917     1.007825032230
         H           -0.000010268228    -6.919817591482     0.615116956678     1.007825032230
         H           -5.835301914343     3.187981535266     0.614631428324     1.007825032230
         H            2.473307923831    -6.921974789459     0.610808079740     1.007825032230
         H           -4.600674841208     5.331088611573     0.610548378649     1.007825032230
         H           -5.835279506835    -3.550578378810     0.606013459213     1.007825032230
         H           -2.473300347440    -6.921968493170     0.610358763195     1.007825032230
         H           -7.073857766768     1.046931057810     0.610066838616     1.007825032230
         H           -4.600673786085    -5.693652084817     0.610746044916     1.007825032230
         H           -7.073856934409    -1.409510047007     0.610350912659     1.007825032230

  Charge       = 0
  Multiplicity = 1
  Basis Set: JUN-CC-PVDZ
    Blend: JUN-CC-PVDZ
  Basis Set: (JUN-CC-PVDZ AUX)
    Blend: JUN-CC-PVDZ-JKFIT

    Orbital Energies [Eh]
    ---------------------

    Doubly Occupied:

       1A    -11.260575     2A    -11.260123     3A    -11.260115
       4A    -11.259426     5A    -11.259414     6A    -11.259227
       7A    -11.259034     8A    -11.258959     9A    -11.258910
      10A    -11.258600    11A    -11.258586    12A    -11.258510
      13A    -11.258448    14A    -11.258444    15A    -11.258439
      16A    -11.258409    17A    -11.258401    18A    -11.258389
      19A    -11.258383    20A    -11.258377    21A    -11.258360
      22A    -11.258290    23A    -11.258278    24A    -11.257995
      25A    -11.257318    26A    -11.257265    27A    -11.257242
      28A    -11.257131    29A    -11.257115    30A    -11.257034
      31A    -11.256414    32A    -11.256352    33A    -11.256334
      34A    -11.256238    35A    -11.256233    36A    -11.256172
      37A    -11.252264    38A    -11.252261    39A    -11.252228
      40A    -11.252224    41A    -11.252222    42A    -11.252218
      43A    -11.251374    44A    -11.251363    45A    -11.251359
      46A    -11.251352    47A    -11.251350    48A    -11.251330
      49A    -11.250825    50A    -11.250822    51A    -11.250789
      52A    -11.250785    53A    -11.250783    54A    -11.250779
      55A     -1.243995    56A     -1.219756    57A     -1.219732
      58A     -1.189479    59A     -1.189461    60A     -1.180873
      61A     -1.157490    62A     -1.148913    63A     -1.135433
      64A     -1.135404    65A     -1.113126    66A     -1.113122
      67A     -1.082357    68A     -1.082354    69A     -1.078531
      70A     -1.065917    71A     -1.065910    72A     -1.039326
      73A     -1.024200    74A     -1.021700    75A     -1.021637
      76A     -1.017658    77A     -1.012732    78A     -0.986952
      79A     -0.986897    80A     -0.961813    81A     -0.961760
      82A     -0.894218    83A     -0.894195    84A     -0.887851
      85A     -0.886100    86A     -0.886053    87A     -0.881315
      88A     -0.881268    89A     -0.861828    90A     -0.837343
      91A     -0.818133    92A     -0.816535    93A     -0.812053
      94A     -0.812052    95A     -0.794621    96A     -0.794606
      97A     -0.746538    98A     -0.744776    99A     -0.733337
     100A     -0.733331   101A     -0.732110   102A     -0.732086
     103A     -0.716419   104A     -0.698905   105A     -0.698877
     106A     -0.693517   107A     -0.693480   108A     -0.661160
     109A     -0.653036   110A     -0.651076   111A     -0.650184
     112A     -0.650174   113A     -0.639293   114A     -0.639272
     115A     -0.629635   116A     -0.627440   117A     -0.627431
     118A     -0.606430   119A     -0.605748   120A     -0.601575
     121A     -0.599675   122A     -0.599613   123A     -0.593546
     124A     -0.591141   125A     -0.591112   126A     -0.585213
     127A     -0.576458   128A     -0.576354   129A     -0.567256
     130A     -0.567234   131A     -0.565878   132A     -0.565863
     133A     -0.558643   134A     -0.554776   135A     -0.554772
     136A     -0.538520   137A     -0.538519   138A     -0.538212
     139A     -0.538198   140A     -0.529637   141A     -0.528140
     142A     -0.522803   143A     -0.522777   144A     -0.500431
     145A     -0.495595   146A     -0.493160   147A     -0.487830
     148A     -0.484985   149A     -0.481672   150A     -0.481670
     151A     -0.470311   152A     -0.470310   153A     -0.450929
     154A     -0.450860   155A     -0.439043   156A     -0.439035
     157A     -0.404722   158A     -0.404701   159A     -0.403330
     160A     -0.375393   161A     -0.375385   162A     -0.349089
     163A     -0.337586   164A     -0.336525   165A     -0.336462
     166A     -0.311064   167A     -0.298063   168A     -0.284318
     169A     -0.284263   170A     -0.224877   171A     -0.224818

  @DF-RHF Final Energy: -2055.89437494469621

   => Energetics <=

    Nuclear Repulsion Energy =           6452.5568002797781446
    One-Electron Energy =              -15636.5019825209019473
    Two-Electron Energy =                7128.0508072964285020
    Total Energy =                      -2055.8943749446962102
 Dipole X            :         -0.0001661           -0.0000085           -0.0001746
 Dipole Y            :        117.1716135         -117.1648546            0.0067589
 Dipole Z            :       -394.5704006          394.5746405            0.0042399
 Magnitude           :                                                    0.0079806

    SAPT Results
  --------------------------------------------------------------------------------------------------------
    Electrostatics                -12.77237028 [mEh]      -8.01478335 [kcal/mol]     -33.53385355 [kJ/mol]
      Elst10,r                    -12.77237028 [mEh]      -8.01478335 [kcal/mol]     -33.53385355 [kJ/mol]

    Exchange                        3.22527783 [mEh]       2.02389239 [kcal/mol]       8.46796578 [kJ/mol]
      Exch10                        3.22527783 [mEh]       2.02389239 [kcal/mol]       8.46796578 [kJ/mol]
      Exch10(S^2)                   3.22182499 [mEh]       2.02172570 [kcal/mol]       8.45890034 [kJ/mol]

    Induction                     -10.33575986 [mEh]      -6.48578723 [kcal/mol]     -27.13653377 [kJ/mol]
      Ind20,r                      -9.93981210 [mEh]      -6.23732626 [kcal/mol]     -26.09697307 [kJ/mol]
      Exch-Ind20,r                  0.75500010 [mEh]       0.47376972 [kcal/mol]       1.98225249 [kJ/mol]
      delta HF,r (2)               -1.15094786 [mEh]      -0.72223069 [kcal/mol]      -3.02181320 [kJ/mol]

    Dispersion                    -11.58411618 [mEh]      -7.26914265 [kcal/mol]     -30.41409284 [kJ/mol]
      Disp20                      -11.89627107 [mEh]      -7.46502280 [kcal/mol]     -31.23365538 [kJ/mol]
      Exch-Disp20                   0.31215489 [mEh]       0.19588015 [kcal/mol]       0.81956254 [kJ/mol]
      Disp20 (SS)                  -5.94813553 [mEh]      -3.73251140 [kcal/mol]     -15.61682769 [kJ/mol]
      Disp20 (OS)                  -5.94813553 [mEh]      -3.73251140 [kcal/mol]     -15.61682769 [kJ/mol]
      Exch-Disp20 (SS)              0.19585498 [mEh]       0.12290086 [kcal/mol]       0.51421719 [kJ/mol]
      Exch-Disp20 (OS)              0.11629991 [mEh]       0.07297929 [kcal/mol]       0.30534536 [kJ/mol]

  Total HF                        -19.88285231 [mEh]     -12.47667819 [kcal/mol]     -52.20242154 [kJ/mol]
  Total SAPT0                     -31.46696849 [mEh]     -19.74582084 [kcal/mol]     -82.61651438 [kJ/mol]

  Special recipe for scaled SAPT0 (see Manual):
    Electrostatics sSAPT0         -12.77237028 [mEh]      -8.01478335 [kcal/mol]     -33.53385355 [kJ/mol]
    Exchange sSAPT0                 3.22527783 [mEh]       2.02389239 [kcal/mol]       8.46796578 [kJ/mol]
    Induction sSAPT0              -10.33332984 [mEh]      -6.48426237 [kcal/mol]     -27.13015377 [kJ/mol]
    Dispersion sSAPT0             -11.58311149 [mEh]      -7.26851220 [kcal/mol]     -30.41145503 [kJ/mol]
  Total sSAPT0                    -31.46353378 [mEh]     -19.74366553 [kcal/mol]     -82.60749657 [kJ/mol]
  --------------------------------------------------------------------------------------------------------

*** Psi4 exiting successfully. Buy a developer a beer!
