                               Psi4 1.9 release

  ==> Input File <==

--------------------------------------------------------------------------
memory 47 GB # how much memory is available ! Depends on the nodes/cores !

molecule dimer {
# monomer A
+1 1    # Charge and multiplicity
C  0.680067 -0.008042 -10.615929
C -0.680504 -0.006014 -10.615545
N -1.085635 -0.005016  -9.297221
C  0.000108 -0.001740  -8.515820
C -2.477365  0.044390  -8.829242
N  1.085222 -0.005016  -9.297221
H  1.385146 -0.015870 -11.433368
H -1.385302 -0.006204 -11.433214
H -0.000009  0.000007  -7.434731
C  2.478117 -0.021908  -8.832123
H  2.490592  0.005437  -7.741870
H  2.967028 -0.935354  -9.179299
H  3.001428  0.853575  -9.223595
H -2.857359  1.066461  -8.909201
H -3.082679 -0.625694  -9.442306
H -2.518128 -0.282594  -7.789294
--
# monomer B
0 1     # Charge and multiplicity
C   -3.66844126402057      7.80375217008252      0.00190004133558
C   -4.84759871934653      7.13124183134024     -0.00046653359696
C   -4.89495929917518      5.69633040353158     -0.00103944469517
C   -3.65374067877320      4.98073034095895      0.00662099703436
C   -2.40942512149445      7.11398103667468      0.00209438359570
C   -2.42547734410473      5.68112195090346     -0.00491050527438
C   -1.19474401643570      7.78614419430947      0.00356656413763
C   0.03795902893699      7.09942164575698      0.00139585983271
C   0.03033258741920      5.66948955970466     -0.00408752508301
C   -1.20098450790502      4.96927034791531      0.00488220885047
C   1.27795782581485      7.77285944319479      0.00277170839332
C   2.48535808472416      7.08769688523756      0.00049722048857
C   2.48612868491717      5.65477081024076     -0.00644052849921
C   1.25408291964399      4.95607811366431      0.00518741308898
C   3.75171459140595      7.76391215098033      0.00062407186893
C   4.92356605618520      7.07878077698995     -0.00143240883900
C   4.95560727132542      5.64344746336949     -0.00159282164606
C   3.70680153420475      4.94121020833308      0.00349873852374
H   -3.65852113775815      8.89082741913536      0.00358502958574
H   -1.18921332975660      8.87412108735996      0.00753844057883
H   1.28429423888630      8.86083343548850      0.00693053253426
H   3.75354208679975      8.85103527897216      0.00214659618464
H   5.86995870320703      7.61379483465560     -0.00235777588134
H   -5.78823170750226      7.67630221293400     -0.00202638095293
C   -6.09197395869619      4.99326001364347     -0.00291168518608
C   -6.12866148031747      3.58258016879823     -0.00171050815740
C   -3.66457974004527      3.56418217974434     -0.00463560277484
C   -4.89429820469869      2.86108077590057      0.00453338221034
C   -2.43733499489796      2.84761165708481      0.00719617576166
C   -1.20922785759670      3.54788693497833     -0.00648285103018
C   1.24714157216223      3.53468075142962     -0.00729145743546
C   0.01517603956900      2.83311183930540      0.00439272578912
C   2.46764517244071      2.82128997725533      0.00449278391269
C   3.70254947457969      3.52466015442405     -0.00899517692985
C   6.14498038638375      4.92757236613191     -0.00282626685777
C   6.16658835886151      3.51658447594213     -0.00065971342101
C   4.92460995845939      2.80840792535402      0.00587903281610
H   7.08990550964105      5.46688776622306     -0.00658814770723
H   -7.03104175110130      5.54268795285765     -0.00714490013730
C   -7.33969804112295      2.85841153457957     -0.00333767559888
C   -7.36488195805880      1.47032337158330     -0.00157213747140
C   -4.90350460894690      1.44442681216000     -0.00628840166334
C   -6.13225715261081      0.73993935705394      0.00600164231964
C   -3.67687480051673      0.72669714267312      0.00433931473643
C   -2.44565658606518      1.42964113326212     -0.00597039546461
C   -1.22360068130162      0.71532450163492      0.00545886906656
C   0.00763786931376      1.41738314923765      0.00392452278437
C   1.23121980774686      0.70211669058719     -0.01490206287210
C   2.46082110053113      1.40329203612573      0.00460244601878
C   3.68443025419614      0.68719842821222      0.00377365974158
C   4.91870890153864      1.39173456118907     -0.00862816189375
C   7.36980207796101      2.77948220318441     -0.00242013321349
C   7.38016266612146      1.39121750785509     -0.00087345036788
C   6.13979953912259      0.67411862320065      0.00545489144369
H   -8.27919079934664      3.40711804112415     -0.00763522772059
H   8.31511347147953      3.31811809662368     -0.00663070901292
C   -8.59175593758115      0.72483255304480     -0.00123170985383
C   -8.59902460370342     -0.63263980622873      0.00089141472904
C   -6.13981313911873     -0.67413663715361     -0.00609792660607
C   -7.38018411213749     -1.39126618958160      0.00131813493501
C   -4.91868448025621     -1.39175501803000      0.00624257154343
C   -3.68443829568458     -0.68723731573599     -0.00478966852105
C   -2.46081704024768     -1.40334517882457      0.00575341766833
C   -1.23116201232071     -0.70217386488055     -0.00636696112346
C   -0.00756962538737     -1.41741884941102      0.00108956317991
C   1.22364771588843     -0.71527537726392      0.01109518512883
C   2.44567064933149     -1.42964328900682     -0.00065482763106
C   3.67686670284649     -0.72670743155550     -0.00479541202602
C   6.13224884641929     -0.73997883984993     -0.00632338623858
C   4.90351914550401     -1.44445752054090      0.00751768830159
C   8.59901484869081      0.63260386666793     -0.00101133422380
C   8.59174548810050     -0.72485086719319      0.00072504603735
C   7.36486276438985     -1.47033266560598      0.00049486934466
H   -9.52830597181814      1.27684744919284     -0.00270163681798
H   9.54141097460619      1.17457248844457     -0.00206336648518
C   -7.36983790976868     -2.77954514593389      0.00312634335708
C   -4.92459910905015     -2.80843725734101     -0.00460528907921
C   -6.16662249566744     -3.51665219282533      0.00169655107992
C   -3.70251035970491     -3.52468154912026      0.00571878010666
C   -2.46764698511392     -2.82132596280400     -0.00632585824990
C   -0.01513347410770     -2.83314164539971     -0.00604426974092
C   -1.24712184122656     -3.53473217556300      0.00551968366725
C   1.20924506964357     -3.54791467864352      0.00805871345849
C   2.43733602215464     -2.84764173817541     -0.00608104485234
C   4.89430234377080     -2.86112296828604     -0.00526030478103
C   3.66461525504104     -3.56421984553201      0.00761911515957
C   6.12863901474565     -3.58258405771778      0.00096495711699
C   7.33967266469532     -2.85841330737039      0.00248018319869
H   -9.54144911125902     -1.17456346666430      0.00226083090216
H   9.52826186807155     -1.27691907390448      0.00197485379837
H   -8.31516504384864     -3.31814985321231      0.00729857188773
H   8.27915514249207     -3.40714078989363      0.00681973918158
C   -6.14499418870218     -4.92764727278338      0.00302254913999
C   -3.70678334799751     -4.94126171411716     -0.00679841894792
C   -4.95559005800169     -5.64349397349412      0.00116871569699
C   -2.48612132622665     -5.65478557440947      0.00614125209662
C   -1.25405833548005     -4.95612205000132     -0.00503435388927
C   1.20101257386816     -4.96928038819302     -0.00385322963129
C   -0.03033667441341     -5.66952030313900      0.00398997003238
C   3.65375010132847     -4.98074377541453     -0.00309522988330
C   2.42549269587528     -5.68117463552727      0.00628170066869
C   6.09196561781097     -4.99325796338655      0.00325918379042
C   4.89497644461045     -5.69634842095790      0.00202298796027
H   -7.08989238804069     -5.46699984223871      0.00742531082125
H   7.03105520920009     -5.54265853633254      0.00683896355417
C   -4.92354532219813     -7.07882109967734      0.00061394679214
C   -2.48534208823777     -7.08772807792913     -0.00189594564379
C   -3.75168589177895     -7.76394715763627     -0.00170126671874
C   -0.03794895698805     -7.09946487446944     -0.00168022049625
C   -1.27795610040136     -7.77290438466689     -0.00366491325785
C   2.40944432072629     -7.11402201200282     -0.00081701968533
C   1.19474993715296     -7.78618536556242     -0.00296931056689
C   4.84762105249800     -7.13126211057943      0.00168979497423
C   3.66847160587561     -7.80378799294376     -0.00065863938960
H   -5.86994035041618     -7.61383059804164      0.00215798365757
H   5.78824962538815     -7.67633218931421      0.00281691445618
H   -3.75352693944918     -8.85107156923607     -0.00353718114765
H   -1.28430440589466     -8.86087539249706     -0.00809229711623
H   1.18922157469537     -8.87416062058945     -0.00706194725726
H   3.65854661482387     -8.89086063405326     -0.00231318081200

    units angstrom      # Angstroms are the default
    no_reorient         # Geometry fixed, default
    symmetry c1         # C1 symmetry, default
}

set {
    scf_type DF         # Density fitting, faster than exact integrals
    freeze_core True    # Freeze core electrons
    basis jun-cc-pVDZ   # Jun-cc-pVDZ basis set, recommended for sSAPT0 in https://doi.org/10.1063/1.4867135
}

energy('ssapt0')        # Compute sSAPT0 energy, includes also SAPT0
--------------------------------------------------------------------------

  //              Dimer HF             //
    Molecular point group: c1
  Charge       = 1
  Multiplicity = 1
  Basis Set: JUN-CC-PVDZ
    Blend: JUN-CC-PVDZ
  Basis Set: (JUN-CC-PVDZ AUX)
    Blend: JUN-CC-PVDZ-JKFIT
  @DF-RHF Final Energy: -3953.64230408815365
    Total Energy =                      -3953.6423040881527413
 Dipole X            :         -0.0019619            0.0004804           -0.0014815
 Dipole Y            :         -0.0487720            0.0561130            0.0073410
 Dipole Z            :         40.0341978          -55.2018632          -15.1676654
 Magnitude           :                                                   15.1676672
  //            Monomer A HF           //
    Molecular point group: c1
  Multiplicity = 1
  Basis Set: JUN-CC-PVDZ
    Blend: JUN-CC-PVDZ
  Basis Set: (JUN-CC-PVDZ AUX)
    Blend: JUN-CC-PVDZ-JKFIT
  @DF-RHF Final Energy:  -303.29717268445017
    Total Energy =                       -303.2971726844501745
  //            Monomer B HF           //
    Molecular point group: c1

    Geometry (in Angstrom), charge = 0, multiplicity = 1:

       Center              X                  Y                   Z               Mass
    ------------   -----------------  -----------------  -----------------  -----------------
      Gh(C)           0.680062820275    -0.008027535675    -9.899257387296    12.000000000000
      Gh(C)          -0.680508179725    -0.005999535675    -9.898873387296    12.000000000000
      Gh(N)          -1.085639179725    -0.005001535675    -8.580549387296    14.003074004430
      Gh(C)           0.000103820275    -0.001725535675    -7.799148387296    12.000000000000
      Gh(C)          -2.477369179725     0.044404464325    -8.112570387296    12.000000000000
      Gh(N)           1.085217820275    -0.005001535675    -8.580549387296    14.003074004430
      Gh(H)           1.385141820275    -0.015855535675   -10.716696387296     1.007825032230
      Gh(H)          -1.385306179725    -0.006189535675   -10.716542387296     1.007825032230
      Gh(H)          -0.000013179725     0.000021464325    -6.718059387296     1.007825032230
      Gh(C)           2.478112820275    -0.021893535675    -8.115451387296    12.000000000000
      Gh(H)           2.490587820275     0.005451464325    -7.025198387296     1.007825032230
      Gh(H)           2.967023820275    -0.935339535675    -8.462627387296     1.007825032230
      Gh(H)           3.001423820275     0.853589464325    -8.506923387296     1.007825032230
      Gh(H)          -2.857363179725     1.066475464325    -8.192529387296     1.007825032230
      Gh(H)          -3.082683179725    -0.625679535675    -8.725634387296     1.007825032230
      Gh(H)          -2.518132179725    -0.282579535675    -7.072622387296     1.007825032230
         C           -3.668445443746     7.803766634408     0.718571654040    12.000000000000
         C           -4.847602899072     7.131256295665     0.716205079107    12.000000000000
         C           -4.894963478901     5.696344867857     0.715632168009    12.000000000000
         C           -3.653744858499     4.980744805284     0.723292609739    12.000000000000
         C           -2.409429301220     7.113995501000     0.718765996300    12.000000000000
         C           -2.425481523830     5.681136415228     0.711761107430    12.000000000000
         C           -1.194748196161     7.786158658634     0.720238176842    12.000000000000
         C            0.037954849212     7.099436110082     0.718067472537    12.000000000000
         C            0.030328407694     5.669504024030     0.712584087621    12.000000000000
         C           -1.200988687630     4.969284812240     0.721553821555    12.000000000000
         C            1.277953646089     7.772873907520     0.719443321098    12.000000000000
         C            2.485353904999     7.087711349563     0.717168833193    12.000000000000
         C            2.486124505192     5.654785274566     0.710231084205    12.000000000000
         C            1.254078739919     4.956092577989     0.721859025793    12.000000000000
         C            3.751710411681     7.763926615305     0.717295684573    12.000000000000
         C            4.923561876460     7.078795241315     0.715239203865    12.000000000000
         C            4.955603091600     5.643461927694     0.715078791058    12.000000000000
         C            3.706797354479     4.941224672658     0.720170351228    12.000000000000
         H           -3.658525317484     8.890841883460     0.720256642290     1.007825032230
         H           -1.189217509482     8.874135551685     0.724210053283     1.007825032230
         H            1.284290059161     8.860847899813     0.723602145238     1.007825032230
         H            3.753537907074     8.851049743297     0.718818208889     1.007825032230
         H            5.869954523482     7.613809298981     0.714313836823     1.007825032230
         H           -5.788235887228     7.676316677259     0.714645231751     1.007825032230
         C           -6.091978138422     4.993274477968     0.713759927518    12.000000000000
         C           -6.128665660043     3.582594633123     0.714961104547    12.000000000000
         C           -3.664583919771     3.564196644069     0.712036009929    12.000000000000
         C           -4.894302384424     2.861095240226     0.721204994915    12.000000000000
         C           -2.437339174623     2.847626121410     0.723867788466    12.000000000000
         C           -1.209232037322     3.547901399303     0.710188761674    12.000000000000
         C            1.247137392437     3.534695215755     0.709380155269    12.000000000000
         C            0.015171859844     2.833126303630     0.721064338493    12.000000000000
         C            2.467640992715     2.821304441580     0.721164396617    12.000000000000
         C            3.702545294854     3.524674618749     0.707676435774    12.000000000000
         C            6.144976206658     4.927586830457     0.713845345846    12.000000000000
         C            6.166584179136     3.516598940267     0.716011899283    12.000000000000
         C            4.924605778734     2.808422389679     0.722550645520    12.000000000000
         H            7.089901329916     5.466902230548     0.710083464997     1.007825032230
         H           -7.031045930827     5.542702417183     0.709526712567     1.007825032230
         C           -7.339702220848     2.858425998905     0.713333937105    12.000000000000
         C           -7.364886137784     1.470337835908     0.715099475233    12.000000000000
         C           -4.903508788672     1.444441276485     0.710383211041    12.000000000000
         C           -6.132261332336     0.739953821379     0.722673255024    12.000000000000
         C           -3.676878980242     0.726711606998     0.721010927441    12.000000000000
         C           -2.445660765791     1.429655597587     0.710701217240    12.000000000000
         C           -1.223604861027     0.715338965960     0.722130481771    12.000000000000
         C            0.007633689588     1.417397613563     0.720596135489    12.000000000000
         C            1.231215628021     0.702131154912     0.701769549832    12.000000000000
         C            2.460816920806     1.403306500451     0.721274058723    12.000000000000
         C            3.684426074471     0.687212892537     0.720445272446    12.000000000000
         C            4.918704721813     1.391749025514     0.708043450810    12.000000000000
         C            7.369797898236     2.779496667509     0.714251479491    12.000000000000
         C            7.380158486396     1.391231972180     0.715798162336    12.000000000000
         C            6.139795359397     0.674133087526     0.722126504148    12.000000000000
         H           -8.279194979072     3.407132505449     0.709036384984     1.007825032230
         H            8.315109291754     3.318132560949     0.710040903691     1.007825032230
         C           -8.591760117307     0.724847017370     0.715439902850    12.000000000000
         C           -8.599028783429    -0.632625341904     0.717563027433    12.000000000000
         C           -6.139817318844    -0.674122172829     0.710573686098    12.000000000000
         C           -7.380188291863    -1.391251725257     0.717989747639    12.000000000000
         C           -4.918688659982    -1.391740553705     0.722914184248    12.000000000000
         C           -3.684442475410    -0.687222851411     0.711881944183    12.000000000000
         C           -2.460821219973    -1.403330714500     0.722425030373    12.000000000000
         C           -1.231166192046    -0.702159400556     0.710304651581    12.000000000000
         C           -0.007573805113    -1.417404385086     0.717761175884    12.000000000000
         C            1.223643536163    -0.715260912939     0.727766797833    12.000000000000
         C            2.445666469606    -1.429628824682     0.716016785073    12.000000000000
         C            3.676862523121    -0.726692967231     0.711876200678    12.000000000000
         C            6.132244666694    -0.739964375525     0.710348226466    12.000000000000
         C            4.903514965779    -1.444443056216     0.724189301006    12.000000000000
         C            8.599010668965     0.632618330993     0.715660278480    12.000000000000
         C            8.591741308375    -0.724836402868     0.717396658742    12.000000000000
         C            7.364858584664    -1.470318201281     0.717166482049    12.000000000000
         H           -9.528310151544     1.276861913518     0.713969975886     1.007825032230
         H            9.541406794881     1.174586952770     0.714608246219     1.007825032230
         C           -7.369842089494    -2.779530681609     0.719797956061    12.000000000000
         C           -4.924603288776    -2.808422793016     0.712066323625    12.000000000000
         C           -6.166626675393    -3.516637728500     0.718368163784    12.000000000000
         C           -3.702514539430    -3.524667084795     0.722390392811    12.000000000000
         C           -2.467651164839    -2.821311498479     0.710345754454    12.000000000000
         C           -0.015137653833    -2.833127181075     0.710627342963    12.000000000000
         C           -1.247126020952    -3.534717711238     0.722191296371    12.000000000000
         C            1.209240889918    -3.547900214319     0.724730326163    12.000000000000
         C            2.437331842429    -2.847627273850     0.710590567852    12.000000000000
         C            4.894298164045    -2.861108503961     0.711411307923    12.000000000000
         C            3.664611075316    -3.564205381207     0.724290727864    12.000000000000
         C            6.128634835020    -3.582569593393     0.717636569821    12.000000000000
         C            7.339668484970    -2.858398843045     0.719151795903    12.000000000000
         H           -9.541453290984    -1.174549002339     0.718932443606     1.007825032230
         H            9.528257688346    -1.276904609579     0.718646466503     1.007825032230
         H           -8.315169223574    -3.318135388887     0.723970184592     1.007825032230
         H            8.279150962767    -3.407126325569     0.723491351886     1.007825032230
         C           -6.144998368428    -4.927632808458     0.719694161844    12.000000000000
         C           -3.706787527723    -4.941247249792     0.709873193756    12.000000000000
         C           -4.955594237727    -5.643479509169     0.717840328401    12.000000000000
         C           -2.486125505952    -5.654771110084     0.722812864801    12.000000000000
         C           -1.254062515205    -4.956107585676     0.711637258815    12.000000000000
         C            1.201008394143    -4.969265923868     0.712818383073    12.000000000000
         C           -0.030340854139    -5.669505838814     0.720661582737    12.000000000000
         C            3.653745921603    -4.980729311090     0.713576382821    12.000000000000
         C            2.425488516150    -5.681160171202     0.722953313373    12.000000000000
         C            6.091961438086    -4.993243499062     0.719930796495    12.000000000000
         C            4.894972264885    -5.696333956633     0.718694600664    12.000000000000
         H           -7.089896567766    -5.466985377914     0.724096923525     1.007825032230
         H            7.031051029475    -5.542644072008     0.723510576258     1.007825032230
         C           -4.923549501924    -7.078806635352     0.717285559496    12.000000000000
         C           -2.485346267963    -7.087713613604     0.714775667060    12.000000000000
         C           -3.751690071504    -7.763932693311     0.714970345985    12.000000000000
         C           -0.037953136713    -7.099450410144     0.714991392208    12.000000000000
         C           -1.277960280127    -7.772889920342     0.713006699446    12.000000000000
         C            2.409440141001    -7.114007547678     0.715854593019    12.000000000000
         C            1.194745757428    -7.786170901237     0.713702302137    12.000000000000
         C            4.847616872773    -7.131247646254     0.718361407678    12.000000000000
         C            3.668467426150    -7.803773528619     0.716012973315    12.000000000000
         H           -5.869944530142    -7.613816133717     0.718829596362     1.007825032230
         H            5.788245445663    -7.676317724989     0.719488527160     1.007825032230
         H           -3.753531119175    -8.851057104911     0.713134431557     1.007825032230
         H           -1.284308585620    -8.860860928172     0.708579315588     1.007825032230
         H            1.189217394970    -8.874146156264     0.709609665447     1.007825032230
         H            3.658542435098    -8.890846169728     0.714358431892     1.007825032230

  Charge       = 0
  Multiplicity = 1
  Basis Set: JUN-CC-PVDZ
    Blend: JUN-CC-PVDZ
  Basis Set: (JUN-CC-PVDZ AUX)
    Blend: JUN-CC-PVDZ-JKFIT

    Orbital Energies [Eh]
    ---------------------

    Doubly Occupied:

       1A    -11.264046     2A    -11.263733     3A    -11.263731
       4A    -11.263391     5A    -11.263388     6A    -11.263353
       7A    -11.263196     8A    -11.263169     9A    -11.263167
      10A    -11.263010    11A    -11.262851    12A    -11.262846
      13A    -11.262368    14A    -11.262365    15A    -11.262290
      16A    -11.262289    17A    -11.262240    18A    -11.262203
      19A    -11.262158    20A    -11.262120    21A    -11.262118
      22A    -11.261963    23A    -11.261960    24A    -11.261840
      25A    -11.261825    26A    -11.261811    27A    -11.261807
      28A    -11.261760    29A    -11.261753    30A    -11.261680
      31A    -11.261654    32A    -11.261651    33A    -11.261625
      34A    -11.261623    35A    -11.261603    36A    -11.261555
      37A    -11.261415    38A    -11.261404    39A    -11.261397
      40A    -11.261390    41A    -11.261385    42A    -11.261377
      43A    -11.261373    44A    -11.261359    45A    -11.261354
      46A    -11.261331    47A    -11.261327    48A    -11.261323
      49A    -11.261171    50A    -11.261140    51A    -11.261138
      52A    -11.261057    53A    -11.261057    54A    -11.260986
      55A    -11.260016    56A    -11.260002    57A    -11.260000
      58A    -11.259971    59A    -11.259969    60A    -11.259953
      61A    -11.259394    62A    -11.259368    63A    -11.259366
      64A    -11.259314    65A    -11.259311    66A    -11.259283
      67A    -11.259020    68A    -11.259002    69A    -11.259000
      70A    -11.258973    71A    -11.258971    72A    -11.258959
      73A    -11.254589    74A    -11.254588    75A    -11.254587
      76A    -11.254584    77A    -11.254578    78A    -11.254575
      79A    -11.253739    80A    -11.253738    81A    -11.253735
      82A    -11.253734    83A    -11.253731    84A    -11.253726
      85A    -11.253655    86A    -11.253653    87A    -11.253650
      88A    -11.253649    89A    -11.253647    90A    -11.253641
      91A    -11.253117    92A    -11.253115    93A    -11.253115
      94A    -11.253112    95A    -11.253105    96A    -11.253103
      97A     -1.254135    98A     -1.239139    99A     -1.239139
     100A     -1.220582   101A     -1.220577   102A     -1.215611
     103A     -1.201143   104A     -1.195713   105A     -1.188299
     106A     -1.188298   107A     -1.173863   108A     -1.173861
     109A     -1.155772   110A     -1.155769   111A     -1.152879
     112A     -1.144817   113A     -1.144814   114A     -1.128695
     115A     -1.114854   116A     -1.113259   117A     -1.112640
     118A     -1.112626   119A     -1.111708   120A     -1.088557
     121A     -1.088542   122A     -1.077055   123A     -1.077054
     124A     -1.067751   125A     -1.067721   126A     -1.065122
     127A     -1.046916   128A     -1.046909   129A     -1.040605
     130A     -1.038828   131A     -1.038827   132A     -1.025390
     133A     -1.021562   134A     -1.021512   135A     -1.007288
     136A     -1.006931   137A     -1.003907   138A     -1.000632
     139A     -1.000584   140A     -0.991164   141A     -0.971121
     142A     -0.971072   143A     -0.955988   144A     -0.955933
     145A     -0.905759   146A     -0.905718   147A     -0.905635
     148A     -0.905595   149A     -0.904516   150A     -0.892530
     151A     -0.892471   152A     -0.890516   153A     -0.890459
     154A     -0.889589   155A     -0.872318   156A     -0.869132
     157A     -0.851646   158A     -0.848011   159A     -0.847989
     160A     -0.845747   161A     -0.843150   162A     -0.834681
     163A     -0.834668   164A     -0.828210   165A     -0.828207
     166A     -0.784671   167A     -0.784661   168A     -0.783799
     169A     -0.783773   170A     -0.782417   171A     -0.782397
     172A     -0.782181   173A     -0.767104   174A     -0.760952
     175A     -0.750729   176A     -0.733583   177A     -0.727187
     178A     -0.727173   179A     -0.725212   180A     -0.724654
     181A     -0.724635   182A     -0.718658   183A     -0.713919
     184A     -0.713913   185A     -0.699691   186A     -0.699679
     187A     -0.686290   188A     -0.686056   189A     -0.686053
     190A     -0.682278   191A     -0.682268   192A     -0.678915
     193A     -0.653745   194A     -0.650992   195A     -0.650962
     196A     -0.649967   197A     -0.649951   198A     -0.649664
     199A     -0.641086   200A     -0.641059   201A     -0.640188
     202A     -0.639253   203A     -0.636159   204A     -0.636132
     205A     -0.629258   206A     -0.617830   207A     -0.615398
     208A     -0.615378   209A     -0.608910   210A     -0.608903
     211A     -0.599186   212A     -0.599146   213A     -0.598868
     214A     -0.598741   215A     -0.598715   216A     -0.598196
     217A     -0.595165   218A     -0.595152   219A     -0.594837
     220A     -0.594399   221A     -0.592085   222A     -0.592082
     223A     -0.587555   224A     -0.577872   225A     -0.577862
     226A     -0.575730   227A     -0.575727   228A     -0.573485
     229A     -0.569560   230A     -0.568294   231A     -0.568270
     232A     -0.566874   233A     -0.566864   234A     -0.560992
     235A     -0.558852   236A     -0.558833   237A     -0.558509
     238A     -0.554485   239A     -0.550626   240A     -0.547551
     241A     -0.544336   242A     -0.535032   243A     -0.534994
     244A     -0.533649   245A     -0.533627   246A     -0.528175
     247A     -0.528160   248A     -0.527952   249A     -0.517314
     250A     -0.517280   251A     -0.515420   252A     -0.515415
     253A     -0.509738   254A     -0.509722   255A     -0.498132
     256A     -0.496564   257A     -0.496538   258A     -0.493838
     259A     -0.493828   260A     -0.489472   261A     -0.481546
     262A     -0.477483   263A     -0.477480   264A     -0.474098
     265A     -0.469565   266A     -0.466644   267A     -0.466639
     268A     -0.458872   269A     -0.446855   270A     -0.446794
     271A     -0.441095   272A     -0.440820   273A     -0.440796
     274A     -0.434751   275A     -0.433968   276A     -0.407443
     277A     -0.407419   278A     -0.386480   279A     -0.386431
     280A     -0.385792   281A     -0.385791   282A     -0.383824
     283A     -0.354394   284A     -0.354377   285A     -0.350732
     286A     -0.338161   287A     -0.335661   288A     -0.335592
     289A     -0.332774   290A     -0.332768   291A     -0.307157
     292A     -0.302020   293A     -0.301957   294A     -0.300907
     295A     -0.286236   296A     -0.256522   297A     -0.253571
     298A     -0.253519   299A     -0.204330   300A     -0.204240

  @DF-RHF Final Energy: -3650.33783009330318

   => Energetics <=

    Nuclear Repulsion Energy =          15611.4211649754306563
    One-Electron Energy =              -36072.0816858782272902
    Two-Electron Energy =               16810.3226908094948158
    Total Energy =                      -3650.3378300933036371
 Dipole X            :         -0.0010938            0.0002112           -0.0008826
 Dipole Y            :          0.0011020           -0.0013774           -0.0002754
 Dipole Z            :       -812.5915415          812.5912338           -0.0003077
 Magnitude           :                                                    0.0009744

    SAPT Results
  --------------------------------------------------------------------------------------------------------
    Electrostatics                 -5.88123199 [mEh]      -3.69052879 [kcal/mol]     -15.44117246 [kJ/mol]
      Elst10,r                     -5.88123199 [mEh]      -3.69052879 [kcal/mol]     -15.44117246 [kJ/mol]

    Exchange                       -0.00004084 [mEh]      -0.00002563 [kcal/mol]      -0.00010723 [kJ/mol]
      Exch10                       -0.00004084 [mEh]      -0.00002563 [kcal/mol]      -0.00010723 [kJ/mol]
      Exch10(S^2)                  -0.00004084 [mEh]      -0.00002563 [kcal/mol]      -0.00010723 [kJ/mol]

    Induction                      -1.42003757 [mEh]      -0.89108703 [kcal/mol]      -3.72830812 [kJ/mol]
      Ind20,r                      -1.40797947 [mEh]      -0.88352046 [kcal/mol]      -3.69664960 [kJ/mol]
      Exch-Ind20,r                  0.00001852 [mEh]       0.00001162 [kcal/mol]       0.00004862 [kJ/mol]
      delta HF,r (2)               -0.01207661 [mEh]      -0.00757819 [kcal/mol]      -0.03170714 [kJ/mol]

    Dispersion                     -0.44153419 [mEh]      -0.27706689 [kcal/mol]      -1.15924787 [kJ/mol]
      Disp20                       -0.44154132 [mEh]      -0.27707136 [kcal/mol]      -1.15926658 [kJ/mol]
      Exch-Disp20                   0.00000713 [mEh]       0.00000447 [kcal/mol]       0.00001872 [kJ/mol]
      Disp20 (SS)                  -0.22077066 [mEh]      -0.13853568 [kcal/mol]      -0.57963329 [kJ/mol]
      Disp20 (OS)                  -0.22077066 [mEh]      -0.13853568 [kcal/mol]      -0.57963329 [kJ/mol]
      Exch-Disp20 (SS)              0.00000532 [mEh]       0.00000334 [kcal/mol]       0.00001396 [kJ/mol]
      Exch-Disp20 (OS)              0.00000181 [mEh]       0.00000114 [kcal/mol]       0.00000476 [kJ/mol]

  Total HF                         -7.30131040 [mEh]      -4.58164145 [kcal/mol]     -19.16958781 [kJ/mol]
  Total SAPT0                      -7.74284459 [mEh]      -4.85870834 [kcal/mol]     -20.32883568 [kJ/mol]

  Special recipe for scaled SAPT0 (see Manual):
    Electrostatics sSAPT0          -5.88123199 [mEh]      -3.69052879 [kcal/mol]     -15.44117246 [kJ/mol]
    Exchange sSAPT0                -0.00004084 [mEh]      -0.00002563 [kcal/mol]      -0.00010723 [kJ/mol]
    Induction sSAPT0               -1.42003757 [mEh]      -0.89108703 [kcal/mol]      -3.72830812 [kJ/mol]
    Dispersion sSAPT0              -0.44153419 [mEh]      -0.27706689 [kcal/mol]      -1.15924787 [kJ/mol]
  Total sSAPT0                     -7.74284459 [mEh]      -4.85870834 [kcal/mol]     -20.32883568 [kJ/mol]
  --------------------------------------------------------------------------------------------------------

*** Psi4 exiting successfully. Buy a developer a beer!
