                               Psi4 1.9 release

  ==> Input File <==

--------------------------------------------------------------------------
memory 64 GB # how much memory is available ! Depends on the nodes/cores !

molecule dimer {
# monomer A
-1 1    # Charge and multiplicity
B -1.977592e-04  2.742729e-04 4.200034
F  1.123153e-16  1.430594e-17 5.612819
F  1.147860e+00  6.757812e-01 3.728893
F  1.191806e-02 -1.332011e+00 3.729095
F -1.159666e+00  6.560735e-01 3.729174
--
# monomer B
0 1     # Charge and multiplicity
C   -3.66844126402057      7.80375217008252      0.00190004133558
C   -4.84759871934653      7.13124183134024     -0.00046653359696
C   -4.89495929917518      5.69633040353158     -0.00103944469517
C   -3.65374067877320      4.98073034095895      0.00662099703436
C   -2.40942512149445      7.11398103667468      0.00209438359570
C   -2.42547734410473      5.68112195090346     -0.00491050527438
C   -1.19474401643570      7.78614419430947      0.00356656413763
C   0.03795902893699      7.09942164575698      0.00139585983271
C   0.03033258741920      5.66948955970466     -0.00408752508301
C   -1.20098450790502      4.96927034791531      0.00488220885047
C   1.27795782581485      7.77285944319479      0.00277170839332
C   2.48535808472416      7.08769688523756      0.00049722048857
C   2.48612868491717      5.65477081024076     -0.00644052849921
C   1.25408291964399      4.95607811366431      0.00518741308898
C   3.75171459140595      7.76391215098033      0.00062407186893
C   4.92356605618520      7.07878077698995     -0.00143240883900
C   4.95560727132542      5.64344746336949     -0.00159282164606
C   3.70680153420475      4.94121020833308      0.00349873852374
H   -3.65852113775815      8.89082741913536      0.00358502958574
H   -1.18921332975660      8.87412108735996      0.00753844057883
H   1.28429423888630      8.86083343548850      0.00693053253426
H   3.75354208679975      8.85103527897216      0.00214659618464
H   5.86995870320703      7.61379483465560     -0.00235777588134
H   -5.78823170750226      7.67630221293400     -0.00202638095293
C   -6.09197395869619      4.99326001364347     -0.00291168518608
C   -6.12866148031747      3.58258016879823     -0.00171050815740
C   -3.66457974004527      3.56418217974434     -0.00463560277484
C   -4.89429820469869      2.86108077590057      0.00453338221034
C   -2.43733499489796      2.84761165708481      0.00719617576166
C   -1.20922785759670      3.54788693497833     -0.00648285103018
C   1.24714157216223      3.53468075142962     -0.00729145743546
C   0.01517603956900      2.83311183930540      0.00439272578912
C   2.46764517244071      2.82128997725533      0.00449278391269
C   3.70254947457969      3.52466015442405     -0.00899517692985
C   6.14498038638375      4.92757236613191     -0.00282626685777
C   6.16658835886151      3.51658447594213     -0.00065971342101
C   4.92460995845939      2.80840792535402      0.00587903281610
H   7.08990550964105      5.46688776622306     -0.00658814770723
H   -7.03104175110130      5.54268795285765     -0.00714490013730
C   -7.33969804112295      2.85841153457957     -0.00333767559888
C   -7.36488195805880      1.47032337158330     -0.00157213747140
C   -4.90350460894690      1.44442681216000     -0.00628840166334
C   -6.13225715261081      0.73993935705394      0.00600164231964
C   -3.67687480051673      0.72669714267312      0.00433931473643
C   -2.44565658606518      1.42964113326212     -0.00597039546461
C   -1.22360068130162      0.71532450163492      0.00545886906656
C   0.00763786931376      1.41738314923765      0.00392452278437
C   1.23121980774686      0.70211669058719     -0.01490206287210
C   2.46082110053113      1.40329203612573      0.00460244601878
C   3.68443025419614      0.68719842821222      0.00377365974158
C   4.91870890153864      1.39173456118907     -0.00862816189375
C   7.36980207796101      2.77948220318441     -0.00242013321349
C   7.38016266612146      1.39121750785509     -0.00087345036788
C   6.13979953912259      0.67411862320065      0.00545489144369
H   -8.27919079934664      3.40711804112415     -0.00763522772059
H   8.31511347147953      3.31811809662368     -0.00663070901292
C   -8.59175593758115      0.72483255304480     -0.00123170985383
C   -8.59902460370342     -0.63263980622873      0.00089141472904
C   -6.13981313911873     -0.67413663715361     -0.00609792660607
C   -7.38018411213749     -1.39126618958160      0.00131813493501
C   -4.91868448025621     -1.39175501803000      0.00624257154343
C   -3.68443829568458     -0.68723731573599     -0.00478966852105
C   -2.46081704024768     -1.40334517882457      0.00575341766833
C   -1.23116201232071     -0.70217386488055     -0.00636696112346
C   -0.00756962538737     -1.41741884941102      0.00108956317991
C   1.22364771588843     -0.71527537726392      0.01109518512883
C   2.44567064933149     -1.42964328900682     -0.00065482763106
C   3.67686670284649     -0.72670743155550     -0.00479541202602
C   6.13224884641929     -0.73997883984993     -0.00632338623858
C   4.90351914550401     -1.44445752054090      0.00751768830159
C   8.59901484869081      0.63260386666793     -0.00101133422380
C   8.59174548810050     -0.72485086719319      0.00072504603735
C   7.36486276438985     -1.47033266560598      0.00049486934466
H   -9.52830597181814      1.27684744919284     -0.00270163681798
H   9.54141097460619      1.17457248844457     -0.00206336648518
C   -7.36983790976868     -2.77954514593389      0.00312634335708
C   -4.92459910905015     -2.80843725734101     -0.00460528907921
C   -6.16662249566744     -3.51665219282533      0.00169655107992
C   -3.70251035970491     -3.52468154912026      0.00571878010666
C   -2.46764698511392     -2.82132596280400     -0.00632585824990
C   -0.01513347410770     -2.83314164539971     -0.00604426974092
C   -1.24712184122656     -3.53473217556300      0.00551968366725
C   1.20924506964357     -3.54791467864352      0.00805871345849
C   2.43733602215464     -2.84764173817541     -0.00608104485234
C   4.89430234377080     -2.86112296828604     -0.00526030478103
C   3.66461525504104     -3.56421984553201      0.00761911515957
C   6.12863901474565     -3.58258405771778      0.00096495711699
C   7.33967266469532     -2.85841330737039      0.00248018319869
H   -9.54144911125902     -1.17456346666430      0.00226083090216
H   9.52826186807155     -1.27691907390448      0.00197485379837
H   -8.31516504384864     -3.31814985321231      0.00729857188773
H   8.27915514249207     -3.40714078989363      0.00681973918158
C   -6.14499418870218     -4.92764727278338      0.00302254913999
C   -3.70678334799751     -4.94126171411716     -0.00679841894792
C   -4.95559005800169     -5.64349397349412      0.00116871569699
C   -2.48612132622665     -5.65478557440947      0.00614125209662
C   -1.25405833548005     -4.95612205000132     -0.00503435388927
C   1.20101257386816     -4.96928038819302     -0.00385322963129
C   -0.03033667441341     -5.66952030313900      0.00398997003238
C   3.65375010132847     -4.98074377541453     -0.00309522988330
C   2.42549269587528     -5.68117463552727      0.00628170066869
C   6.09196561781097     -4.99325796338655      0.00325918379042
C   4.89497644461045     -5.69634842095790      0.00202298796027
H   -7.08989238804069     -5.46699984223871      0.00742531082125
H   7.03105520920009     -5.54265853633254      0.00683896355417
C   -4.92354532219813     -7.07882109967734      0.00061394679214
C   -2.48534208823777     -7.08772807792913     -0.00189594564379
C   -3.75168589177895     -7.76394715763627     -0.00170126671874
C   -0.03794895698805     -7.09946487446944     -0.00168022049625
C   -1.27795610040136     -7.77290438466689     -0.00366491325785
C   2.40944432072629     -7.11402201200282     -0.00081701968533
C   1.19474993715296     -7.78618536556242     -0.00296931056689
C   4.84762105249800     -7.13126211057943      0.00168979497423
C   3.66847160587561     -7.80378799294376     -0.00065863938960
H   -5.86994035041618     -7.61383059804164      0.00215798365757
H   5.78824962538815     -7.67633218931421      0.00281691445618
H   -3.75352693944918     -8.85107156923607     -0.00353718114765
H   -1.28430440589466     -8.86087539249706     -0.00809229711623
H   1.18922157469537     -8.87416062058945     -0.00706194725726
H   3.65854661482387     -8.89086063405326     -0.00231318081200

    units angstrom      # Angstroms are the default
    no_reorient         # Geometry fixed, default
    symmetry c1         # C1 symmetry, default
}

set {
    scf_type DF         # Density fitting, faster than exact integrals
    freeze_core True    # Freeze core electrons
    basis jun-cc-pVDZ   # Jun-cc-pVDZ basis set, recommended for sSAPT0 in https://doi.org/10.1063/1.4867135
}

energy('ssapt0')        # Compute sSAPT0 energy, includes also SAPT0
--------------------------------------------------------------------------

  //              Dimer HF             //
    Molecular point group: c1
  Charge       = -1
  Multiplicity = 1
  Basis Set: JUN-CC-PVDZ
    Blend: JUN-CC-PVDZ
  Basis Set: (JUN-CC-PVDZ AUX)
    Blend: JUN-CC-PVDZ-JKFIT
  @DF-RHF Final Energy: -4073.11231914234759
    Total Energy =                      -4073.1123191423466778
 Dipole X            :          0.0007529           -0.0000548            0.0006982
 Dipole Y            :          0.0012552           -0.0002464            0.0010088
 Dipole Z            :         19.0349250          -24.9952015           -5.9602766
 Magnitude           :                                                    5.9602767
  //            Monomer A HF           //
    Molecular point group: c1
  Multiplicity = 1
  Basis Set: JUN-CC-PVDZ
    Blend: JUN-CC-PVDZ
  Basis Set: (JUN-CC-PVDZ AUX)
    Blend: JUN-CC-PVDZ-JKFIT
  @DF-RHF Final Energy:  -422.77273144987834
    Total Energy =                       -422.7727314498783358
  //            Monomer B HF           //
    Molecular point group: c1

    Geometry (in Angstrom), charge = 0, multiplicity = 1:

       Center              X                  Y                   Z               Mass
    ------------   -----------------  -----------------  -----------------  -----------------
      Gh(B)          -0.000201921932     0.000288800891     3.910753680273    11.009305360000
      Gh(F)          -0.000004162732     0.000014527991     5.323538680273    18.998403162730
      Gh(F)           1.147855837268     0.675795727991     3.439612680273    18.998403162730
      Gh(F)           0.011913897268    -1.331996472009     3.439814680273    18.998403162730
      Gh(F)          -1.159670162732     0.656088027991     3.439893680273    18.998403162730
         C           -3.668445426752     7.803766698073    -0.287380278392    12.000000000000
         C           -4.847602882078     7.131256359331    -0.289746853324    12.000000000000
         C           -4.894963461907     5.696344931522    -0.290319764422    12.000000000000
         C           -3.653744841505     4.980744868950    -0.282659322693    12.000000000000
         C           -2.409429284226     7.113995564665    -0.287185936132    12.000000000000
         C           -2.425481506836     5.681136478894    -0.294190825002    12.000000000000
         C           -1.194748179167     7.786158722300    -0.285713755590    12.000000000000
         C            0.037954866205     7.099436173748    -0.287884459895    12.000000000000
         C            0.030328424687     5.669504087695    -0.293367844810    12.000000000000
         C           -1.200988670637     4.969284875906    -0.284398110877    12.000000000000
         C            1.277953663083     7.772873971185    -0.286508611334    12.000000000000
         C            2.485353921992     7.087711413228    -0.288783099239    12.000000000000
         C            2.486124522185     5.654785338231    -0.295720848226    12.000000000000
         C            1.254078756912     4.956092641655    -0.284092906638    12.000000000000
         C            3.751710428674     7.763926678971    -0.288656247858    12.000000000000
         C            4.923561893453     7.078795304981    -0.290712728566    12.000000000000
         C            4.955603108594     5.643461991360    -0.290873141373    12.000000000000
         C            3.706797371473     4.941224736324    -0.285781581204    12.000000000000
         H           -3.658525300490     8.890841947126    -0.285695290142     1.007825032230
         H           -1.189217492488     8.874135615351    -0.281741879148     1.007825032230
         H            1.284290076155     8.860847963479    -0.282349787193     1.007825032230
         H            3.753537924068     8.851049806963    -0.287133723543     1.007825032230
         H            5.869954540475     7.613809362646    -0.291638095609     1.007825032230
         H           -5.788235870234     7.676316740925    -0.291306700680     1.007825032230
         C           -6.091978121428     4.993274541634    -0.292192004913    12.000000000000
         C           -6.128665643049     3.582594696789    -0.290990827885    12.000000000000
         C           -3.664583902777     3.564196707735    -0.293915922502    12.000000000000
         C           -4.894302367430     2.861095303891    -0.284746937517    12.000000000000
         C           -2.437339157630     2.847626185075    -0.282084143966    12.000000000000
         C           -1.209232020328     3.547901462969    -0.295763170757    12.000000000000
         C            1.247137409430     3.534695279420    -0.296571777163    12.000000000000
         C            0.015171876837     2.833126367296    -0.284887593938    12.000000000000
         C            2.467641009709     2.821304505246    -0.284787535815    12.000000000000
         C            3.702545311848     3.524674682415    -0.298275496657    12.000000000000
         C            6.144976223652     4.927586894122    -0.292106586585    12.000000000000
         C            6.166584196130     3.516599003933    -0.289940033148    12.000000000000
         C            4.924605795728     2.808422453345    -0.283401286911    12.000000000000
         H            7.089901346909     5.466902294214    -0.295868467435     1.007825032230
         H           -7.031045913833     5.542702480848    -0.296425219865     1.007825032230
         C           -7.339702203855     2.858426062570    -0.292617995326    12.000000000000
         C           -7.364886120791     1.470337899574    -0.290852457199    12.000000000000
         C           -4.903508771679     1.444441340151    -0.295568721391    12.000000000000
         C           -6.132261315343     0.739953885044    -0.283278677408    12.000000000000
         C           -3.676878963248     0.726711670664    -0.284941004991    12.000000000000
         C           -2.445660748797     1.429655661253    -0.295250715192    12.000000000000
         C           -1.223604844033     0.715339029625    -0.283821450661    12.000000000000
         C            0.007633706582     1.417397677228    -0.285355796943    12.000000000000
         C            1.231215645015     0.702131218578    -0.304182382599    12.000000000000
         C            2.460816937799     1.403306564116    -0.284677873708    12.000000000000
         C            3.684426091464     0.687212956203    -0.285506659986    12.000000000000
         C            4.918704738807     1.391749089180    -0.297908481621    12.000000000000
         C            7.369797915229     2.779496731175    -0.291700452941    12.000000000000
         C            7.380158503390     1.391232035846    -0.290153770095    12.000000000000
         C            6.139795376391     0.674133151191    -0.283825428284    12.000000000000
         H           -8.279194962078     3.407132569115    -0.296915547448     1.007825032230
         H            8.315109308748     3.318132624614    -0.295911028740     1.007825032230
         C           -8.591760100313     0.724847081035    -0.290512029581    12.000000000000
         C           -8.599028766435    -0.632625278238    -0.288388904998    12.000000000000
         C           -6.139817301850    -0.674122109163    -0.295378246333    12.000000000000
         C           -7.380188274869    -1.391251661591    -0.287962184792    12.000000000000
         C           -4.918688642988    -1.391740490039    -0.283037748184    12.000000000000
         C           -3.684442458416    -0.687222787745    -0.294069988248    12.000000000000
         C           -2.460821202979    -1.403330650834    -0.283526902059    12.000000000000
         C           -1.231166175052    -0.702159336890    -0.295647280851    12.000000000000
         C           -0.007573788119    -1.417404321420    -0.288190756547    12.000000000000
         C            1.223643553157    -0.715260849273    -0.278185134598    12.000000000000
         C            2.445666486600    -1.429628761016    -0.289935147358    12.000000000000
         C            3.676862540115    -0.726692903565    -0.294075731753    12.000000000000
         C            6.132244683688    -0.739964311859    -0.295603705966    12.000000000000
         C            4.903514982772    -1.444442992550    -0.281762631426    12.000000000000
         C            8.599010685959     0.632618394658    -0.290291653951    12.000000000000
         C            8.591741325369    -0.724836339203    -0.288555273690    12.000000000000
         C            7.364858601658    -1.470318137615    -0.288785450383    12.000000000000
         H           -9.528310134550     1.276861977183    -0.291981956545     1.007825032230
         H            9.541406811874     1.174587016435    -0.291343686212     1.007825032230
         C           -7.369842072500    -2.779530617943    -0.286153976370    12.000000000000
         C           -4.924603271782    -2.808422729350    -0.293885608806    12.000000000000
         C           -6.166626658399    -3.516637664835    -0.287583768647    12.000000000000
         C           -3.702514522437    -3.524667021130    -0.283561539621    12.000000000000
         C           -2.467651147846    -2.821311434813    -0.295606177977    12.000000000000
         C           -0.015137636839    -2.833127117409    -0.295324589468    12.000000000000
         C           -1.247126003958    -3.534717647572    -0.283760636060    12.000000000000
         C            1.209240906912    -3.547900150653    -0.281221606269    12.000000000000
         C            2.437331859423    -2.847627210185    -0.295361364580    12.000000000000
         C            4.894298181039    -2.861108440295    -0.294540624508    12.000000000000
         C            3.664611092309    -3.564205317541    -0.281661204568    12.000000000000
         C            6.128634852014    -3.582569529727    -0.288315362610    12.000000000000
         C            7.339668501964    -2.858398779380    -0.286800136529    12.000000000000
         H           -9.541453273991    -1.174548938674    -0.287019488825     1.007825032230
         H            9.528257705340    -1.276904545914    -0.287305465929     1.007825032230
         H           -8.315169206580    -3.318135325222    -0.281981747840     1.007825032230
         H            8.279150979760    -3.407126261903    -0.282460580546     1.007825032230
         C           -6.144998351434    -4.927632744793    -0.286257770587    12.000000000000
         C           -3.706787510729    -4.941247186127    -0.296078738675    12.000000000000
         C           -4.955594220733    -5.643479445504    -0.288111604030    12.000000000000
         C           -2.486125488958    -5.654771046419    -0.283139067631    12.000000000000
         C           -1.254062498212    -4.956107522011    -0.294314673617    12.000000000000
         C            1.201008411136    -4.969265860202    -0.293133549359    12.000000000000
         C           -0.030340837145    -5.669505775148    -0.285290349695    12.000000000000
         C            3.653745938597    -4.980729247424    -0.292375549611    12.000000000000
         C            2.425488533144    -5.681160107537    -0.282998619059    12.000000000000
         C            6.091961455079    -4.993243435396    -0.286021135937    12.000000000000
         C            4.894972281879    -5.696333892967    -0.287257331767    12.000000000000
         H           -7.089896550772    -5.466985314248    -0.281855008906     1.007825032230
         H            7.031051046468    -5.542644008342    -0.282441356173     1.007825032230
         C           -4.923549484930    -7.078806571687    -0.288666372935    12.000000000000
         C           -2.485346250970    -7.087713549939    -0.291176265371    12.000000000000
         C           -3.751690054511    -7.763932629646    -0.290981586446    12.000000000000
         C           -0.037953119720    -7.099450346479    -0.290960540224    12.000000000000
         C           -1.277960263133    -7.772889856676    -0.292945232985    12.000000000000
         C            2.409440157995    -7.114007484012    -0.290097339413    12.000000000000
         C            1.194745774421    -7.786170837572    -0.292249630294    12.000000000000
         C            4.847616889766    -7.131247582589    -0.287590524753    12.000000000000
         C            3.668467443144    -7.803773464953    -0.289938959117    12.000000000000
         H           -5.869944513148    -7.613816070051    -0.287122336070     1.007825032230
         H            5.788245462656    -7.676317661324    -0.286463405271     1.007825032230
         H           -3.753531102181    -8.851057041246    -0.292817500875     1.007825032230
         H           -1.284308568626    -8.860860864507    -0.297372616844     1.007825032230
         H            1.189217411964    -8.874146092599    -0.296342266985     1.007825032230
         H            3.658542452092    -8.890846106063    -0.291593500539     1.007825032230

  Charge       = 0
  Multiplicity = 1
  Basis Set: JUN-CC-PVDZ
    Blend: JUN-CC-PVDZ
  Basis Set: (JUN-CC-PVDZ AUX)
    Blend: JUN-CC-PVDZ-JKFIT

    Orbital Energies [Eh]
    ---------------------

    Doubly Occupied:

       1A    -11.264071     2A    -11.263728     3A    -11.263726
       4A    -11.263332     5A    -11.263331     6A    -11.263293
       7A    -11.263145     8A    -11.263130     9A    -11.263123
      10A    -11.262910    11A    -11.262778    12A    -11.262773
      13A    -11.262286    14A    -11.262281    15A    -11.262239
      16A    -11.262234    17A    -11.262141    18A    -11.262128
      19A    -11.262088    20A    -11.262045    21A    -11.262042
      22A    -11.261923    23A    -11.261918    24A    -11.261774
      25A    -11.261763    26A    -11.261745    27A    -11.261739
      28A    -11.261698    29A    -11.261689    30A    -11.261595
      31A    -11.261576    32A    -11.261571    33A    -11.261550
      34A    -11.261546    35A    -11.261544    36A    -11.261525
      37A    -11.261347    38A    -11.261338    39A    -11.261332
      40A    -11.261326    41A    -11.261320    42A    -11.261316
      43A    -11.261303    44A    -11.261286    45A    -11.261282
      46A    -11.261258    47A    -11.261253    48A    -11.261248
      49A    -11.261077    50A    -11.261049    51A    -11.261043
      52A    -11.260973    53A    -11.260969    54A    -11.260911
      55A    -11.259932    56A    -11.259919    57A    -11.259916
      58A    -11.259887    59A    -11.259884    60A    -11.259869
      61A    -11.259304    62A    -11.259278    63A    -11.259275
      64A    -11.259223    65A    -11.259221    66A    -11.259191
      67A    -11.258935    68A    -11.258917    69A    -11.258914
      70A    -11.258887    71A    -11.258884    72A    -11.258873
      73A    -11.254538    74A    -11.254537    75A    -11.254533
      76A    -11.254531    77A    -11.254528    78A    -11.254526
      79A    -11.253670    80A    -11.253669    81A    -11.253664
      82A    -11.253662    83A    -11.253662    84A    -11.253659
      85A    -11.253586    86A    -11.253584    87A    -11.253580
      88A    -11.253578    89A    -11.253577    90A    -11.253574
      91A    -11.253066    92A    -11.253065    93A    -11.253061
      94A    -11.253059    95A    -11.253056    96A    -11.253054
      97A     -1.253947    98A     -1.239011    99A     -1.239008
     100A     -1.220479   101A     -1.220474   102A     -1.215442
     103A     -1.201056   104A     -1.195623   105A     -1.188148
     106A     -1.188144   107A     -1.173781   108A     -1.173778
     109A     -1.155637   110A     -1.155635   111A     -1.152718
     112A     -1.144739   113A     -1.144736   114A     -1.128579
     115A     -1.114725   116A     -1.113178   117A     -1.112487
     118A     -1.112471   119A     -1.111635   120A     -1.088440
     121A     -1.088425   122A     -1.076977   123A     -1.076975
     124A     -1.067626   125A     -1.067597   126A     -1.064977
     127A     -1.046815   128A     -1.046808   129A     -1.040492
     130A     -1.038750   131A     -1.038749   132A     -1.025250
     133A     -1.021389   134A     -1.021338   135A     -1.007196
     136A     -1.006826   137A     -1.003809   138A     -1.000498
     139A     -1.000450   140A     -0.991089   141A     -0.971001
     142A     -0.970952   143A     -0.955896   144A     -0.955841
     145A     -0.905597   146A     -0.905565   147A     -0.905555
     148A     -0.905524   149A     -0.904335   150A     -0.892375
     151A     -0.892315   152A     -0.890372   153A     -0.890315
     154A     -0.889467   155A     -0.872231   156A     -0.869070
     157A     -0.851554   158A     -0.847875   159A     -0.847854
     160A     -0.845605   161A     -0.843029   162A     -0.834578
     163A     -0.834565   164A     -0.828129   165A     -0.828125
     166A     -0.784560   167A     -0.784549   168A     -0.783669
     169A     -0.783642   170A     -0.782298   171A     -0.782277
     172A     -0.782040   173A     -0.767006   174A     -0.760798
     175A     -0.750576   176A     -0.733498   177A     -0.727083
     178A     -0.727069   179A     -0.725093   180A     -0.724554
     181A     -0.724536   182A     -0.718492   183A     -0.713778
     184A     -0.713771   185A     -0.699585   186A     -0.699572
     187A     -0.686122   188A     -0.685970   189A     -0.685966
     190A     -0.682186   191A     -0.682176   192A     -0.678776
     193A     -0.653631   194A     -0.650880   195A     -0.650850
     196A     -0.649816   197A     -0.649800   198A     -0.649577
     199A     -0.640929   200A     -0.640902   201A     -0.640100
     202A     -0.639175   203A     -0.636024   204A     -0.635997
     205A     -0.629151   206A     -0.617750   207A     -0.615315
     208A     -0.615295   209A     -0.608812   210A     -0.608805
     211A     -0.599129   212A     -0.599091   213A     -0.598748
     214A     -0.598615   215A     -0.598592   216A     -0.598035
     217A     -0.595078   218A     -0.595066   219A     -0.594729
     220A     -0.594235   221A     -0.591959   222A     -0.591956
     223A     -0.587390   224A     -0.577806   225A     -0.577796
     226A     -0.575674   227A     -0.575671   228A     -0.573392
     229A     -0.569586   230A     -0.568141   231A     -0.568117
     232A     -0.566759   233A     -0.566748   234A     -0.560923
     235A     -0.558720   236A     -0.558701   237A     -0.558437
     238A     -0.554374   239A     -0.550556   240A     -0.547484
     241A     -0.544267   242A     -0.535030   243A     -0.534993
     244A     -0.533542   245A     -0.533521   246A     -0.528086
     247A     -0.528070   248A     -0.527790   249A     -0.517161
     250A     -0.517127   251A     -0.515355   252A     -0.515349
     253A     -0.509651   254A     -0.509635   255A     -0.498035
     256A     -0.496456   257A     -0.496430   258A     -0.493801
     259A     -0.493787   260A     -0.489442   261A     -0.481460
     262A     -0.477420   263A     -0.477417   264A     -0.474001
     265A     -0.469446   266A     -0.466530   267A     -0.466526
     268A     -0.458800   269A     -0.446683   270A     -0.446623
     271A     -0.441034   272A     -0.440771   273A     -0.440748
     274A     -0.434687   275A     -0.433911   276A     -0.407373
     277A     -0.407349   278A     -0.386404   279A     -0.386356
     280A     -0.385732   281A     -0.385731   282A     -0.383748
     283A     -0.354314   284A     -0.354298   285A     -0.350656
     286A     -0.338102   287A     -0.335596   288A     -0.335523
     289A     -0.332712   290A     -0.332706   291A     -0.307057
     292A     -0.301937   293A     -0.301875   294A     -0.300848
     295A     -0.286173   296A     -0.256469   297A     -0.253495
     298A     -0.253442   299A     -0.204261   300A     -0.204172

  @DF-RHF Final Energy: -3650.33976487939572

   => Energetics <=

    Nuclear Repulsion Energy =          15611.4211649754324753
    One-Electron Energy =              -36072.1407834374185768
    Two-Electron Energy =               16810.3798535825917497
    Total Energy =                      -3650.3397648793943517
 Dipole X            :         -0.0004809            0.0002304           -0.0002504
 Dipole Y            :          0.0011966           -0.0013052           -0.0001086
 Dipole Z            :        327.9890616         -327.9929548           -0.0038931
 Magnitude           :                                                    0.0039027

    SAPT Results
  --------------------------------------------------------------------------------------------------------
    Electrostatics                 11.86728103 [mEh]       7.44683128 [kcal/mol]      31.15754206 [kJ/mol]
      Elst10,r                     11.86728103 [mEh]       7.44683128 [kcal/mol]      31.15754206 [kJ/mol]

    Exchange                        1.08331450 [mEh]       0.67979011 [kcal/mol]       2.84424183 [kJ/mol]
      Exch10                        1.08331450 [mEh]       0.67979011 [kcal/mol]       2.84424183 [kJ/mol]
      Exch10(S^2)                   1.08335798 [mEh]       0.67981740 [kcal/mol]       2.84435598 [kJ/mol]

    Induction                     -12.77340861 [mEh]      -8.01543491 [kcal/mol]     -33.53657968 [kJ/mol]
      Ind20,r                     -12.98393181 [mEh]      -8.14754022 [kcal/mol]     -34.08930827 [kJ/mol]
      Exch-Ind20,r                  0.23375093 [mEh]       0.14668092 [kcal/mol]       0.61371298 [kJ/mol]
      delta HF,r (2)               -0.02322773 [mEh]      -0.01457562 [kcal/mol]      -0.06098439 [kJ/mol]

    Dispersion                     -5.21167683 [mEh]      -3.27037658 [kcal/mol]     -13.68325563 [kJ/mol]
      Disp20                       -5.43609047 [mEh]      -3.41119827 [kcal/mol]     -14.27245357 [kJ/mol]
      Exch-Disp20                   0.22441364 [mEh]       0.14082169 [kcal/mol]       0.58919794 [kJ/mol]
      Disp20 (SS)                  -2.71804524 [mEh]      -1.70559914 [kcal/mol]      -7.13622678 [kJ/mol]
      Disp20 (OS)                  -2.71804524 [mEh]      -1.70559914 [kcal/mol]      -7.13622678 [kJ/mol]
      Exch-Disp20 (SS)              0.14443121 [mEh]       0.09063195 [kcal/mol]       0.37920410 [kJ/mol]
      Exch-Disp20 (OS)              0.07998243 [mEh]       0.05018973 [kcal/mol]       0.20999384 [kJ/mol]

  Total HF                          0.17718693 [mEh]       0.11118648 [kcal/mol]       0.46520421 [kJ/mol]
  Total SAPT0                      -5.03448990 [mEh]      -3.15919011 [kcal/mol]     -13.21805142 [kJ/mol]

  Special recipe for scaled SAPT0 (see Manual):
    Electrostatics sSAPT0          11.86728103 [mEh]       7.44683128 [kcal/mol]      31.15754206 [kJ/mol]
    Exchange sSAPT0                 1.08331450 [mEh]       0.67979011 [kcal/mol]       2.84424183 [kJ/mol]
    Induction sSAPT0              -12.77343675 [mEh]      -8.01545257 [kcal/mol]     -33.53665357 [kJ/mol]
    Dispersion sSAPT0              -5.21170385 [mEh]      -3.27039354 [kcal/mol]     -13.68332656 [kJ/mol]
  Total sSAPT0                     -5.03454506 [mEh]      -3.15922472 [kcal/mol]     -13.21819624 [kJ/mol]
  --------------------------------------------------------------------------------------------------------

*** Psi4 exiting successfully. Buy a developer a beer!
