                               Psi4 1.9 release

  ==> Input File <==

--------------------------------------------------------------------------
memory 47 GB # how much memory is available ! Depends on the nodes/cores !

molecule dimer {
# monomer A
+1 1    # Charge and multiplicity
C  0.680067 -1.215929 2.608042
C -0.680504 -1.215545 2.606014
N -1.085635  0.102779 2.605016
C  0.000108  0.884180 2.601740
C -2.477365  0.570758 2.555610
N  1.085222  0.102779 2.605016
H  1.385146 -2.033368 2.615870
H -1.385302 -2.033214 2.606204
H -0.000009  1.965269 2.599993
C  2.478117  0.567877 2.621908
H  2.490592  1.658130 2.594563
H  2.967028  0.220701 3.535354
H  3.001428  0.176405 1.746425
H -2.857359  0.490799 1.533539
H -3.082679 -0.042306 3.225694
H -2.518128  1.610706 2.882594
--
# monomer B
0 1     # Charge and multiplicity
C   -3.66844126402057      7.80375217008252      0.00190004133558
C   -4.84759871934653      7.13124183134024     -0.00046653359696
C   -4.89495929917518      5.69633040353158     -0.00103944469517
C   -3.65374067877320      4.98073034095895      0.00662099703436
C   -2.40942512149445      7.11398103667468      0.00209438359570
C   -2.42547734410473      5.68112195090346     -0.00491050527438
C   -1.19474401643570      7.78614419430947      0.00356656413763
C   0.03795902893699      7.09942164575698      0.00139585983271
C   0.03033258741920      5.66948955970466     -0.00408752508301
C   -1.20098450790502      4.96927034791531      0.00488220885047
C   1.27795782581485      7.77285944319479      0.00277170839332
C   2.48535808472416      7.08769688523756      0.00049722048857
C   2.48612868491717      5.65477081024076     -0.00644052849921
C   1.25408291964399      4.95607811366431      0.00518741308898
C   3.75171459140595      7.76391215098033      0.00062407186893
C   4.92356605618520      7.07878077698995     -0.00143240883900
C   4.95560727132542      5.64344746336949     -0.00159282164606
C   3.70680153420475      4.94121020833308      0.00349873852374
H   -3.65852113775815      8.89082741913536      0.00358502958574
H   -1.18921332975660      8.87412108735996      0.00753844057883
H   1.28429423888630      8.86083343548850      0.00693053253426
H   3.75354208679975      8.85103527897216      0.00214659618464
H   5.86995870320703      7.61379483465560     -0.00235777588134
H   -5.78823170750226      7.67630221293400     -0.00202638095293
C   -6.09197395869619      4.99326001364347     -0.00291168518608
C   -6.12866148031747      3.58258016879823     -0.00171050815740
C   -3.66457974004527      3.56418217974434     -0.00463560277484
C   -4.89429820469869      2.86108077590057      0.00453338221034
C   -2.43733499489796      2.84761165708481      0.00719617576166
C   -1.20922785759670      3.54788693497833     -0.00648285103018
C   1.24714157216223      3.53468075142962     -0.00729145743546
C   0.01517603956900      2.83311183930540      0.00439272578912
C   2.46764517244071      2.82128997725533      0.00449278391269
C   3.70254947457969      3.52466015442405     -0.00899517692985
C   6.14498038638375      4.92757236613191     -0.00282626685777
C   6.16658835886151      3.51658447594213     -0.00065971342101
C   4.92460995845939      2.80840792535402      0.00587903281610
H   7.08990550964105      5.46688776622306     -0.00658814770723
H   -7.03104175110130      5.54268795285765     -0.00714490013730
C   -7.33969804112295      2.85841153457957     -0.00333767559888
C   -7.36488195805880      1.47032337158330     -0.00157213747140
C   -4.90350460894690      1.44442681216000     -0.00628840166334
C   -6.13225715261081      0.73993935705394      0.00600164231964
C   -3.67687480051673      0.72669714267312      0.00433931473643
C   -2.44565658606518      1.42964113326212     -0.00597039546461
C   -1.22360068130162      0.71532450163492      0.00545886906656
C   0.00763786931376      1.41738314923765      0.00392452278437
C   1.23121980774686      0.70211669058719     -0.01490206287210
C   2.46082110053113      1.40329203612573      0.00460244601878
C   3.68443025419614      0.68719842821222      0.00377365974158
C   4.91870890153864      1.39173456118907     -0.00862816189375
C   7.36980207796101      2.77948220318441     -0.00242013321349
C   7.38016266612146      1.39121750785509     -0.00087345036788
C   6.13979953912259      0.67411862320065      0.00545489144369
H   -8.27919079934664      3.40711804112415     -0.00763522772059
H   8.31511347147953      3.31811809662368     -0.00663070901292
C   -8.59175593758115      0.72483255304480     -0.00123170985383
C   -8.59902460370342     -0.63263980622873      0.00089141472904
C   -6.13981313911873     -0.67413663715361     -0.00609792660607
C   -7.38018411213749     -1.39126618958160      0.00131813493501
C   -4.91868448025621     -1.39175501803000      0.00624257154343
C   -3.68443829568458     -0.68723731573599     -0.00478966852105
C   -2.46081704024768     -1.40334517882457      0.00575341766833
C   -1.23116201232071     -0.70217386488055     -0.00636696112346
C   -0.00756962538737     -1.41741884941102      0.00108956317991
C   1.22364771588843     -0.71527537726392      0.01109518512883
C   2.44567064933149     -1.42964328900682     -0.00065482763106
C   3.67686670284649     -0.72670743155550     -0.00479541202602
C   6.13224884641929     -0.73997883984993     -0.00632338623858
C   4.90351914550401     -1.44445752054090      0.00751768830159
C   8.59901484869081      0.63260386666793     -0.00101133422380
C   8.59174548810050     -0.72485086719319      0.00072504603735
C   7.36486276438985     -1.47033266560598      0.00049486934466
H   -9.52830597181814      1.27684744919284     -0.00270163681798
H   9.54141097460619      1.17457248844457     -0.00206336648518
C   -7.36983790976868     -2.77954514593389      0.00312634335708
C   -4.92459910905015     -2.80843725734101     -0.00460528907921
C   -6.16662249566744     -3.51665219282533      0.00169655107992
C   -3.70251035970491     -3.52468154912026      0.00571878010666
C   -2.46764698511392     -2.82132596280400     -0.00632585824990
C   -0.01513347410770     -2.83314164539971     -0.00604426974092
C   -1.24712184122656     -3.53473217556300      0.00551968366725
C   1.20924506964357     -3.54791467864352      0.00805871345849
C   2.43733602215464     -2.84764173817541     -0.00608104485234
C   4.89430234377080     -2.86112296828604     -0.00526030478103
C   3.66461525504104     -3.56421984553201      0.00761911515957
C   6.12863901474565     -3.58258405771778      0.00096495711699
C   7.33967266469532     -2.85841330737039      0.00248018319869
H   -9.54144911125902     -1.17456346666430      0.00226083090216
H   9.52826186807155     -1.27691907390448      0.00197485379837
H   -8.31516504384864     -3.31814985321231      0.00729857188773
H   8.27915514249207     -3.40714078989363      0.00681973918158
C   -6.14499418870218     -4.92764727278338      0.00302254913999
C   -3.70678334799751     -4.94126171411716     -0.00679841894792
C   -4.95559005800169     -5.64349397349412      0.00116871569699
C   -2.48612132622665     -5.65478557440947      0.00614125209662
C   -1.25405833548005     -4.95612205000132     -0.00503435388927
C   1.20101257386816     -4.96928038819302     -0.00385322963129
C   -0.03033667441341     -5.66952030313900      0.00398997003238
C   3.65375010132847     -4.98074377541453     -0.00309522988330
C   2.42549269587528     -5.68117463552727      0.00628170066869
C   6.09196561781097     -4.99325796338655      0.00325918379042
C   4.89497644461045     -5.69634842095790      0.00202298796027
H   -7.08989238804069     -5.46699984223871      0.00742531082125
H   7.03105520920009     -5.54265853633254      0.00683896355417
C   -4.92354532219813     -7.07882109967734      0.00061394679214
C   -2.48534208823777     -7.08772807792913     -0.00189594564379
C   -3.75168589177895     -7.76394715763627     -0.00170126671874
C   -0.03794895698805     -7.09946487446944     -0.00168022049625
C   -1.27795610040136     -7.77290438466689     -0.00366491325785
C   2.40944432072629     -7.11402201200282     -0.00081701968533
C   1.19474993715296     -7.78618536556242     -0.00296931056689
C   4.84762105249800     -7.13126211057943      0.00168979497423
C   3.66847160587561     -7.80378799294376     -0.00065863938960
H   -5.86994035041618     -7.61383059804164      0.00215798365757
H   5.78824962538815     -7.67633218931421      0.00281691445618
H   -3.75352693944918     -8.85107156923607     -0.00353718114765
H   -1.28430440589466     -8.86087539249706     -0.00809229711623
H   1.18922157469537     -8.87416062058945     -0.00706194725726
H   3.65854661482387     -8.89086063405326     -0.00231318081200

    units angstrom      # Angstroms are the default
    no_reorient         # Geometry fixed, default
    symmetry c1         # C1 symmetry, default
}

set {
    scf_type DF         # Density fitting, faster than exact integrals
    freeze_core True    # Freeze core electrons
    basis jun-cc-pVDZ   # Jun-cc-pVDZ basis set, recommended for sSAPT0 in https://doi.org/10.1063/1.4867135
}

energy('ssapt0')        # Compute sSAPT0 energy, includes also SAPT0
--------------------------------------------------------------------------

  //              Dimer HF             //
    Molecular point group: c1
  Charge       = 1
  Multiplicity = 1
  Basis Set: JUN-CC-PVDZ
    Blend: JUN-CC-PVDZ
  Basis Set: (JUN-CC-PVDZ AUX)
    Blend: JUN-CC-PVDZ-JKFIT
  @DF-RHF Final Energy: -3953.51226113616667
    Total Energy =                      -3953.5122611361657619
 Dipole X            :         -0.0109574            0.0004804           -0.0104770
 Dipole Y            :         -1.6969100            1.8866171            0.1897071
 Dipole Z            :        -13.2075119           15.7338066            2.5262948
 Magnitude           :                                                    2.5334293
  //            Monomer A HF           //
    Molecular point group: c1
  Multiplicity = 1
  Basis Set: JUN-CC-PVDZ
    Blend: JUN-CC-PVDZ
  Basis Set: (JUN-CC-PVDZ AUX)
    Blend: JUN-CC-PVDZ-JKFIT
  @DF-RHF Final Energy:  -303.30074851308632
    Total Energy =                       -303.3007485130863188
  //            Monomer B HF           //
    Molecular point group: c1

    Geometry (in Angstrom), charge = 0, multiplicity = 1:

       Center              X                  Y                   Z               Mass
    ------------   -----------------  -----------------  -----------------  -----------------
      Gh(C)           0.680062820275    -1.215917226251     2.409808972426    12.000000000000
      Gh(C)          -0.680508179725    -1.215533226251     2.407780972426    12.000000000000
      Gh(N)          -1.085639179725     0.102790773749     2.406782972426    14.003074004430
      Gh(C)           0.000103820275     0.884191773749     2.403506972426    12.000000000000
      Gh(C)          -2.477369179725     0.570769773749     2.357376972426    12.000000000000
      Gh(N)           1.085217820275     0.102790773749     2.406782972426    14.003074004430
      Gh(H)           1.385141820275    -2.033356226251     2.417636972426     1.007825032230
      Gh(H)          -1.385306179725    -2.033202226251     2.407970972426     1.007825032230
      Gh(H)          -0.000013179725     1.965280773749     2.401759972426     1.007825032230
      Gh(C)           2.478112820275     0.567888773749     2.423674972426    12.000000000000
      Gh(H)           2.490587820275     1.658141773750     2.396329972426     1.007825032230
      Gh(H)           2.967023820275     0.220712773749     3.337120972426     1.007825032230
      Gh(H)           3.001423820275     0.176416773749     1.548191972426     1.007825032230
      Gh(H)          -2.857363179725     0.490810773749     1.335305972426     1.007825032230
      Gh(H)          -3.082683179725    -0.042294226251     3.027460972426     1.007825032230
      Gh(H)          -2.518132179725     1.610717773749     2.684360972426     1.007825032230
         C           -3.668445443746     7.803763943832    -0.196332986238    12.000000000000
         C           -4.847602899072     7.131253605090    -0.198699561171    12.000000000000
         C           -4.894963478901     5.696342177281    -0.199272472269    12.000000000000
         C           -3.653744858499     4.980742114708    -0.191612030539    12.000000000000
         C           -2.409429301220     7.113992810424    -0.196138643978    12.000000000000
         C           -2.425481523830     5.681133724653    -0.203143532848    12.000000000000
         C           -1.194748196161     7.786155968059    -0.194666463436    12.000000000000
         C            0.037954849212     7.099433419506    -0.196837167741    12.000000000000
         C            0.030328407694     5.669501333454    -0.202320552657    12.000000000000
         C           -1.200988687630     4.969282121665    -0.193350818723    12.000000000000
         C            1.277953646089     7.772871216944    -0.195461319181    12.000000000000
         C            2.485353904999     7.087708658987    -0.197735807085    12.000000000000
         C            2.486124505192     5.654782583990    -0.204673556073    12.000000000000
         C            1.254078739919     4.956089887414    -0.193045614485    12.000000000000
         C            3.751710411681     7.763923924730    -0.197608955705    12.000000000000
         C            4.923561876460     7.078792550739    -0.199665436413    12.000000000000
         C            4.955603091600     5.643459237119    -0.199825849220    12.000000000000
         C            3.706797354479     4.941221982083    -0.194734289050    12.000000000000
         H           -3.658525317484     8.890839192885    -0.194647997988     1.007825032230
         H           -1.189217509482     8.874132861109    -0.190694586995     1.007825032230
         H            1.284290059161     8.860845209238    -0.191302495040     1.007825032230
         H            3.753537907074     8.851047052722    -0.196086431389     1.007825032230
         H            5.869954523482     7.613806608405    -0.200590803455     1.007825032230
         H           -5.788235887228     7.676313986684    -0.200259408527     1.007825032230
         C           -6.091978138422     4.993271787393    -0.201144712760    12.000000000000
         C           -6.128665660043     3.582591942548    -0.199943535731    12.000000000000
         C           -3.664583919771     3.564193953494    -0.202868630349    12.000000000000
         C           -4.894302384424     2.861092549650    -0.193699645364    12.000000000000
         C           -2.437339174623     2.847623430834    -0.191036851812    12.000000000000
         C           -1.209232037322     3.547898708728    -0.204715878604    12.000000000000
         C            1.247137392437     3.534692525179    -0.205524485009    12.000000000000
         C            0.015171859844     2.833123613055    -0.193840301785    12.000000000000
         C            2.467640992715     2.821301751005    -0.193740243661    12.000000000000
         C            3.702545294854     3.524671928174    -0.207228204504    12.000000000000
         C            6.144976206658     4.927584139881    -0.201059294432    12.000000000000
         C            6.166584179136     3.516596249692    -0.198892740995    12.000000000000
         C            4.924605778734     2.808419699104    -0.192353994758    12.000000000000
         H            7.089901329916     5.466899539973    -0.204821175281     1.007825032230
         H           -7.031045930827     5.542699726607    -0.205377927711     1.007825032230
         C           -7.339702220848     2.858423308329    -0.201570703173    12.000000000000
         C           -7.364886137784     1.470335145333    -0.199805165045    12.000000000000
         C           -4.903508788672     1.444438585909    -0.204521429237    12.000000000000
         C           -6.132261332336     0.739951130803    -0.192231385254    12.000000000000
         C           -3.676878980242     0.726708916423    -0.193893712837    12.000000000000
         C           -2.445660765791     1.429652907012    -0.204203423038    12.000000000000
         C           -1.223604861027     0.715336275384    -0.192774158507    12.000000000000
         C            0.007633689588     1.417394922987    -0.194308504789    12.000000000000
         C            1.231215628021     0.702128464337    -0.213135090446    12.000000000000
         C            2.460816920806     1.403303809875    -0.193630581555    12.000000000000
         C            3.684426074471     0.687210201962    -0.194459367832    12.000000000000
         C            4.918704721813     1.391746334939    -0.206861189468    12.000000000000
         C            7.369797898236     2.779493976934    -0.200653160787    12.000000000000
         C            7.380158486396     1.391229281605    -0.199106477942    12.000000000000
         C            6.139795359397     0.674130396950    -0.192778136130    12.000000000000
         H           -8.279194979072     3.407129814874    -0.205868255294     1.007825032230
         H            8.315109291754     3.318129870373    -0.204863736587     1.007825032230
         C           -8.591760117307     0.724844326794    -0.199464737428    12.000000000000
         C           -8.599028783429    -0.632628032479    -0.197341612845    12.000000000000
         C           -6.139817318844    -0.674124863404    -0.204330954180    12.000000000000
         C           -7.380188291863    -1.391254415832    -0.196914892639    12.000000000000
         C           -4.918688659982    -1.391743244281    -0.191990456030    12.000000000000
         C           -3.684442475410    -0.687225541986    -0.203022696095    12.000000000000
         C           -2.460821219973    -1.403333405075    -0.192479609906    12.000000000000
         C           -1.231166192046    -0.702162091131    -0.204599988697    12.000000000000
         C           -0.007573805113    -1.417407075662    -0.197143464394    12.000000000000
         C            1.223643536163    -0.715263603514    -0.187137842445    12.000000000000
         C            2.445666469606    -1.429631515257    -0.198887855205    12.000000000000
         C            3.676862523121    -0.726695657806    -0.203028439600    12.000000000000
         C            6.132244666694    -0.739967066100    -0.204556413812    12.000000000000
         C            4.903514965779    -1.444445746791    -0.190715339272    12.000000000000
         C            8.599010668965     0.632615640417    -0.199244361798    12.000000000000
         C            8.591741308375    -0.724839093444    -0.197507981537    12.000000000000
         C            7.364858584664    -1.470320891856    -0.197738158229    12.000000000000
         H           -9.528310151544     1.276859222942    -0.200934664392     1.007825032230
         H            9.541406794881     1.174584262194    -0.200296394059     1.007825032230
         C           -7.369842089494    -2.779533372184    -0.195106684217    12.000000000000
         C           -4.924603288776    -2.808425483592    -0.202838316653    12.000000000000
         C           -6.166626675393    -3.516640419076    -0.196536476494    12.000000000000
         C           -3.702514539430    -3.524669775371    -0.192514247467    12.000000000000
         C           -2.467651164839    -2.821314189055    -0.204558885824    12.000000000000
         C           -0.015137653833    -2.833129871650    -0.204277297315    12.000000000000
         C           -1.247126020952    -3.534720401814    -0.192713343907    12.000000000000
         C            1.209240889918    -3.547902904894    -0.190174314115    12.000000000000
         C            2.437331842429    -2.847629964426    -0.204314072426    12.000000000000
         C            4.894298164045    -2.861111194537    -0.203493332355    12.000000000000
         C            3.664611075316    -3.564208071783    -0.190613912414    12.000000000000
         C            6.128634835020    -3.582572283968    -0.197268070457    12.000000000000
         C            7.339668484970    -2.858401533621    -0.195752844375    12.000000000000
         H           -9.541453290984    -1.174551692915    -0.195972196672     1.007825032230
         H            9.528257688346    -1.276907300155    -0.196258173775     1.007825032230
         H           -8.315169223574    -3.318138079463    -0.190934455686     1.007825032230
         H            8.279150962767    -3.407129016144    -0.191413288392     1.007825032230
         C           -6.144998368428    -4.927635499034    -0.195210478434    12.000000000000
         C           -3.706787527723    -4.941249940368    -0.205031446522    12.000000000000
         C           -4.955594237727    -5.643482199745    -0.197064311877    12.000000000000
         C           -2.486125505952    -5.654773800660    -0.192091775477    12.000000000000
         C           -1.254062515205    -4.956110276252    -0.203267381463    12.000000000000
         C            1.201008394143    -4.969268614444    -0.202086257205    12.000000000000
         C           -0.030340854139    -5.669508529390    -0.194243057541    12.000000000000
         C            3.653745921603    -4.980732001665    -0.201328257457    12.000000000000
         C            2.425488516150    -5.681162861778    -0.191951326905    12.000000000000
         C            6.091961438086    -4.993246189637    -0.194973843783    12.000000000000
         C            4.894972264885    -5.696336647208    -0.196210039614    12.000000000000
         H           -7.089896567766    -5.466988068489    -0.190807716753     1.007825032230
         H            7.031051029475    -5.542646762583    -0.191394064020     1.007825032230
         C           -4.923549501924    -7.078809325928    -0.197619080782    12.000000000000
         C           -2.485346267963    -7.087716304180    -0.200128973218    12.000000000000
         C           -3.751690071504    -7.763935383887    -0.199934294293    12.000000000000
         C           -0.037953136713    -7.099453100720    -0.199913248070    12.000000000000
         C           -1.277960280127    -7.772892610917    -0.201897940832    12.000000000000
         C            2.409440141001    -7.114010238253    -0.199050047259    12.000000000000
         C            1.194745757428    -7.786173591813    -0.201202338141    12.000000000000
         C            4.847616872773    -7.131250336830    -0.196543232600    12.000000000000
         C            3.668467426150    -7.803776219194    -0.198891666963    12.000000000000
         H           -5.869944530142    -7.613818824292    -0.196075043916     1.007825032230
         H            5.788245445663    -7.676320415565    -0.195416113118     1.007825032230
         H           -3.753531119175    -8.851059795487    -0.201770208722     1.007825032230
         H           -1.284308585620    -8.860863618748    -0.206325324690     1.007825032230
         H            1.189217394970    -8.874148846840    -0.205294974831     1.007825032230
         H            3.658542435098    -8.890848860304    -0.200546208386     1.007825032230

  Charge       = 0
  Multiplicity = 1
  Basis Set: JUN-CC-PVDZ
    Blend: JUN-CC-PVDZ
  Basis Set: (JUN-CC-PVDZ AUX)
    Blend: JUN-CC-PVDZ-JKFIT

    Orbital Energies [Eh]
    ---------------------

    Doubly Occupied:

       1A    -11.264084     2A    -11.263719     3A    -11.263705
       4A    -11.263296     5A    -11.263275     6A    -11.263225
       7A    -11.263102     8A    -11.263083     9A    -11.263047
      10A    -11.262819    11A    -11.262711    12A    -11.262678
      13A    -11.262205    14A    -11.262201    15A    -11.262164
      16A    -11.262152    17A    -11.262018    18A    -11.262011
      19A    -11.261982    20A    -11.261921    21A    -11.261912
      22A    -11.261825    23A    -11.261824    24A    -11.261662
      25A    -11.261652    26A    -11.261621    27A    -11.261614
      28A    -11.261577    29A    -11.261565    30A    -11.261489
      31A    -11.261464    32A    -11.261442    33A    -11.261436
      34A    -11.261423    35A    -11.261411    36A    -11.261390
      37A    -11.261233    38A    -11.261223    39A    -11.261206
      40A    -11.261199    41A    -11.261190    42A    -11.261186
      43A    -11.261179    44A    -11.261160    45A    -11.261151
      46A    -11.261132    47A    -11.261118    48A    -11.261106
      49A    -11.260966    50A    -11.260942    51A    -11.260917
      52A    -11.260876    53A    -11.260868    54A    -11.260800
      55A    -11.259789    56A    -11.259763    57A    -11.259754
      58A    -11.259733    59A    -11.259720    60A    -11.259703
      61A    -11.259148    62A    -11.259118    63A    -11.259111
      64A    -11.259064    65A    -11.259056    66A    -11.259027
      67A    -11.258788    68A    -11.258761    69A    -11.258750
      70A    -11.258730    71A    -11.258717    72A    -11.258704
      73A    -11.254452    74A    -11.254445    75A    -11.254429
      76A    -11.254425    77A    -11.254425    78A    -11.254420
      79A    -11.253557    80A    -11.253533    81A    -11.253532
      82A    -11.253525    83A    -11.253520    84A    -11.253515
      85A    -11.253473    86A    -11.253444    87A    -11.253443
      88A    -11.253439    89A    -11.253436    90A    -11.253430
      91A    -11.252980    92A    -11.252972    93A    -11.252956
      94A    -11.252953    95A    -11.252952    96A    -11.252948
      97A     -1.253702    98A     -1.238793    99A     -1.238760
     100A     -1.220276   101A     -1.220261   102A     -1.215238
     103A     -1.200873   104A     -1.195426   105A     -1.187940
     106A     -1.187919   107A     -1.173604   108A     -1.173602
     109A     -1.155417   110A     -1.155410   111A     -1.152512
     112A     -1.144572   113A     -1.144570   114A     -1.128365
     115A     -1.114496   116A     -1.113015   117A     -1.112286
     118A     -1.112258   119A     -1.111476   120A     -1.088233
     121A     -1.088212   122A     -1.076818   123A     -1.076816
     124A     -1.067418   125A     -1.067378   126A     -1.064765
     127A     -1.046617   128A     -1.046604   129A     -1.040291
     130A     -1.038594   131A     -1.038587   132A     -1.025022
     133A     -1.021157   134A     -1.021094   135A     -1.007010
     136A     -1.006599   137A     -1.003623   138A     -1.000283
     139A     -1.000224   140A     -0.990940   141A     -0.970793
     142A     -0.970744   143A     -0.955727   144A     -0.955666
     145A     -0.905415   146A     -0.905371   147A     -0.905347
     148A     -0.905316   149A     -0.904081   150A     -0.892117
     151A     -0.892058   152A     -0.890139   153A     -0.890090
     154A     -0.889244   155A     -0.872066   156A     -0.868940
     157A     -0.851369   158A     -0.847643   159A     -0.847634
     160A     -0.845372   161A     -0.842798   162A     -0.834375
     163A     -0.834366   164A     -0.827978   165A     -0.827968
     166A     -0.784377   167A     -0.784366   168A     -0.783463
     169A     -0.783451   170A     -0.782088   171A     -0.782066
     172A     -0.781817   173A     -0.766799   174A     -0.760558
     175A     -0.750366   176A     -0.733332   177A     -0.726889
     178A     -0.726852   179A     -0.724878   180A     -0.724357
     181A     -0.724323   182A     -0.718261   183A     -0.713557
     184A     -0.713551   185A     -0.699402   186A     -0.699379
     187A     -0.685897   188A     -0.685787   189A     -0.685777
     190A     -0.681992   191A     -0.681983   192A     -0.678595
     193A     -0.653454   194A     -0.650691   195A     -0.650656
     196A     -0.649586   197A     -0.649582   198A     -0.649404
     199A     -0.640713   200A     -0.640668   201A     -0.639910
     202A     -0.638999   203A     -0.635822   204A     -0.635787
     205A     -0.628944   206A     -0.617720   207A     -0.615146
     208A     -0.615121   209A     -0.608620   210A     -0.608614
     211A     -0.599077   212A     -0.599043   213A     -0.598553
     214A     -0.598378   215A     -0.598362   216A     -0.597821
     217A     -0.594902   218A     -0.594887   219A     -0.594537
     220A     -0.593986   221A     -0.591756   222A     -0.591751
     223A     -0.587146   224A     -0.577665   225A     -0.577647
     226A     -0.575618   227A     -0.575610   228A     -0.573198
     229A     -0.569515   230A     -0.567930   231A     -0.567907
     232A     -0.566559   233A     -0.566551   234A     -0.560778
     235A     -0.558516   236A     -0.558470   237A     -0.558286
     238A     -0.554175   239A     -0.550476   240A     -0.547339
     241A     -0.544165   242A     -0.534938   243A     -0.534924
     244A     -0.533362   245A     -0.533347   246A     -0.527912
     247A     -0.527893   248A     -0.527552   249A     -0.516961
     250A     -0.516934   251A     -0.515246   252A     -0.515242
     253A     -0.509473   254A     -0.509461   255A     -0.497839
     256A     -0.496268   257A     -0.496222   258A     -0.493707
     259A     -0.493686   260A     -0.489368   261A     -0.481281
     262A     -0.477307   263A     -0.477302   264A     -0.473811
     265A     -0.469215   266A     -0.466318   267A     -0.466316
     268A     -0.458694   269A     -0.446429   270A     -0.446379
     271A     -0.440928   272A     -0.440688   273A     -0.440646
     274A     -0.434573   275A     -0.433794   276A     -0.407264
     277A     -0.407233   278A     -0.386244   279A     -0.386202
     280A     -0.385624   281A     -0.385619   282A     -0.383608
     283A     -0.354192   284A     -0.354167   285A     -0.350508
     286A     -0.337959   287A     -0.335456   288A     -0.335425
     289A     -0.332590   290A     -0.332581   291A     -0.306875
     292A     -0.301796   293A     -0.301740   294A     -0.300703
     295A     -0.286019   296A     -0.256371   297A     -0.253330
     298A     -0.253280   299A     -0.204113   300A     -0.204031

  @DF-RHF Final Energy: -3650.34379914086185

   => Energetics <=

    Nuclear Repulsion Energy =          15611.4211649754324753
    One-Electron Energy =              -36072.2445070598696475
    Two-Electron Energy =               16810.4795429435762344
    Total Energy =                      -3650.3437991408609378
 Dipole X            :         -0.0002723            0.0002112           -0.0000611
 Dipole Y            :          0.0007939           -0.0044281           -0.0036342
 Dipole Z            :        224.7621284         -224.7602868            0.0018417
 Magnitude           :                                                    0.0040747

    SAPT Results
  --------------------------------------------------------------------------------------------------------
    Electrostatics               -113.79607086 [mEh]     -71.40811255 [kcal/mol]    -298.77154289 [kJ/mol]
      Elst10,r                   -113.79607086 [mEh]     -71.40811255 [kcal/mol]    -298.77154289 [kJ/mol]

    Exchange                      297.14023011 [mEh]     186.45830944 [kcal/mol]     780.14156668 [kJ/mol]
      Exch10                      297.14023011 [mEh]     186.45830944 [kcal/mol]     780.14156668 [kJ/mol]
      Exch10(S^2)                 288.11374383 [mEh]     180.79410378 [kcal/mol]     756.44253022 [kJ/mol]

    Induction                     -51.05764147 [mEh]     -32.03915373 [kcal/mol]    -134.05181920 [kJ/mol]
      Ind20,r                    -158.45757603 [mEh]     -99.43363015 [kcal/mol]    -416.03030856 [kJ/mol]
      Exch-Ind20,r                120.66093300 [mEh]      75.71587857 [kcal/mol]     316.79523595 [kJ/mol]
      delta HF,r (2)              -13.26099843 [mEh]      -8.32140215 [kcal/mol]     -34.81674659 [kJ/mol]

    Dispersion                   -112.38024660 [mEh]     -70.51966940 [kcal/mol]    -295.05429679 [kJ/mol]
      Disp20                     -135.61631551 [mEh]     -85.10052278 [kcal/mol]    -356.06058732 [kJ/mol]
      Exch-Disp20                  23.23606891 [mEh]      14.58085338 [kcal/mol]      61.00629053 [kJ/mol]
      Disp20 (SS)                 -67.80815775 [mEh]     -42.55026139 [kcal/mol]    -178.03029366 [kJ/mol]
      Disp20 (OS)                 -67.80815775 [mEh]     -42.55026139 [kcal/mol]    -178.03029366 [kJ/mol]
      Exch-Disp20 (SS)             13.81488768 [mEh]       8.66897290 [kcal/mol]      36.27098260 [kJ/mol]
      Exch-Disp20 (OS)              9.42118124 [mEh]       5.91188048 [kcal/mol]      24.73530792 [kJ/mol]

  Total HF                        132.28651778 [mEh]      83.01104316 [kcal/mol]     347.31820459 [kJ/mol]
  Total SAPT0                      19.90627119 [mEh]      12.49137376 [kcal/mol]      52.26390780 [kJ/mol]

  Special recipe for scaled SAPT0 (see Manual):
    Electrostatics sSAPT0        -113.79607086 [mEh]     -71.40811255 [kcal/mol]    -298.77154289 [kJ/mol]
    Exchange sSAPT0               297.14023011 [mEh]     186.45830944 [kcal/mol]     780.14156668 [kJ/mol]
    Induction sSAPT0              -39.35785546 [mEh]     -24.69742717 [kcal/mol]    -103.33403527 [kJ/mol]
    Dispersion sSAPT0            -110.12718069 [mEh]     -69.10584921 [kcal/mol]    -289.13887307 [kJ/mol]
  Total sSAPT0                     33.85912309 [mEh]      21.24692052 [kcal/mol]      88.89711544 [kJ/mol]
  --------------------------------------------------------------------------------------------------------

*** Psi4 exiting successfully. Buy a developer a beer!
