                               Psi4 1.9 release

  ==> Input File <==

--------------------------------------------------------------------------
memory 32 GB # how much memory is available ! Depends on the nodes/cores !

molecule dimer {
# monomer A
+1 1    # Charge and multiplicity
C  0.680067 1.417258 -10.615929
C -0.680504 1.419286 -10.615545
N -1.085635 1.420284  -9.297221
C  0.000108 1.423560  -8.515820
C -2.477365 1.469690  -8.829242
N  1.085222 1.420284  -9.297221
H  1.385146 1.409430 -11.433368
H -1.385302 1.419096 -11.433214
H -0.000009 1.425307  -7.434731
C  2.478117 1.403392  -8.832123
H  2.490592 1.430737  -7.741870
H  2.967028 0.489946  -9.179299
H  3.001428 2.278875  -9.223595
H -2.857359 2.491761  -8.909201
H -3.082679 0.799606  -9.442306
H -2.518128 1.142706  -7.789294
--
# monomer B
0 1     # Charge and multiplicity
C   1.22531237526482      0.70753866091955      0.00613762728373
C   1.22532433589282     -0.70753852257020     -0.00619318228664
C   -0.00000567409046      1.41496628609039     -0.00672680580738
C   2.45644923379077      1.41832825917820      0.00902448468363
C   0.00001130712078     -1.41497612663474      0.00347275151708
C   -1.22530046906674      0.70754574598412      0.00838914760619
C   2.45643823516184     -1.41832293188077     -0.00843833914343
C   -0.00000085313587      2.83680140328112     -0.00913035594137
C   3.68182717731192      0.70931832800114     -0.00808954934571
C   2.45512052870677      2.83422403348893     -0.00819210630633
C   3.68182158506039     -0.70933346742900      0.00798293467272
C   -1.22531311884624     -0.70752714354401     -0.00512042085974
C   1.22670006104402      3.54346985599427      0.00816696660346
C   0.00000526469929     -2.83678176723568      0.00832091913869
C   -2.45643555300670      1.41831729028492      0.00842454345199
C   2.45512389762097     -2.83422965658853      0.00783102630520
C   -1.22671388474763      3.54346943575023      0.00827029982280
C   4.91451777504333      1.42717324448953     -0.00160886631602
C   3.69315067131765      3.54279566454522     -0.00155906667985
C   -2.45643712022637     -1.41831290883911     -0.00846337726810
C   1.22670532178455     -3.54347386990643     -0.00780316414624
C   -2.45512491866593      2.83421703463423     -0.00818572995999
C   4.91452486062398     -1.42718653794377      0.00136387641845
C   1.22142509354026      4.97013443726031      0.00150231067809
C   4.89300870916237      2.82518837202648     -0.00039219795739
C   -1.22669652864725     -3.54347062507680     -0.00753595973677
C   -3.68181849668397      0.70932533873199     -0.00807686886569
C   3.69314758099218     -3.54280096939050      0.00148176697923
C   -1.22143177215231      4.97012866986289      0.00168580605083
C   6.13477145276790      0.68054831910577     -0.00083909176631
C   3.65678936045204      4.97295361556775     -0.00065042889723
C   -2.45512642789169     -2.83421472106065      0.00758666850712
C   -3.68181869921921     -0.70932533146830      0.00810055625144
C   4.89301309775526     -2.82519973363176      0.00021895393805
C   -0.00000059327114      5.65044773803267      0.00045449734393
C   6.13477559217374     -0.68055448207492      0.00042622874941
C   2.47813196269732      5.65357712333155      0.00063835075260
C   1.22142288457925     -4.97012668293268     -0.00129718634452
C   -3.69316190412301      3.54279732619245     -0.00139355922051
C   -1.22142804110313     -4.97011793159564     -0.00140994817719
C   -4.91452132810043      1.42717581899491     -0.00153192130862
C   3.65678749952045     -4.97295485423912      0.00080007163680
C   -2.47813805026426      5.65357479452875      0.00092287576113
C   -3.69314125872231     -3.54278984697859      0.00136564082345
C   -4.91451200321153     -1.42718062802730      0.00139857359209
C   -0.00000552908399     -5.65043791501335      0.00005899322272
C   -4.89302000425900      2.82518897091939     -0.00040227981744
C   2.47812647313991     -5.65357317188818     -0.00029052915548
C   -3.65679823041642      4.97295655404175     -0.00047374852278
C   -4.89299899901461     -2.82519139505969      0.00006491824035
C   -2.47812801824129     -5.65356579800621     -0.00056571680280
C   -6.13477002348955      0.68054913825639     -0.00086464346868
C   -3.65678835334731     -4.97294365097028      0.00058578382008
C   -6.13476456307132     -0.68055354348201      0.00040575295444
H   5.83528897565761      3.36927626695423      0.00396712770529
H   7.07385965258860      1.22821762089947     -0.00037744837300
H   4.60066374401555      5.51238117445323     -0.00014522814529
H   5.83528386714679     -3.36930568472863     -0.00423551337640
H   -0.00001167146422      6.73853104613662     -0.00389474766392
H   7.07386165167227     -1.22822657074368     -0.00008250934481
H   2.47331421164041      6.74068466339473      0.00017162982210
H   4.60066897122302     -5.51237575717576      0.00039007446835
H   -2.47331820069565      6.74068209160650      0.00047297644710
H   -0.00000978838621     -6.73852780445195      0.00458867820736
H   -5.83530143450167      3.36927132229595      0.00410314985360
H   2.47330840367253     -6.74068500242887      0.00027980126949
H   -4.60067436136587      5.51237839860371      0.00002010017831
H   -5.83527902699321     -3.36928859177951     -0.00451481925734
H   -2.47329986759855     -6.74067870613986     -0.00016951527498
H   -7.07385728692578      1.22822084484047     -0.00046143985387
H   -4.60067330624313     -5.51236229778631      0.00021776644566
H   -7.07385645456741     -1.22822025997701     -0.00017736581114

    units angstrom      # Angstroms are the default
    no_reorient         # Geometry fixed, default
    symmetry c1         # C1 symmetry, default
}

set {
    scf_type DF         # Density fitting, faster than exact integrals
    freeze_core True    # Freeze core electrons
    basis jun-cc-pVDZ   # Jun-cc-pVDZ basis set, recommended for sSAPT0 in https://doi.org/10.1063/1.4867135
}

energy('ssapt0')        # Compute sSAPT0 energy, includes also SAPT0
--------------------------------------------------------------------------

  //              Dimer HF             //
    Molecular point group: c1
  Charge       = 1
  Multiplicity = 1
  Basis Set: JUN-CC-PVDZ
    Blend: JUN-CC-PVDZ
  Basis Set: (JUN-CC-PVDZ AUX)
    Blend: JUN-CC-PVDZ-JKFIT
  @DF-RHF Final Energy: -2359.19439942081999
    Total Energy =                      -2359.1943994208195363
 Dipole X            :         -0.0010906            0.0006313           -0.0004593
 Dipole Y            :         -5.4099931            7.4856329            2.0756398
 Dipole Z            :         32.6501645          -47.1123246          -14.4621601
 Magnitude           :                                                   14.6103509
  //            Monomer A HF           //
    Molecular point group: c1
  Multiplicity = 1
  Basis Set: JUN-CC-PVDZ
    Blend: JUN-CC-PVDZ
  Basis Set: (JUN-CC-PVDZ AUX)
    Blend: JUN-CC-PVDZ-JKFIT
  @DF-RHF Final Energy:  -303.29717092672422
    Total Energy =                       -303.2971709267242204
  //            Monomer B HF           //
    Molecular point group: c1

    Geometry (in Angstrom), charge = 0, multiplicity = 1:

       Center              X                  Y                   Z               Mass
    ------------   -----------------  -----------------  -----------------  -----------------
      Gh(C)           0.680066520158     1.235968212970    -9.420308946626    12.000000000000
      Gh(C)          -0.680504479842     1.237996212970    -9.419924946626    12.000000000000
      Gh(N)          -1.085635479842     1.238994212970    -8.101600946626    14.003074004430
      Gh(C)           0.000107520158     1.242270212970    -7.320199946626    12.000000000000
      Gh(C)          -2.477365479842     1.288400212970    -7.633621946626    12.000000000000
      Gh(N)           1.085221520158     1.238994212970    -8.101600946626    14.003074004430
      Gh(H)           1.385145520158     1.228140212970   -10.237747946626     1.007825032230
      Gh(H)          -1.385302479842     1.237806212970   -10.237593946626     1.007825032230
      Gh(H)          -0.000009479842     1.244017212970    -6.239110946626     1.007825032230
      Gh(C)           2.478116520158     1.222102212970    -7.636502946626    12.000000000000
      Gh(H)           2.490591520158     1.249447212970    -6.546249946626     1.007825032230
      Gh(H)           2.967027520158     0.308656212970    -7.983678946626     1.007825032230
      Gh(H)           3.001427520158     2.097585212970    -8.027974946626     1.007825032230
      Gh(H)          -2.857359479842     2.310471212970    -7.713580946626     1.007825032230
      Gh(H)          -3.082679479842     0.618316212970    -8.246685946626     1.007825032230
      Gh(H)          -2.518128479842     0.961416212970    -6.593673946626     1.007825032230
         C            1.225311895423     0.526248873889     1.201757680658    12.000000000000
         C            1.225323856051    -0.888828309601     1.189426871088    12.000000000000
         C           -0.000006153932     1.233676499060     1.188893247567    12.000000000000
         C            2.456448753949     1.237038472148     1.204644538058    12.000000000000
         C            0.000010827279    -1.596265913665     1.199092804891    12.000000000000
         C           -1.225300948908     0.526255958954     1.204009200980    12.000000000000
         C            2.456437755320    -1.599612718911     1.187181714231    12.000000000000
         C           -0.000001332978     2.655511616251     1.186489697433    12.000000000000
         C            3.681826697470     0.528028540971     1.187530504029    12.000000000000
         C            2.455120048865     2.652934246459     1.187427947068    12.000000000000
         C            3.681821105219    -0.890623254459     1.203602988047    12.000000000000
         C           -1.225313598688    -0.888816930574     1.190499632515    12.000000000000
         C            1.226699581202     3.362180068964     1.203787019978    12.000000000000
         C            0.000004784858    -3.018071554266     1.203940972513    12.000000000000
         C           -2.456436032848     1.237027503255     1.204044596826    12.000000000000
         C            2.455123417779    -3.015519443619     1.203451079679    12.000000000000
         C           -1.226714364589     3.362179648720     1.203890353197    12.000000000000
         C            4.914517295202     1.245883457459     1.194011187058    12.000000000000
         C            3.693150191476     3.361505877515     1.194060986694    12.000000000000
         C           -2.456437600068    -1.599602695869     1.187156676106    12.000000000000
         C            1.226704841943    -3.724763656937     1.187816889228    12.000000000000
         C           -2.455125398508     2.652927247604     1.187434323414    12.000000000000
         C            4.914524380782    -1.608476324974     1.196983929793    12.000000000000
         C            1.221424613699     4.788844650230     1.197122364052    12.000000000000
         C            4.893008229321     2.643898584996     1.195227855417    12.000000000000
         C           -1.226697008489    -3.724760412107     1.188084093637    12.000000000000
         C           -3.681818976526     0.528035551702     1.187543184509    12.000000000000
         C            3.693147101150    -3.724090756421     1.197101820353    12.000000000000
         C           -1.221432251994     4.788838882833     1.197305859425    12.000000000000
         C            6.134770972926     0.499258532075     1.194780961608    12.000000000000
         C            3.656788880610     4.791663828537     1.194969624477    12.000000000000
         C           -2.455126907733    -3.015504508091     1.203206721881    12.000000000000
         C           -3.681819179061    -0.890615118499     1.203720609626    12.000000000000
         C            4.893012617914    -3.006489520662     1.195839007312    12.000000000000
         C           -0.000001073113     5.469157951002     1.196074550718    12.000000000000
         C            6.134775112332    -0.861844269105     1.196046282124    12.000000000000
         C            2.478131482856     5.472287336301     1.196258404127    12.000000000000
         C            1.221422404738    -5.151416469963     1.194322867030    12.000000000000
         C           -3.693162383965     3.361507539162     1.194226494154    12.000000000000
         C           -1.221428520945    -5.151407718626     1.194210105197    12.000000000000
         C           -4.914521807942     1.245886031965     1.194088132066    12.000000000000
         C            3.656787019679    -5.154244641269     1.196420125011    12.000000000000
         C           -2.478138530106     5.472285007498     1.196542929135    12.000000000000
         C           -3.693141738564    -3.724079634009     1.196985694198    12.000000000000
         C           -4.914512483053    -1.608470415058     1.197018626966    12.000000000000
         C           -0.000006008926    -5.831727702044     1.195679046597    12.000000000000
         C           -4.893020484101     2.643899183889     1.195217773557    12.000000000000
         C            2.478125993298    -5.834862958919     1.195329524219    12.000000000000
         C           -3.656798710258     4.791666767011     1.195146304851    12.000000000000
         C           -4.892999478856    -3.006481182090     1.195684971615    12.000000000000
         C           -2.478128498083    -5.834855585037     1.195054336571    12.000000000000
         C           -6.134770503331     0.499259351226     1.194755409906    12.000000000000
         C           -3.656788833189    -5.154233438001     1.196205837194    12.000000000000
         C           -6.134765042913    -0.861843330512     1.196025806329    12.000000000000
         H            5.835288495816     3.187986479924     1.199587181080     1.007825032230
         H            7.073859172747     1.046927833869     1.195242605001     1.007825032230
         H            4.600663264174     5.331091387423     1.195474825229     1.007825032230
         H            5.835283387305    -3.550595471759     1.191384539998     1.007825032230
         H           -0.000012151306     6.557241259106     1.191725305710     1.007825032230
         H            7.073861171831    -1.409516357774     1.195537544029     1.007825032230
         H            2.473313731799     6.559394876364     1.195791683196     1.007825032230
         H            4.600668491381    -5.693665544206     1.196010127843     1.007825032230
         H           -2.473318680537     6.559392304576     1.196093029821     1.007825032230
         H           -0.000010268228    -6.919817591482     1.200208731582     1.007825032230
         H           -5.835301914343     3.187981535266     1.199723203228     1.007825032230
         H            2.473307923831    -6.921974789459     1.195899854644     1.007825032230
         H           -4.600674841208     5.331088611573     1.195640153553     1.007825032230
         H           -5.835279506835    -3.550578378810     1.191105234117     1.007825032230
         H           -2.473300347440    -6.921968493170     1.195450538099     1.007825032230
         H           -7.073857766768     1.046931057810     1.195158613520     1.007825032230
         H           -4.600673786085    -5.693652084817     1.195837819820     1.007825032230
         H           -7.073856934409    -1.409510047007     1.195442687563     1.007825032230

  Charge       = 0
  Multiplicity = 1
  Basis Set: JUN-CC-PVDZ
    Blend: JUN-CC-PVDZ
  Basis Set: (JUN-CC-PVDZ AUX)
    Blend: JUN-CC-PVDZ-JKFIT

    Orbital Energies [Eh]
    ---------------------

    Doubly Occupied:

       1A    -11.260680     2A    -11.260238     3A    -11.260235
       4A    -11.259526     5A    -11.259525     6A    -11.259355
       7A    -11.259146     8A    -11.259068     9A    -11.259067
      10A    -11.258743    11A    -11.258739    12A    -11.258669
      13A    -11.258607    14A    -11.258602    15A    -11.258599
      16A    -11.258570    17A    -11.258565    18A    -11.258548
      19A    -11.258535    20A    -11.258530    21A    -11.258524
      22A    -11.258427    23A    -11.258423    24A    -11.258126
      25A    -11.257465    26A    -11.257403    27A    -11.257402
      28A    -11.257268    29A    -11.257267    30A    -11.257183
      31A    -11.256560    32A    -11.256490    33A    -11.256489
      34A    -11.256380    35A    -11.256379    36A    -11.256332
      37A    -11.252405    38A    -11.252404    39A    -11.252403
      40A    -11.252401    41A    -11.252399    42A    -11.252397
      43A    -11.251540    44A    -11.251537    45A    -11.251536
      46A    -11.251531    47A    -11.251530    48A    -11.251526
      49A    -11.250967    50A    -11.250966    51A    -11.250964
      52A    -11.250962    53A    -11.250960    54A    -11.250959
      55A     -1.244305    56A     -1.220023    57A     -1.220021
      58A     -1.189730    59A     -1.189723    60A     -1.181175
      61A     -1.157729    62A     -1.149162    63A     -1.135714
      64A     -1.135707    65A     -1.113363    66A     -1.113358
      67A     -1.082637    68A     -1.082630    69A     -1.078821
      70A     -1.066146    71A     -1.066142    72A     -1.039587
      73A     -1.024499    74A     -1.022004    75A     -1.021961
      76A     -1.017895    77A     -1.012957    78A     -0.987230
      79A     -0.987184    80A     -0.962057    81A     -0.962007
      82A     -0.894476    83A     -0.894449    84A     -0.888176
      85A     -0.886422    86A     -0.886364    87A     -0.881609
      88A     -0.881562    89A     -0.862081    90A     -0.837558
      91A     -0.818399    92A     -0.816842    93A     -0.812349
      94A     -0.812340    95A     -0.794862    96A     -0.794852
      97A     -0.746848    98A     -0.745074    99A     -0.733643
     100A     -0.733634   101A     -0.732361   102A     -0.732338
     103A     -0.716710   104A     -0.699158   105A     -0.699147
     106A     -0.693785   107A     -0.693769   108A     -0.661408
     109A     -0.653344   110A     -0.651390   111A     -0.650425
     112A     -0.650419   113A     -0.639537   114A     -0.639535
     115A     -0.629923   116A     -0.627735   117A     -0.627719
     118A     -0.606462   119A     -0.605940   120A     -0.601876
     121A     -0.599928   122A     -0.599896   123A     -0.593832
     124A     -0.591465   125A     -0.591455   126A     -0.585426
     127A     -0.576422   128A     -0.576416   129A     -0.567485
     130A     -0.567471   131A     -0.566176   132A     -0.566156
     133A     -0.558951   134A     -0.555031   135A     -0.555025
     136A     -0.538768   137A     -0.538766   138A     -0.538294
     139A     -0.538288   140A     -0.529904   141A     -0.528210
     142A     -0.523059   143A     -0.523053   144A     -0.500676
     145A     -0.495724   146A     -0.493415   147A     -0.487953
     148A     -0.485275   149A     -0.481956   150A     -0.481949
     151A     -0.470444   152A     -0.470426   153A     -0.451263
     154A     -0.451185   155A     -0.439194   156A     -0.439185
     157A     -0.404876   158A     -0.404853   159A     -0.403496
     160A     -0.375549   161A     -0.375546   162A     -0.349253
     163A     -0.337723   164A     -0.336691   165A     -0.336633
     166A     -0.311230   167A     -0.298216   168A     -0.284487
     169A     -0.284434   170A     -0.225055   171A     -0.224989

  @DF-RHF Final Energy: -2055.89159451294927

   => Energetics <=

    Nuclear Repulsion Energy =           6452.5568002797781446
    One-Electron Energy =              -15636.4237540318572428
    Two-Electron Energy =                7127.9753592391307393
    Total Energy =                      -2055.8915945129492684
 Dipole X            :          0.0001051           -0.0000085            0.0000966
 Dipole Y            :        117.1648884         -117.1648546            0.0000338
 Dipole Z            :       -772.7112331          772.7114593            0.0002262
 Magnitude           :                                                    0.0002483

    SAPT Results
  --------------------------------------------------------------------------------------------------------
    Electrostatics                 -4.64765913 [mEh]      -2.91645014 [kcal/mol]     -12.20242737 [kJ/mol]
      Elst10,r                     -4.64765913 [mEh]      -2.91645014 [kcal/mol]     -12.20242737 [kJ/mol]

    Exchange                       -0.00003096 [mEh]      -0.00001943 [kcal/mol]      -0.00008128 [kJ/mol]
      Exch10                       -0.00003096 [mEh]      -0.00001943 [kcal/mol]      -0.00008128 [kJ/mol]
      Exch10(S^2)                  -0.00003096 [mEh]      -0.00001943 [kcal/mol]      -0.00008128 [kJ/mol]

    Induction                      -0.98629106 [mEh]      -0.61890698 [kcal/mol]      -2.58950681 [kJ/mol]
      Ind20,r                      -0.97785137 [mEh]      -0.61361100 [kcal/mol]      -2.56734841 [kJ/mol]
      Exch-Ind20,r                  0.00001056 [mEh]       0.00000663 [kcal/mol]       0.00002772 [kJ/mol]
      delta HF,r (2)               -0.00845025 [mEh]      -0.00530261 [kcal/mol]      -0.02218612 [kJ/mol]

    Dispersion                     -0.32600278 [mEh]      -0.20456983 [kcal/mol]      -0.85592018 [kJ/mol]
      Disp20                       -0.32600744 [mEh]      -0.20457276 [kcal/mol]      -0.85593241 [kJ/mol]
      Exch-Disp20                   0.00000466 [mEh]       0.00000292 [kcal/mol]       0.00001223 [kJ/mol]
      Disp20 (SS)                  -0.16300372 [mEh]      -0.10228638 [kcal/mol]      -0.42796621 [kJ/mol]
      Disp20 (OS)                  -0.16300372 [mEh]      -0.10228638 [kcal/mol]      -0.42796621 [kJ/mol]
      Exch-Disp20 (SS)              0.00000342 [mEh]       0.00000215 [kcal/mol]       0.00000899 [kJ/mol]
      Exch-Disp20 (OS)              0.00000123 [mEh]       0.00000077 [kcal/mol]       0.00000324 [kJ/mol]

  Total HF                         -5.63398115 [mEh]      -3.53537654 [kcal/mol]     -14.79201546 [kJ/mol]
  Total SAPT0                      -5.95998393 [mEh]      -3.73994638 [kcal/mol]     -15.64793564 [kJ/mol]

  Special recipe for scaled SAPT0 (see Manual):
    Electrostatics sSAPT0          -4.64765913 [mEh]      -2.91645014 [kcal/mol]     -12.20242737 [kJ/mol]
    Exchange sSAPT0                -0.00003096 [mEh]      -0.00001943 [kcal/mol]      -0.00008128 [kJ/mol]
    Induction sSAPT0               -0.98629106 [mEh]      -0.61890698 [kcal/mol]      -2.58950681 [kJ/mol]
    Dispersion sSAPT0              -0.32600278 [mEh]      -0.20456983 [kcal/mol]      -0.85592018 [kJ/mol]
  Total sSAPT0                     -5.95998393 [mEh]      -3.73994638 [kcal/mol]     -15.64793564 [kJ/mol]
  --------------------------------------------------------------------------------------------------------

*** Psi4 exiting successfully. Buy a developer a beer!
