                               Psi4 1.9 release

  ==> Input File <==

--------------------------------------------------------------------------
memory 32 GB # how much memory is available ! Depends on the nodes/cores !

molecule dimer {
# monomer A
+1 1    # Charge and multiplicity
C  0.680067 -0.008042 -8.415929
C -0.680504 -0.006014 -8.415545
N -1.085635 -0.005016 -7.097221
C  0.000108 -0.001740 -6.315820
C -2.477365  0.044390 -6.629242
N  1.085222 -0.005016 -7.097221
H  1.385146 -0.015870 -9.233368
H -1.385302 -0.006204 -9.233214
H -0.000009  0.000007 -5.234731
C  2.478117 -0.021908 -6.632123
H  2.490592  0.005437 -5.541870
H  2.967028 -0.935354 -6.979299
H  3.001428  0.853575 -7.023595
H -2.857359  1.066461 -6.709201
H -3.082679 -0.625694 -7.242306
H -2.518128 -0.282594 -5.589294
--
# monomer B
0 1     # Charge and multiplicity
C   1.22531237526482      0.70753866091955      0.00613762728373
C   1.22532433589282     -0.70753852257020     -0.00619318228664
C   -0.00000567409046      1.41496628609039     -0.00672680580738
C   2.45644923379077      1.41832825917820      0.00902448468363
C   0.00001130712078     -1.41497612663474      0.00347275151708
C   -1.22530046906674      0.70754574598412      0.00838914760619
C   2.45643823516184     -1.41832293188077     -0.00843833914343
C   -0.00000085313587      2.83680140328112     -0.00913035594137
C   3.68182717731192      0.70931832800114     -0.00808954934571
C   2.45512052870677      2.83422403348893     -0.00819210630633
C   3.68182158506039     -0.70933346742900      0.00798293467272
C   -1.22531311884624     -0.70752714354401     -0.00512042085974
C   1.22670006104402      3.54346985599427      0.00816696660346
C   0.00000526469929     -2.83678176723568      0.00832091913869
C   -2.45643555300670      1.41831729028492      0.00842454345199
C   2.45512389762097     -2.83422965658853      0.00783102630520
C   -1.22671388474763      3.54346943575023      0.00827029982280
C   4.91451777504333      1.42717324448953     -0.00160886631602
C   3.69315067131765      3.54279566454522     -0.00155906667985
C   -2.45643712022637     -1.41831290883911     -0.00846337726810
C   1.22670532178455     -3.54347386990643     -0.00780316414624
C   -2.45512491866593      2.83421703463423     -0.00818572995999
C   4.91452486062398     -1.42718653794377      0.00136387641845
C   1.22142509354026      4.97013443726031      0.00150231067809
C   4.89300870916237      2.82518837202648     -0.00039219795739
C   -1.22669652864725     -3.54347062507680     -0.00753595973677
C   -3.68181849668397      0.70932533873199     -0.00807686886569
C   3.69314758099218     -3.54280096939050      0.00148176697923
C   -1.22143177215231      4.97012866986289      0.00168580605083
C   6.13477145276790      0.68054831910577     -0.00083909176631
C   3.65678936045204      4.97295361556775     -0.00065042889723
C   -2.45512642789169     -2.83421472106065      0.00758666850712
C   -3.68181869921921     -0.70932533146830      0.00810055625144
C   4.89301309775526     -2.82519973363176      0.00021895393805
C   -0.00000059327114      5.65044773803267      0.00045449734393
C   6.13477559217374     -0.68055448207492      0.00042622874941
C   2.47813196269732      5.65357712333155      0.00063835075260
C   1.22142288457925     -4.97012668293268     -0.00129718634452
C   -3.69316190412301      3.54279732619245     -0.00139355922051
C   -1.22142804110313     -4.97011793159564     -0.00140994817719
C   -4.91452132810043      1.42717581899491     -0.00153192130862
C   3.65678749952045     -4.97295485423912      0.00080007163680
C   -2.47813805026426      5.65357479452875      0.00092287576113
C   -3.69314125872231     -3.54278984697859      0.00136564082345
C   -4.91451200321153     -1.42718062802730      0.00139857359209
C   -0.00000552908399     -5.65043791501335      0.00005899322272
C   -4.89302000425900      2.82518897091939     -0.00040227981744
C   2.47812647313991     -5.65357317188818     -0.00029052915548
C   -3.65679823041642      4.97295655404175     -0.00047374852278
C   -4.89299899901461     -2.82519139505969      0.00006491824035
C   -2.47812801824129     -5.65356579800621     -0.00056571680280
C   -6.13477002348955      0.68054913825639     -0.00086464346868
C   -3.65678835334731     -4.97294365097028      0.00058578382008
C   -6.13476456307132     -0.68055354348201      0.00040575295444
H   5.83528897565761      3.36927626695423      0.00396712770529
H   7.07385965258860      1.22821762089947     -0.00037744837300
H   4.60066374401555      5.51238117445323     -0.00014522814529
H   5.83528386714679     -3.36930568472863     -0.00423551337640
H   -0.00001167146422      6.73853104613662     -0.00389474766392
H   7.07386165167227     -1.22822657074368     -0.00008250934481
H   2.47331421164041      6.74068466339473      0.00017162982210
H   4.60066897122302     -5.51237575717576      0.00039007446835
H   -2.47331820069565      6.74068209160650      0.00047297644710
H   -0.00000978838621     -6.73852780445195      0.00458867820736
H   -5.83530143450167      3.36927132229595      0.00410314985360
H   2.47330840367253     -6.74068500242887      0.00027980126949
H   -4.60067436136587      5.51237839860371      0.00002010017831
H   -5.83527902699321     -3.36928859177951     -0.00451481925734
H   -2.47329986759855     -6.74067870613986     -0.00016951527498
H   -7.07385728692578      1.22822084484047     -0.00046143985387
H   -4.60067330624313     -5.51236229778631      0.00021776644566
H   -7.07385645456741     -1.22822025997701     -0.00017736581114

    units angstrom      # Angstroms are the default
    no_reorient         # Geometry fixed, default
    symmetry c1         # C1 symmetry, default
}

set {
    scf_type DF         # Density fitting, faster than exact integrals
    freeze_core True    # Freeze core electrons
    basis jun-cc-pVDZ   # Jun-cc-pVDZ basis set, recommended for sSAPT0 in https://doi.org/10.1063/1.4867135
}

energy('ssapt0')        # Compute sSAPT0 energy, includes also SAPT0
--------------------------------------------------------------------------

  //              Dimer HF             //
    Molecular point group: c1
  Charge       = 1
  Multiplicity = 1
  Basis Set: JUN-CC-PVDZ
    Blend: JUN-CC-PVDZ
  Basis Set: (JUN-CC-PVDZ AUX)
    Blend: JUN-CC-PVDZ-JKFIT
  @DF-RHF Final Energy: -2359.19928468193166
    Total Energy =                      -2359.1992846819321130
 Dipole X            :         -0.0012450            0.0006313           -0.0006137
 Dipole Y            :         -0.0481068            0.0560211            0.0079143
 Dipole Z            :         25.1008531          -35.6444609          -10.5436079
 Magnitude           :                                                   10.5436109
  //            Monomer A HF           //
    Molecular point group: c1
  Multiplicity = 1
  Basis Set: JUN-CC-PVDZ
    Blend: JUN-CC-PVDZ
  Basis Set: (JUN-CC-PVDZ AUX)
    Blend: JUN-CC-PVDZ-JKFIT
  @DF-RHF Final Energy:  -303.29724664516363
    Total Energy =                       -303.2972466451636251
  //            Monomer B HF           //
    Molecular point group: c1

    Geometry (in Angstrom), charge = 0, multiplicity = 1:

       Center              X                  Y                   Z               Mass
    ------------   -----------------  -----------------  -----------------  -----------------
      Gh(C)           0.680066520158    -0.008042372515    -7.500135447667    12.000000000000
      Gh(C)          -0.680504479842    -0.006014372515    -7.499751447667    12.000000000000
      Gh(N)          -1.085635479842    -0.005016372515    -6.181427447667    14.003074004430
      Gh(C)           0.000107520158    -0.001740372515    -5.400026447667    12.000000000000
      Gh(C)          -2.477365479842     0.044389627485    -5.713448447667    12.000000000000
      Gh(N)           1.085221520158    -0.005016372515    -6.181427447667    14.003074004430
      Gh(H)           1.385145520158    -0.015870372515    -8.317574447667     1.007825032230
      Gh(H)          -1.385302479842    -0.006204372515    -8.317420447667     1.007825032230
      Gh(H)          -0.000009479842     0.000006627485    -4.318937447667     1.007825032230
      Gh(C)           2.478116520158    -0.021908372515    -5.716329447667    12.000000000000
      Gh(H)           2.490591520158     0.005436627485    -4.626076447667     1.007825032230
      Gh(H)           2.967027520158    -0.935354372515    -6.063505447667     1.007825032230
      Gh(H)           3.001427520158     0.853574627485    -6.107801447667     1.007825032230
      Gh(H)          -2.857359479842     1.066460627485    -5.793407447667     1.007825032230
      Gh(H)          -3.082679479842    -0.625694372515    -6.326512447667     1.007825032230
      Gh(H)          -2.518128479842    -0.282594372515    -4.673500447667     1.007825032230
         C            1.225311895423     0.707538288405     0.921931179617    12.000000000000
         C            1.225323856051    -0.707538895085     0.909600370047    12.000000000000
         C           -0.000006153932     1.414965913575     0.909066746526    12.000000000000
         C            2.456448753949     1.418327886663     0.924818037017    12.000000000000
         C            0.000010827279    -1.414976499150     0.919266303850    12.000000000000
         C           -1.225300948908     0.707545373469     0.924182699939    12.000000000000
         C            2.456437755320    -1.418323304396     0.907355213190    12.000000000000
         C           -0.000001332978     2.836801030766     0.906663196392    12.000000000000
         C            3.681826697470     0.709317955486     0.907704002987    12.000000000000
         C            2.455120048865     2.834223660974     0.907601446027    12.000000000000
         C            3.681821105219    -0.709333839944     0.923776487006    12.000000000000
         C           -1.225313598688    -0.707527516059     0.910673131473    12.000000000000
         C            1.226699581202     3.543469483479     0.923960518937    12.000000000000
         C            0.000004784858    -2.836782139751     0.924114471472    12.000000000000
         C           -2.456436032848     1.418316917770     0.924218095785    12.000000000000
         C            2.455123417779    -2.834230029103     0.923624578638    12.000000000000
         C           -1.226714364589     3.543469063235     0.924063852156    12.000000000000
         C            4.914517295202     1.427172871975     0.914184686017    12.000000000000
         C            3.693150191476     3.542795292030     0.914234485653    12.000000000000
         C           -2.456437600068    -1.418313281354     0.907330175065    12.000000000000
         C            1.226704841943    -3.543474242421     0.907990388187    12.000000000000
         C           -2.455125398508     2.834216662119     0.907607822373    12.000000000000
         C            4.914524380782    -1.427186910459     0.917157428752    12.000000000000
         C            1.221424613699     4.970134064745     0.917295863011    12.000000000000
         C            4.893008229321     2.825187999512     0.915401354376    12.000000000000
         C           -1.226697008489    -3.543470997592     0.908257592596    12.000000000000
         C           -3.681818976526     0.709324966217     0.907716683468    12.000000000000
         C            3.693147101150    -3.542801341905     0.917275319312    12.000000000000
         C           -1.221432251994     4.970128297348     0.917479358384    12.000000000000
         C            6.134770972926     0.680547946591     0.914954460567    12.000000000000
         C            3.656788880610     4.972953243053     0.915143123436    12.000000000000
         C           -2.455126907733    -2.834215093576     0.923380220840    12.000000000000
         C           -3.681819179061    -0.709325703983     0.923894108585    12.000000000000
         C            4.893012617914    -2.825200106147     0.916012506271    12.000000000000
         C           -0.000001073113     5.650447365518     0.916248049677    12.000000000000
         C            6.134775112332    -0.680554854590     0.916219781083    12.000000000000
         C            2.478131482856     5.653576750817     0.916431903086    12.000000000000
         C            1.221422404738    -4.970127055448     0.914496365989    12.000000000000
         C           -3.693162383965     3.542796953677     0.914399993113    12.000000000000
         C           -1.221428520945    -4.970118304111     0.914383604156    12.000000000000
         C           -4.914521807942     1.427175446480     0.914261631025    12.000000000000
         C            3.656787019679    -4.972955226754     0.916593623970    12.000000000000
         C           -2.478138530106     5.653574422014     0.916716428094    12.000000000000
         C           -3.693141738564    -3.542790219494     0.917159193157    12.000000000000
         C           -4.914512483053    -1.427181000542     0.917192125925    12.000000000000
         C           -0.000006008926    -5.650438287528     0.915852545556    12.000000000000
         C           -4.893020484101     2.825188598404     0.915391272516    12.000000000000
         C            2.478125993298    -5.653573544403     0.915503023178    12.000000000000
         C           -3.656798710258     4.972956181527     0.915319803810    12.000000000000
         C           -4.892999478856    -2.825191767575     0.915858470574    12.000000000000
         C           -2.478128498083    -5.653566170521     0.915227835530    12.000000000000
         C           -6.134770503331     0.680548765741     0.914928908865    12.000000000000
         C           -3.656788833189    -4.972944023485     0.916379336153    12.000000000000
         C           -6.134765042913    -0.680553915997     0.916199305288    12.000000000000
         H            5.835288495816     3.369275894439     0.919760680038     1.007825032230
         H            7.073859172747     1.228217248385     0.915416103960     1.007825032230
         H            4.600663264174     5.512380801938     0.915648324188     1.007825032230
         H            5.835283387305    -3.369306057244     0.911558038957     1.007825032230
         H           -0.000012151306     6.738530673622     0.911898804669     1.007825032230
         H            7.073861171831    -1.228226943259     0.915711042988     1.007825032230
         H            2.473313731799     6.740684290880     0.915965182155     1.007825032230
         H            4.600668491381    -5.512376129691     0.916183626802     1.007825032230
         H           -2.473318680537     6.740681719092     0.916266528780     1.007825032230
         H           -0.000010268228    -6.738528176967     0.920382230541     1.007825032230
         H           -5.835301914343     3.369270949781     0.919896702187     1.007825032230
         H            2.473307923831    -6.740685374944     0.916073353603     1.007825032230
         H           -4.600674841208     5.512378026089     0.915813652512     1.007825032230
         H           -5.835279506835    -3.369288964294     0.911278733076     1.007825032230
         H           -2.473300347440    -6.740679078655     0.915624037058     1.007825032230
         H           -7.073857766768     1.228220472326     0.915332112479     1.007825032230
         H           -4.600673786085    -5.512362670301     0.916011318779     1.007825032230
         H           -7.073856934409    -1.228220632492     0.915616186522     1.007825032230

  Charge       = 0
  Multiplicity = 1
  Basis Set: JUN-CC-PVDZ
    Blend: JUN-CC-PVDZ
  Basis Set: (JUN-CC-PVDZ AUX)
    Blend: JUN-CC-PVDZ-JKFIT

    Orbital Energies [Eh]
    ---------------------

    Doubly Occupied:

       1A    -11.260646     2A    -11.260202     3A    -11.260201
       4A    -11.259491     5A    -11.259490     6A    -11.259321
       7A    -11.259111     8A    -11.259034     9A    -11.259033
      10A    -11.258709    11A    -11.258706    12A    -11.258637
      13A    -11.258575    14A    -11.258570    15A    -11.258567
      16A    -11.258539    17A    -11.258531    18A    -11.258516
      19A    -11.258503    20A    -11.258497    21A    -11.258492
      22A    -11.258393    23A    -11.258390    24A    -11.258091
      25A    -11.257430    26A    -11.257369    27A    -11.257367
      28A    -11.257233    29A    -11.257232    30A    -11.257148
      31A    -11.256525    32A    -11.256454    33A    -11.256454
      34A    -11.256344    35A    -11.256344    36A    -11.256297
      37A    -11.252378    38A    -11.252378    39A    -11.252376
      40A    -11.252375    41A    -11.252370    42A    -11.252369
      43A    -11.251507    44A    -11.251505    45A    -11.251503
      46A    -11.251498    47A    -11.251496    48A    -11.251492
      49A    -11.250940    50A    -11.250939    51A    -11.250937
      52A    -11.250936    53A    -11.250931    54A    -11.250930
      55A     -1.244247    56A     -1.219977    57A     -1.219973
      58A     -1.189688    59A     -1.189680    60A     -1.181120
      61A     -1.157692    62A     -1.149120    63A     -1.135662
      64A     -1.135653    65A     -1.113323    66A     -1.113320
      67A     -1.082589    68A     -1.082580    69A     -1.078769
      70A     -1.066108    71A     -1.066103    72A     -1.039542
      73A     -1.024444    74A     -1.021946    75A     -1.021899
      76A     -1.017856    77A     -1.012919    78A     -0.987180
      79A     -0.987132    80A     -0.962015    81A     -0.961964
      82A     -0.894432    83A     -0.894406    84A     -0.888115
      85A     -0.886362    86A     -0.886307    87A     -0.881557
      88A     -0.881510    89A     -0.862038    90A     -0.837524
      91A     -0.818353    92A     -0.816786    93A     -0.812295
      94A     -0.812288    95A     -0.794822    96A     -0.794810
      97A     -0.746793    98A     -0.745021    99A     -0.733584
     100A     -0.733579   101A     -0.732318   102A     -0.732295
     103A     -0.716657   104A     -0.699116   105A     -0.699101
     106A     -0.693738   107A     -0.693718   108A     -0.661366
     109A     -0.653286   110A     -0.651331   111A     -0.650384
     112A     -0.650378   113A     -0.639497   114A     -0.639490
     115A     -0.629871   116A     -0.627681   117A     -0.627667
     118A     -0.606477   119A     -0.605910   120A     -0.601822
     121A     -0.599885   122A     -0.599847   123A     -0.593784
     124A     -0.591405   125A     -0.591389   126A     -0.585392
     127A     -0.576435   128A     -0.576398   129A     -0.567448
     130A     -0.567432   131A     -0.566120   132A     -0.566102
     133A     -0.558894   134A     -0.554986   135A     -0.554982
     136A     -0.538726   137A     -0.538724   138A     -0.538267
     139A     -0.538267   140A     -0.529858   141A     -0.528210
     142A     -0.523016   143A     -0.523005   144A     -0.500635
     145A     -0.495699   146A     -0.493372   147A     -0.487925
     148A     -0.485225   149A     -0.481906   150A     -0.481900
     151A     -0.470413   152A     -0.470406   153A     -0.451200
     154A     -0.451124   155A     -0.439166   156A     -0.439158
     157A     -0.404845   158A     -0.404821   159A     -0.403469
     160A     -0.375521   161A     -0.375518   162A     -0.349224
     163A     -0.337685   164A     -0.336651   165A     -0.336598
     166A     -0.311199   167A     -0.298190   168A     -0.284450
     169A     -0.284400   170A     -0.225021   171A     -0.224957

  @DF-RHF Final Energy: -2055.89201828550995

   => Energetics <=

    Nuclear Repulsion Energy =           6452.5568002797781446
    One-Electron Energy =              -15636.4381161607198010
    Two-Electron Energy =                7127.9892975954326175
    Total Energy =                      -2055.8920182855099483
 Dipole X            :          0.0001024           -0.0000085            0.0000939
 Dipole Y            :         -0.0000432            0.0000167           -0.0000265
 Dipole Z            :       -591.8582954          591.8634155            0.0051201
 Magnitude           :                                                    0.0051210

    SAPT Results
  --------------------------------------------------------------------------------------------------------
    Electrostatics                 -7.53605576 [mEh]      -4.72894639 [kcal/mol]     -19.78591168 [kJ/mol]
      Elst10,r                     -7.53605576 [mEh]      -4.72894639 [kcal/mol]     -19.78591168 [kJ/mol]

    Exchange                        0.00006150 [mEh]       0.00003859 [kcal/mol]       0.00016147 [kJ/mol]
      Exch10                        0.00006150 [mEh]       0.00003859 [kcal/mol]       0.00016147 [kJ/mol]
      Exch10(S^2)                   0.00006150 [mEh]       0.00003859 [kcal/mol]       0.00016147 [kJ/mol]

    Induction                      -2.48375699 [mEh]      -1.55858104 [kcal/mol]      -6.52110309 [kJ/mol]
      Ind20,r                      -2.43170169 [mEh]      -1.52591585 [kcal/mol]      -6.38443191 [kJ/mol]
      Exch-Ind20,r                  0.00057556 [mEh]       0.00036117 [kcal/mol]       0.00151112 [kJ/mol]
      delta HF,r (2)               -0.05263086 [mEh]      -0.03302636 [kcal/mol]      -0.13818230 [kJ/mol]

    Dispersion                     -1.34750657 [mEh]      -0.84557314 [kcal/mol]      -3.53787802 [kJ/mol]
      Disp20                       -1.34771368 [mEh]      -0.84570310 [kcal/mol]      -3.53842178 [kJ/mol]
      Exch-Disp20                   0.00020710 [mEh]       0.00012996 [kcal/mol]       0.00054375 [kJ/mol]
      Disp20 (SS)                  -0.67385684 [mEh]      -0.42285155 [kcal/mol]      -1.76921089 [kJ/mol]
      Disp20 (OS)                  -0.67385684 [mEh]      -0.42285155 [kcal/mol]      -1.76921089 [kJ/mol]
      Exch-Disp20 (SS)              0.00015727 [mEh]       0.00009869 [kcal/mol]       0.00041291 [kJ/mol]
      Exch-Disp20 (OS)              0.00004984 [mEh]       0.00003127 [kcal/mol]       0.00013084 [kJ/mol]

  Total HF                        -10.01975126 [mEh]      -6.28748884 [kcal/mol]     -26.30685330 [kJ/mol]
  Total SAPT0                     -11.36725783 [mEh]      -7.13306198 [kcal/mol]     -29.84473133 [kJ/mol]

  Special recipe for scaled SAPT0 (see Manual):
    Electrostatics sSAPT0          -7.53605576 [mEh]      -4.72894639 [kcal/mol]     -19.78591168 [kJ/mol]
    Exchange sSAPT0                 0.00006150 [mEh]       0.00003859 [kcal/mol]       0.00016147 [kJ/mol]
    Induction sSAPT0               -2.48375699 [mEh]      -1.55858104 [kcal/mol]      -6.52110309 [kJ/mol]
    Dispersion sSAPT0              -1.34750657 [mEh]      -0.84557314 [kcal/mol]      -3.53787802 [kJ/mol]
  Total sSAPT0                    -11.36725783 [mEh]      -7.13306198 [kcal/mol]     -29.84473133 [kJ/mol]
  --------------------------------------------------------------------------------------------------------

*** Psi4 exiting successfully. Buy a developer a beer!
