                               Psi4 1.9 release

  ==> Input File <==

--------------------------------------------------------------------------
memory 48 GB # how much memory is available ! Depends on the nodes/cores !

molecule dimer {
# monomer A
-1 1    # Charge and multiplicity
B -1.977592e-04  2.742729e-04 -3.699966
F  1.123153e-16  1.430594e-17 -2.287181
F  1.147860e+00  6.757812e-01 -4.171107
F  1.191806e-02 -1.332011e+00 -4.170905
F -1.159666e+00  6.560735e-01 -4.170826
--
# monomer B
0 1     # Charge and multiplicity
C   1.22531237526482      0.70753866091955      0.00613762728373
C   1.22532433589282     -0.70753852257020     -0.00619318228664
C   -0.00000567409046      1.41496628609039     -0.00672680580738
C   2.45644923379077      1.41832825917820      0.00902448468363
C   0.00001130712078     -1.41497612663474      0.00347275151708
C   -1.22530046906674      0.70754574598412      0.00838914760619
C   2.45643823516184     -1.41832293188077     -0.00843833914343
C   -0.00000085313587      2.83680140328112     -0.00913035594137
C   3.68182717731192      0.70931832800114     -0.00808954934571
C   2.45512052870677      2.83422403348893     -0.00819210630633
C   3.68182158506039     -0.70933346742900      0.00798293467272
C   -1.22531311884624     -0.70752714354401     -0.00512042085974
C   1.22670006104402      3.54346985599427      0.00816696660346
C   0.00000526469929     -2.83678176723568      0.00832091913869
C   -2.45643555300670      1.41831729028492      0.00842454345199
C   2.45512389762097     -2.83422965658853      0.00783102630520
C   -1.22671388474763      3.54346943575023      0.00827029982280
C   4.91451777504333      1.42717324448953     -0.00160886631602
C   3.69315067131765      3.54279566454522     -0.00155906667985
C   -2.45643712022637     -1.41831290883911     -0.00846337726810
C   1.22670532178455     -3.54347386990643     -0.00780316414624
C   -2.45512491866593      2.83421703463423     -0.00818572995999
C   4.91452486062398     -1.42718653794377      0.00136387641845
C   1.22142509354026      4.97013443726031      0.00150231067809
C   4.89300870916237      2.82518837202648     -0.00039219795739
C   -1.22669652864725     -3.54347062507680     -0.00753595973677
C   -3.68181849668397      0.70932533873199     -0.00807686886569
C   3.69314758099218     -3.54280096939050      0.00148176697923
C   -1.22143177215231      4.97012866986289      0.00168580605083
C   6.13477145276790      0.68054831910577     -0.00083909176631
C   3.65678936045204      4.97295361556775     -0.00065042889723
C   -2.45512642789169     -2.83421472106065      0.00758666850712
C   -3.68181869921921     -0.70932533146830      0.00810055625144
C   4.89301309775526     -2.82519973363176      0.00021895393805
C   -0.00000059327114      5.65044773803267      0.00045449734393
C   6.13477559217374     -0.68055448207492      0.00042622874941
C   2.47813196269732      5.65357712333155      0.00063835075260
C   1.22142288457925     -4.97012668293268     -0.00129718634452
C   -3.69316190412301      3.54279732619245     -0.00139355922051
C   -1.22142804110313     -4.97011793159564     -0.00140994817719
C   -4.91452132810043      1.42717581899491     -0.00153192130862
C   3.65678749952045     -4.97295485423912      0.00080007163680
C   -2.47813805026426      5.65357479452875      0.00092287576113
C   -3.69314125872231     -3.54278984697859      0.00136564082345
C   -4.91451200321153     -1.42718062802730      0.00139857359209
C   -0.00000552908399     -5.65043791501335      0.00005899322272
C   -4.89302000425900      2.82518897091939     -0.00040227981744
C   2.47812647313991     -5.65357317188818     -0.00029052915548
C   -3.65679823041642      4.97295655404175     -0.00047374852278
C   -4.89299899901461     -2.82519139505969      0.00006491824035
C   -2.47812801824129     -5.65356579800621     -0.00056571680280
C   -6.13477002348955      0.68054913825639     -0.00086464346868
C   -3.65678835334731     -4.97294365097028      0.00058578382008
C   -6.13476456307132     -0.68055354348201      0.00040575295444
H   5.83528897565761      3.36927626695423      0.00396712770529
H   7.07385965258860      1.22821762089947     -0.00037744837300
H   4.60066374401555      5.51238117445323     -0.00014522814529
H   5.83528386714679     -3.36930568472863     -0.00423551337640
H   -0.00001167146422      6.73853104613662     -0.00389474766392
H   7.07386165167227     -1.22822657074368     -0.00008250934481
H   2.47331421164041      6.74068466339473      0.00017162982210
H   4.60066897122302     -5.51237575717576      0.00039007446835
H   -2.47331820069565      6.74068209160650      0.00047297644710
H   -0.00000978838621     -6.73852780445195      0.00458867820736
H   -5.83530143450167      3.36927132229595      0.00410314985360
H   2.47330840367253     -6.74068500242887      0.00027980126949
H   -4.60067436136587      5.51237839860371      0.00002010017831
H   -5.83527902699321     -3.36928859177951     -0.00451481925734
H   -2.47329986759855     -6.74067870613986     -0.00016951527498
H   -7.07385728692578      1.22822084484047     -0.00046143985387
H   -4.60067330624313     -5.51236229778631      0.00021776644566
H   -7.07385645456741     -1.22822025997701     -0.00017736581114

    units angstrom      # Angstroms are the default
    no_reorient         # Geometry fixed, default
    symmetry c1         # C1 symmetry, default
}

set {
    scf_type DF         # Density fitting, faster than exact integrals
    freeze_core True    # Freeze core electrons
    basis jun-cc-pVDZ   # Jun-cc-pVDZ basis set, recommended for sSAPT0 in https://doi.org/10.1063/1.4867135
}

energy('ssapt0')        # Compute sSAPT0 energy, includes also SAPT0
--------------------------------------------------------------------------

  //              Dimer HF             //
    Molecular point group: c1
  Charge       = -1
  Multiplicity = 1
  Basis Set: JUN-CC-PVDZ
    Blend: JUN-CC-PVDZ
  Basis Set: (JUN-CC-PVDZ AUX)
    Blend: JUN-CC-PVDZ-JKFIT
  @DF-RHF Final Energy: -2478.65108664411127
    Total Energy =                      -2478.6510866441112739
 Dipole X            :         -0.0004340            0.0000481           -0.0003859
 Dipole Y            :          0.0008541           -0.0001453            0.0007088
 Dipole Z            :        -17.9072573           22.6823896            4.7751323
 Magnitude           :                                                    4.7751324
  //            Monomer A HF           //
    Molecular point group: c1
  Multiplicity = 1
  Basis Set: JUN-CC-PVDZ
    Blend: JUN-CC-PVDZ
  Basis Set: (JUN-CC-PVDZ AUX)
    Blend: JUN-CC-PVDZ-JKFIT
  @DF-RHF Final Energy:  -422.77337898257053
    Total Energy =                       -422.7733789825705344
  //            Monomer B HF           //
    Molecular point group: c1

    Geometry (in Angstrom), charge = 0, multiplicity = 1:

       Center              X                  Y                   Z               Mass
    ------------   -----------------  -----------------  -----------------  -----------------
      Gh(B)          -0.000198161052     0.000273808717    -3.272541017661    11.009305360000
      Gh(F)          -0.000000401852    -0.000000464183    -1.859756017661    18.998403162730
      Gh(F)           1.147859598148     0.675780735817    -3.743682017661    18.998403162730
      Gh(F)           0.011917658148    -1.332011464183    -3.743480017661    18.998403162730
      Gh(F)          -1.159666401852     0.656073035817    -3.743401017661    18.998403162730
         C            1.225311973413     0.707538196736     0.433562609623    12.000000000000
         C            1.225323934041    -0.707538986754     0.421231800053    12.000000000000
         C           -0.000006075942     1.414965821907     0.420698176532    12.000000000000
         C            2.456448831939     1.418327794995     0.436449467023    12.000000000000
         C            0.000010905269    -1.414976590818     0.430897733856    12.000000000000
         C           -1.225300870919     0.707545281801     0.435814129945    12.000000000000
         C            2.456437833310    -1.418323396064     0.418986643196    12.000000000000
         C           -0.000001254988     2.836800939098     0.418294626398    12.000000000000
         C            3.681826775460     0.709317863818     0.419335432994    12.000000000000
         C            2.455120126855     2.834223569306     0.419232876033    12.000000000000
         C            3.681821183209    -0.709333931612     0.435407917012    12.000000000000
         C           -1.225313520698    -0.707527607727     0.422304561479    12.000000000000
         C            1.226699659192     3.543469391811     0.435591948943    12.000000000000
         C            0.000004862847    -2.836782231419     0.435745901478    12.000000000000
         C           -2.456435954859     1.418316826102     0.435849525791    12.000000000000
         C            2.455123495769    -2.834230120772     0.435256008644    12.000000000000
         C           -1.226714286599     3.543468971567     0.435695282162    12.000000000000
         C            4.914517373191     1.427172780306     0.425816116023    12.000000000000
         C            3.693150269466     3.542795200362     0.425865915659    12.000000000000
         C           -2.456437522078    -1.418313373022     0.418961605071    12.000000000000
         C            1.226704919933    -3.543474334090     0.419621818193    12.000000000000
         C           -2.455125320518     2.834216570451     0.419239252379    12.000000000000
         C            4.914524458772    -1.427187002127     0.428788858758    12.000000000000
         C            1.221424691688     4.970133973077     0.428927293017    12.000000000000
         C            4.893008307311     2.825187907843     0.427032784382    12.000000000000
         C           -1.226696930499    -3.543471089260     0.419889022602    12.000000000000
         C           -3.681818898536     0.709324874549     0.419348113474    12.000000000000
         C            3.693147179140    -3.542801433574     0.428906749318    12.000000000000
         C           -1.221432174004     4.970128205680     0.429110788390    12.000000000000
         C            6.134771050916     0.680547854922     0.426585890573    12.000000000000
         C            3.656788958600     4.972953151384     0.426774553442    12.000000000000
         C           -2.455126829744    -2.834215185244     0.435011650846    12.000000000000
         C           -3.681819101071    -0.709325795652     0.435525538591    12.000000000000
         C            4.893012695903    -2.825200197815     0.427643936277    12.000000000000
         C           -0.000000995123     5.650447273849     0.427879479683    12.000000000000
         C            6.134775190322    -0.680554946258     0.427851211089    12.000000000000
         C            2.478131560845     5.653576659148     0.428063333092    12.000000000000
         C            1.221422482727    -4.970127147116     0.426127795995    12.000000000000
         C           -3.693162305975     3.542796862009     0.426031423119    12.000000000000
         C           -1.221428442955    -4.970118395779     0.426015034162    12.000000000000
         C           -4.914521729952     1.427175354812     0.425893061031    12.000000000000
         C            3.656787097669    -4.972955318422     0.428225053976    12.000000000000
         C           -2.478138452116     5.653574330345     0.428347858100    12.000000000000
         C           -3.693141660574    -3.542790311162     0.428790623163    12.000000000000
         C           -4.914512405063    -1.427181092211     0.428823555931    12.000000000000
         C           -0.000005930936    -5.650438379197     0.427483975562    12.000000000000
         C           -4.893020406111     2.825188506736     0.427022702522    12.000000000000
         C            2.478126071288    -5.653573636072     0.427134453184    12.000000000000
         C           -3.656798632268     4.972956089858     0.426951233816    12.000000000000
         C           -4.892999400866    -2.825191859243     0.427489900580    12.000000000000
         C           -2.478128420093    -5.653566262190     0.426859265536    12.000000000000
         C           -6.134770425341     0.680548674073     0.426560338871    12.000000000000
         C           -3.656788755199    -4.972944115154     0.428010766159    12.000000000000
         C           -6.134764964923    -0.680554007665     0.427830735294    12.000000000000
         H            5.835288573806     3.369275802771     0.431392110045     1.007825032230
         H            7.073859250737     1.228217156716     0.427047533966     1.007825032230
         H            4.600663342164     5.512380710270     0.427279754194     1.007825032230
         H            5.835283465295    -3.369306148912     0.423189468963     1.007825032230
         H           -0.000012073316     6.738530581953     0.423530234675     1.007825032230
         H            7.073861249820    -1.228227034927     0.427342472994     1.007825032230
         H            2.473313809789     6.740684199211     0.427596612161     1.007825032230
         H            4.600668569371    -5.512376221359     0.427815056808     1.007825032230
         H           -2.473318602548     6.740681627423     0.427897958786     1.007825032230
         H           -0.000010190238    -6.738528268635     0.432013660547     1.007825032230
         H           -5.835301836354     3.369270858113     0.431528132193     1.007825032230
         H            2.473308001821    -6.740685466612     0.427704783609     1.007825032230
         H           -4.600674763218     5.512377934420     0.427445082518     1.007825032230
         H           -5.835279428845    -3.369289055963     0.422910163082     1.007825032230
         H           -2.473300269450    -6.740679170323     0.427255467064     1.007825032230
         H           -7.073857688778     1.228220380657     0.426963542485     1.007825032230
         H           -4.600673708095    -5.512362761970     0.427642748785     1.007825032230
         H           -7.073856856419    -1.228220724160     0.427247616528     1.007825032230

  Charge       = 0
  Multiplicity = 1
  Basis Set: JUN-CC-PVDZ
    Blend: JUN-CC-PVDZ
  Basis Set: (JUN-CC-PVDZ AUX)
    Blend: JUN-CC-PVDZ-JKFIT

    Orbital Energies [Eh]
    ---------------------

    Doubly Occupied:

       1A    -11.260739     2A    -11.260282     3A    -11.260278
       4A    -11.259492     5A    -11.259490     6A    -11.259281
       7A    -11.259029     8A    -11.258961     9A    -11.258959
      10A    -11.258664    11A    -11.258660    12A    -11.258536
      13A    -11.258488    14A    -11.258484    15A    -11.258478
      16A    -11.258443    17A    -11.258437    18A    -11.258420
      19A    -11.258414    20A    -11.258410    21A    -11.258404
      22A    -11.258350    23A    -11.258346    24A    -11.258132
      25A    -11.257314    26A    -11.257253    27A    -11.257252
      28A    -11.257119    29A    -11.257119    30A    -11.257035
      31A    -11.256404    32A    -11.256334    33A    -11.256334
      34A    -11.256226    35A    -11.256226    36A    -11.256180
      37A    -11.252300    38A    -11.252299    39A    -11.252298
      40A    -11.252296    41A    -11.252294    42A    -11.252293
      43A    -11.251405    44A    -11.251402    45A    -11.251402
      46A    -11.251394    47A    -11.251393    48A    -11.251389
      49A    -11.250862    50A    -11.250861    51A    -11.250859
      52A    -11.250857    53A    -11.250855    54A    -11.250854
      55A     -1.244065    56A     -1.219816    57A     -1.219815
      58A     -1.189550    59A     -1.189543    60A     -1.180971
      61A     -1.157577    62A     -1.148989    63A     -1.135494
      64A     -1.135488    65A     -1.113209    66A     -1.113204
      67A     -1.082429    68A     -1.082421    69A     -1.078626
      70A     -1.066000    71A     -1.065996    72A     -1.039408
      73A     -1.024264    74A     -1.021778    75A     -1.021735
      76A     -1.017747    77A     -1.012817    78A     -0.987022
      79A     -0.986977    80A     -0.961898    81A     -0.961848
      82A     -0.894304    83A     -0.894277    84A     -0.887952
      85A     -0.886179    86A     -0.886121    87A     -0.881407
      88A     -0.881360    89A     -0.861909    90A     -0.837434
      91A     -0.818220    92A     -0.816603    93A     -0.812151
      94A     -0.812142    95A     -0.794704    96A     -0.794693
      97A     -0.746638    98A     -0.744858    99A     -0.733418
     100A     -0.733410   101A     -0.732198   102A     -0.732175
     103A     -0.716518   104A     -0.698986   105A     -0.698975
     106A     -0.693598   107A     -0.693583   108A     -0.661243
     109A     -0.653100   110A     -0.651145   111A     -0.650275
     112A     -0.650269   113A     -0.639375   114A     -0.639372
     115A     -0.629731   116A     -0.627534   117A     -0.627518
     118A     -0.606509   119A     -0.605833   120A     -0.601664
     121A     -0.599746   122A     -0.599715   123A     -0.593647
     124A     -0.591223   125A     -0.591212   126A     -0.585300
     127A     -0.576376   128A     -0.576370   129A     -0.567345
     130A     -0.567330   131A     -0.565960   132A     -0.565941
     133A     -0.558722   134A     -0.554861   135A     -0.554854
     136A     -0.538611   137A     -0.538609   138A     -0.538183
     139A     -0.538176   140A     -0.529733   141A     -0.528221
     142A     -0.522883   143A     -0.522877   144A     -0.500519
     145A     -0.495608   146A     -0.493248   147A     -0.487845
     148A     -0.485080   149A     -0.481769   150A     -0.481761
     151A     -0.470383   152A     -0.470365   153A     -0.451019
     154A     -0.450941   155A     -0.439083   156A     -0.439074
     157A     -0.404732   158A     -0.404709   159A     -0.403383
     160A     -0.375445   161A     -0.375442   162A     -0.349126
     163A     -0.337562   164A     -0.336609   165A     -0.336552
     166A     -0.311083   167A     -0.298132   168A     -0.284333
     169A     -0.284279   170A     -0.224919   171A     -0.224853

  @DF-RHF Final Energy: -2055.89354805450603

   => Energetics <=

    Nuclear Repulsion Energy =           6452.5568002797781446
    One-Electron Energy =              -15636.4784516870859079
    Two-Electron Energy =                7128.0281033528026455
    Total Energy =                      -2055.8935480545060273
 Dipole X            :          0.0000260            0.0000419            0.0000679
 Dipole Y            :          0.0000588           -0.0000426            0.0000163
 Dipole Z            :       -276.2353787          276.2374823            0.0021036
 Magnitude           :                                                    0.0021047

    SAPT Results
  --------------------------------------------------------------------------------------------------------
    Electrostatics                 -0.75928295 [mEh]      -0.47645725 [kcal/mol]      -1.99349712 [kJ/mol]
      Elst10,r                     -0.75928295 [mEh]      -0.47645725 [kcal/mol]      -1.99349712 [kJ/mol]

    Exchange                       34.58233007 [mEh]      21.70073974 [kcal/mol]      90.79589508 [kJ/mol]
      Exch10                       34.58233007 [mEh]      21.70073974 [kcal/mol]      90.79589508 [kJ/mol]
      Exch10(S^2)                  34.47139672 [mEh]      21.63112802 [kcal/mol]      90.50463962 [kJ/mol]

    Induction                     -17.98265415 [mEh]     -11.28428584 [kcal/mol]     -47.21345196 [kJ/mol]
      Ind20,r                     -27.01675785 [mEh]     -16.95327150 [kcal/mol]     -70.93248797 [kJ/mol]
      Exch-Ind20,r                 10.93940473 [mEh]       6.86458011 [kcal/mol]      28.72140316 [kJ/mol]
      delta HF,r (2)               -1.90530103 [mEh]      -1.19559444 [kcal/mol]      -5.00236715 [kJ/mol]

    Dispersion                    -13.06041486 [mEh]      -8.19553406 [kcal/mol]     -34.29011449 [kJ/mol]
      Disp20                      -16.39352543 [mEh]     -10.28709252 [kcal/mol]     -43.04119509 [kJ/mol]
      Exch-Disp20                   3.33311057 [mEh]       2.09155846 [kcal/mol]       8.75108061 [kJ/mol]
      Disp20 (SS)                  -8.19676272 [mEh]      -5.14354626 [kcal/mol]     -21.52059755 [kJ/mol]
      Disp20 (OS)                  -8.19676272 [mEh]      -5.14354626 [kcal/mol]     -21.52059755 [kJ/mol]
      Exch-Disp20 (SS)              1.84331927 [mEh]       1.15670030 [kcal/mol]       4.83963407 [kJ/mol]
      Exch-Disp20 (OS)              1.48979131 [mEh]       0.93485816 [kcal/mol]       3.91144654 [kJ/mol]

  Total HF                         15.84039297 [mEh]       9.93999665 [kcal/mol]      41.58894600 [kJ/mol]
  Total SAPT0                       2.77997811 [mEh]       1.74446260 [kcal/mol]       7.29883151 [kJ/mol]

  Special recipe for scaled SAPT0 (see Manual):
    Electrostatics sSAPT0          -0.75928295 [mEh]      -0.47645725 [kcal/mol]      -1.99349712 [kJ/mol]
    Exchange sSAPT0                34.58233007 [mEh]      21.70073974 [kcal/mol]      90.79589508 [kJ/mol]
    Induction sSAPT0              -17.87670071 [mEh]     -11.21779906 [kcal/mol]     -46.93527125 [kJ/mol]
    Dispersion sSAPT0             -13.02813207 [mEh]      -8.17527630 [kcal/mol]     -34.20535603 [kJ/mol]
  Total sSAPT0                      2.91821433 [mEh]       1.83120714 [kcal/mol]       7.66177068 [kJ/mol]
  --------------------------------------------------------------------------------------------------------

*** Psi4 exiting successfully. Buy a developer a beer!
