                               Psi4 1.9 release

  ==> Input File <==

--------------------------------------------------------------------------
memory 64 GB # how much memory is available ! Depends on the nodes/cores !

molecule dimer {
# monomer A
+1 1    # Charge and multiplicity
C  0.680067 1.417258 -5.415929
C -0.680504 1.419286 -5.415545
N -1.085635 1.420284 -4.097221
C  0.000108 1.423560 -3.315820
C -2.477365 1.469690 -3.629242
N  1.085222 1.420284 -4.097221
H  1.385146 1.409430 -6.233368
H -1.385302 1.419096 -6.233214
H -0.000009 1.425307 -2.234731
C  2.478117 1.403392 -3.632123
H  2.490592 1.430737 -2.541870
H  2.967028 0.489946 -3.979299
H  3.001428 2.278875 -4.023595
H -2.857359 2.491761 -3.709201
H -3.082679 0.799606 -4.242306
H -2.518128 1.142706 -2.589294
--
# monomer B
0 1     # Charge and multiplicity
C   -3.66844126402057      7.80375217008252      0.00190004133558
C   -4.84759871934653      7.13124183134024     -0.00046653359696
C   -4.89495929917518      5.69633040353158     -0.00103944469517
C   -3.65374067877320      4.98073034095895      0.00662099703436
C   -2.40942512149445      7.11398103667468      0.00209438359570
C   -2.42547734410473      5.68112195090346     -0.00491050527438
C   -1.19474401643570      7.78614419430947      0.00356656413763
C   0.03795902893699      7.09942164575698      0.00139585983271
C   0.03033258741920      5.66948955970466     -0.00408752508301
C   -1.20098450790502      4.96927034791531      0.00488220885047
C   1.27795782581485      7.77285944319479      0.00277170839332
C   2.48535808472416      7.08769688523756      0.00049722048857
C   2.48612868491717      5.65477081024076     -0.00644052849921
C   1.25408291964399      4.95607811366431      0.00518741308898
C   3.75171459140595      7.76391215098033      0.00062407186893
C   4.92356605618520      7.07878077698995     -0.00143240883900
C   4.95560727132542      5.64344746336949     -0.00159282164606
C   3.70680153420475      4.94121020833308      0.00349873852374
H   -3.65852113775815      8.89082741913536      0.00358502958574
H   -1.18921332975660      8.87412108735996      0.00753844057883
H   1.28429423888630      8.86083343548850      0.00693053253426
H   3.75354208679975      8.85103527897216      0.00214659618464
H   5.86995870320703      7.61379483465560     -0.00235777588134
H   -5.78823170750226      7.67630221293400     -0.00202638095293
C   -6.09197395869619      4.99326001364347     -0.00291168518608
C   -6.12866148031747      3.58258016879823     -0.00171050815740
C   -3.66457974004527      3.56418217974434     -0.00463560277484
C   -4.89429820469869      2.86108077590057      0.00453338221034
C   -2.43733499489796      2.84761165708481      0.00719617576166
C   -1.20922785759670      3.54788693497833     -0.00648285103018
C   1.24714157216223      3.53468075142962     -0.00729145743546
C   0.01517603956900      2.83311183930540      0.00439272578912
C   2.46764517244071      2.82128997725533      0.00449278391269
C   3.70254947457969      3.52466015442405     -0.00899517692985
C   6.14498038638375      4.92757236613191     -0.00282626685777
C   6.16658835886151      3.51658447594213     -0.00065971342101
C   4.92460995845939      2.80840792535402      0.00587903281610
H   7.08990550964105      5.46688776622306     -0.00658814770723
H   -7.03104175110130      5.54268795285765     -0.00714490013730
C   -7.33969804112295      2.85841153457957     -0.00333767559888
C   -7.36488195805880      1.47032337158330     -0.00157213747140
C   -4.90350460894690      1.44442681216000     -0.00628840166334
C   -6.13225715261081      0.73993935705394      0.00600164231964
C   -3.67687480051673      0.72669714267312      0.00433931473643
C   -2.44565658606518      1.42964113326212     -0.00597039546461
C   -1.22360068130162      0.71532450163492      0.00545886906656
C   0.00763786931376      1.41738314923765      0.00392452278437
C   1.23121980774686      0.70211669058719     -0.01490206287210
C   2.46082110053113      1.40329203612573      0.00460244601878
C   3.68443025419614      0.68719842821222      0.00377365974158
C   4.91870890153864      1.39173456118907     -0.00862816189375
C   7.36980207796101      2.77948220318441     -0.00242013321349
C   7.38016266612146      1.39121750785509     -0.00087345036788
C   6.13979953912259      0.67411862320065      0.00545489144369
H   -8.27919079934664      3.40711804112415     -0.00763522772059
H   8.31511347147953      3.31811809662368     -0.00663070901292
C   -8.59175593758115      0.72483255304480     -0.00123170985383
C   -8.59902460370342     -0.63263980622873      0.00089141472904
C   -6.13981313911873     -0.67413663715361     -0.00609792660607
C   -7.38018411213749     -1.39126618958160      0.00131813493501
C   -4.91868448025621     -1.39175501803000      0.00624257154343
C   -3.68443829568458     -0.68723731573599     -0.00478966852105
C   -2.46081704024768     -1.40334517882457      0.00575341766833
C   -1.23116201232071     -0.70217386488055     -0.00636696112346
C   -0.00756962538737     -1.41741884941102      0.00108956317991
C   1.22364771588843     -0.71527537726392      0.01109518512883
C   2.44567064933149     -1.42964328900682     -0.00065482763106
C   3.67686670284649     -0.72670743155550     -0.00479541202602
C   6.13224884641929     -0.73997883984993     -0.00632338623858
C   4.90351914550401     -1.44445752054090      0.00751768830159
C   8.59901484869081      0.63260386666793     -0.00101133422380
C   8.59174548810050     -0.72485086719319      0.00072504603735
C   7.36486276438985     -1.47033266560598      0.00049486934466
H   -9.52830597181814      1.27684744919284     -0.00270163681798
H   9.54141097460619      1.17457248844457     -0.00206336648518
C   -7.36983790976868     -2.77954514593389      0.00312634335708
C   -4.92459910905015     -2.80843725734101     -0.00460528907921
C   -6.16662249566744     -3.51665219282533      0.00169655107992
C   -3.70251035970491     -3.52468154912026      0.00571878010666
C   -2.46764698511392     -2.82132596280400     -0.00632585824990
C   -0.01513347410770     -2.83314164539971     -0.00604426974092
C   -1.24712184122656     -3.53473217556300      0.00551968366725
C   1.20924506964357     -3.54791467864352      0.00805871345849
C   2.43733602215464     -2.84764173817541     -0.00608104485234
C   4.89430234377080     -2.86112296828604     -0.00526030478103
C   3.66461525504104     -3.56421984553201      0.00761911515957
C   6.12863901474565     -3.58258405771778      0.00096495711699
C   7.33967266469532     -2.85841330737039      0.00248018319869
H   -9.54144911125902     -1.17456346666430      0.00226083090216
H   9.52826186807155     -1.27691907390448      0.00197485379837
H   -8.31516504384864     -3.31814985321231      0.00729857188773
H   8.27915514249207     -3.40714078989363      0.00681973918158
C   -6.14499418870218     -4.92764727278338      0.00302254913999
C   -3.70678334799751     -4.94126171411716     -0.00679841894792
C   -4.95559005800169     -5.64349397349412      0.00116871569699
C   -2.48612132622665     -5.65478557440947      0.00614125209662
C   -1.25405833548005     -4.95612205000132     -0.00503435388927
C   1.20101257386816     -4.96928038819302     -0.00385322963129
C   -0.03033667441341     -5.66952030313900      0.00398997003238
C   3.65375010132847     -4.98074377541453     -0.00309522988330
C   2.42549269587528     -5.68117463552727      0.00628170066869
C   6.09196561781097     -4.99325796338655      0.00325918379042
C   4.89497644461045     -5.69634842095790      0.00202298796027
H   -7.08989238804069     -5.46699984223871      0.00742531082125
H   7.03105520920009     -5.54265853633254      0.00683896355417
C   -4.92354532219813     -7.07882109967734      0.00061394679214
C   -2.48534208823777     -7.08772807792913     -0.00189594564379
C   -3.75168589177895     -7.76394715763627     -0.00170126671874
C   -0.03794895698805     -7.09946487446944     -0.00168022049625
C   -1.27795610040136     -7.77290438466689     -0.00366491325785
C   2.40944432072629     -7.11402201200282     -0.00081701968533
C   1.19474993715296     -7.78618536556242     -0.00296931056689
C   4.84762105249800     -7.13126211057943      0.00168979497423
C   3.66847160587561     -7.80378799294376     -0.00065863938960
H   -5.86994035041618     -7.61383059804164      0.00215798365757
H   5.78824962538815     -7.67633218931421      0.00281691445618
H   -3.75352693944918     -8.85107156923607     -0.00353718114765
H   -1.28430440589466     -8.86087539249706     -0.00809229711623
H   1.18922157469537     -8.87416062058945     -0.00706194725726
H   3.65854661482387     -8.89086063405326     -0.00231318081200

    units angstrom      # Angstroms are the default
    no_reorient         # Geometry fixed, default
    symmetry c1         # C1 symmetry, default
}

set {
    scf_type DF         # Density fitting, faster than exact integrals
    freeze_core True    # Freeze core electrons
    basis jun-cc-pVDZ   # Jun-cc-pVDZ basis set, recommended for sSAPT0 in https://doi.org/10.1063/1.4867135
}

energy('ssapt0')        # Compute sSAPT0 energy, includes also SAPT0
--------------------------------------------------------------------------

  //              Dimer HF             //
    Molecular point group: c1
  Charge       = 1
  Multiplicity = 1
  Basis Set: JUN-CC-PVDZ
    Blend: JUN-CC-PVDZ
  Basis Set: (JUN-CC-PVDZ AUX)
    Blend: JUN-CC-PVDZ-JKFIT
  @DF-RHF Final Energy: -3953.65703435516207
    Total Energy =                      -3953.6570343551611586
 Dipole X            :         -0.0062145            0.0004804           -0.0057341
 Dipole Y            :         -7.3357728            8.7122315            1.3764587
 Dipole Z            :         18.6186474          -23.6212722           -5.0026249
 Magnitude           :                                                    5.1885380
  //            Monomer A HF           //
    Molecular point group: c1
  Multiplicity = 1
  Basis Set: JUN-CC-PVDZ
    Blend: JUN-CC-PVDZ
  Basis Set: (JUN-CC-PVDZ AUX)
    Blend: JUN-CC-PVDZ-JKFIT
  @DF-RHF Final Energy:  -303.29845779191294
    Total Energy =                       -303.2984577919129379
  //            Monomer B HF           //
    Molecular point group: c1

    Geometry (in Angstrom), charge = 0, multiplicity = 1:

       Center              X                  Y                   Z               Mass
    ------------   -----------------  -----------------  -----------------  -----------------
      Gh(C)           0.680062820275     1.308604348936    -5.095717220331    12.000000000000
      Gh(C)          -0.680508179725     1.310632348936    -5.095333220331    12.000000000000
      Gh(N)          -1.085639179725     1.311630348936    -3.777009220331    14.003074004430
      Gh(C)           0.000103820275     1.314906348936    -2.995608220331    12.000000000000
      Gh(C)          -2.477369179725     1.361036348936    -3.309030220331    12.000000000000
      Gh(N)           1.085217820275     1.311630348936    -3.777009220331    14.003074004430
      Gh(H)           1.385141820275     1.300776348936    -5.913156220331     1.007825032230
      Gh(H)          -1.385306179725     1.310442348936    -5.913002220331     1.007825032230
      Gh(H)          -0.000013179725     1.316653348936    -1.914519220331     1.007825032230
      Gh(C)           2.478112820275     1.294738348936    -3.311911220331    12.000000000000
      Gh(H)           2.490587820275     1.322083348936    -2.221658220331     1.007825032230
      Gh(H)           2.967023820275     0.381292348936    -3.659087220331     1.007825032230
      Gh(H)           3.001423820275     2.170221348936    -3.703383220331     1.007825032230
      Gh(H)          -2.857363179725     2.383107348936    -3.388989220331     1.007825032230
      Gh(H)          -3.082683179725     0.690952348936    -3.922094220331     1.007825032230
      Gh(H)          -2.518132179725     1.034052348936    -2.269082220331     1.007825032230
         C           -3.668445443746     7.695098519018     0.322111821005    12.000000000000
         C           -4.847602899072     7.022588180276     0.319745246072    12.000000000000
         C           -4.894963478901     5.587676752467     0.319172334974    12.000000000000
         C           -3.653744858499     4.872076689895     0.326832776703    12.000000000000
         C           -2.409429301220     7.005327385610     0.322306163265    12.000000000000
         C           -2.425481523830     5.572468299839     0.315301274395    12.000000000000
         C           -1.194748196161     7.677490543245     0.323778343807    12.000000000000
         C            0.037954849212     6.990767994693     0.321607639502    12.000000000000
         C            0.030328407694     5.560835908640     0.316124254586    12.000000000000
         C           -1.200988687630     4.860616696851     0.325093988519    12.000000000000
         C            1.277953646089     7.664205792130     0.322983488062    12.000000000000
         C            2.485353904999     6.979043234173     0.320709000158    12.000000000000
         C            2.486124505192     5.546117159176     0.313771251170    12.000000000000
         C            1.254078739919     4.847424462600     0.325399192758    12.000000000000
         C            3.751710411681     7.655258499916     0.320835851538    12.000000000000
         C            4.923561876460     6.970127125926     0.318779370830    12.000000000000
         C            4.955603091600     5.534793812305     0.318618958023    12.000000000000
         C            3.706797354479     4.832556557269     0.323710518193    12.000000000000
         H           -3.658525317484     8.782173768071     0.323796809255     1.007825032230
         H           -1.189217509482     8.765467436296     0.327750220248     1.007825032230
         H            1.284290059161     8.752179784424     0.327142312203     1.007825032230
         H            3.753537907074     8.742381627908     0.322358375854     1.007825032230
         H            5.869954523482     7.505141183591     0.317854003788     1.007825032230
         H           -5.788235887228     7.567648561870     0.318185398716     1.007825032230
         C           -6.091978138422     4.884606362579     0.317300094483    12.000000000000
         C           -6.128665660043     3.473926517734     0.318501271512    12.000000000000
         C           -3.664583919771     3.455528528680     0.315576176894    12.000000000000
         C           -4.894302384424     2.752427124836     0.324745161879    12.000000000000
         C           -2.437339174623     2.738958006020     0.327407955431    12.000000000000
         C           -1.209232037322     3.439233283914     0.313728928639    12.000000000000
         C            1.247137392437     3.426027100365     0.312920322234    12.000000000000
         C            0.015171859844     2.724458188241     0.324604505458    12.000000000000
         C            2.467640992715     2.712636326191     0.324704563582    12.000000000000
         C            3.702545294854     3.416006503360     0.311216602739    12.000000000000
         C            6.144976206658     4.818918715067     0.317385512811    12.000000000000
         C            6.166584179136     3.407930824878     0.319552066248    12.000000000000
         C            4.924605778734     2.699754274290     0.326090812485    12.000000000000
         H            7.089901329916     5.358234115159     0.313623631962     1.007825032230
         H           -7.031045930827     5.434034301793     0.313066879532     1.007825032230
         C           -7.339702220848     2.749757883515     0.316874104070    12.000000000000
         C           -7.364886137784     1.361669720519     0.318639642198    12.000000000000
         C           -4.903508788672     1.335773161096     0.313923378006    12.000000000000
         C           -6.132261332336     0.631285705989     0.326213421989    12.000000000000
         C           -3.676878980242     0.618043491609     0.324551094405    12.000000000000
         C           -2.445660765791     1.320987482198     0.314241384204    12.000000000000
         C           -1.223604861027     0.606670850570     0.325670648736    12.000000000000
         C            0.007633689588     1.308729498173     0.324136302453    12.000000000000
         C            1.231215628021     0.593463039523     0.305309716797    12.000000000000
         C            2.460816920806     1.294638385061     0.324814225688    12.000000000000
         C            3.684426074471     0.578544777148     0.323985439411    12.000000000000
         C            4.918704721813     1.283080910125     0.311583617775    12.000000000000
         C            7.369797898236     2.670828552120     0.317791646456    12.000000000000
         C            7.380158486396     1.282563856791     0.319338329301    12.000000000000
         C            6.139795359397     0.565464972136     0.325666671113    12.000000000000
         H           -8.279194979072     3.298464390060     0.312576551948     1.007825032230
         H            8.315109291754     3.209464445559     0.313581070656     1.007825032230
         C           -8.591760117307     0.616178901980     0.318980069815    12.000000000000
         C           -8.599028783429    -0.741293457293     0.321103194398    12.000000000000
         C           -6.139817318844    -0.782790288218     0.314113853063    12.000000000000
         C           -7.380188291863    -1.499919840646     0.321529914604    12.000000000000
         C           -4.918688659982    -1.500408669094     0.326454351212    12.000000000000
         C           -3.684442475410    -0.795890966800     0.315422111148    12.000000000000
         C           -2.460821219973    -1.511998829889     0.325965197337    12.000000000000
         C           -1.231166192046    -0.810827515945     0.313844818546    12.000000000000
         C           -0.007573805113    -1.526072500475     0.321301342849    12.000000000000
         C            1.223643536163    -0.823929028328     0.331306964798    12.000000000000
         C            2.445666469606    -1.538296940071     0.319556952038    12.000000000000
         C            3.676862523121    -0.835361082620     0.315416367643    12.000000000000
         C            6.132244666694    -0.848632490914     0.313888393430    12.000000000000
         C            4.903514965779    -1.553111171605     0.327729467971    12.000000000000
         C            8.599010668965     0.523950215603     0.319200445445    12.000000000000
         C            8.591741308375    -0.833504518258     0.320936825706    12.000000000000
         C            7.364858584664    -1.578986316670     0.320706649014    12.000000000000
         H           -9.528310151544     1.168193798128     0.317510142851     1.007825032230
         H            9.541406794881     1.065918837380     0.318148413184     1.007825032230
         C           -7.369842089494    -2.888198796998     0.323338123026    12.000000000000
         C           -4.924603288776    -2.917090908405     0.315606490590    12.000000000000
         C           -6.166626675393    -3.625305843890     0.321908330749    12.000000000000
         C           -3.702514539430    -3.633335200185     0.325930559776    12.000000000000
         C           -2.467651164839    -2.929979613868     0.313885921419    12.000000000000
         C           -0.015137653833    -2.941795296464     0.314167509928    12.000000000000
         C           -1.247126020952    -3.643385826627     0.325731463336    12.000000000000
         C            1.209240889918    -3.656568329708     0.328270493127    12.000000000000
         C            2.437331842429    -2.956295389240     0.314130734817    12.000000000000
         C            4.894298164045    -2.969776619350     0.314951474888    12.000000000000
         C            3.664611075316    -3.672873496596     0.327830894829    12.000000000000
         C            6.128634835020    -3.691237708782     0.321176736786    12.000000000000
         C            7.339668484970    -2.967066958435     0.322691962868    12.000000000000
         H           -9.541453290984    -1.283217117729     0.322472610571     1.007825032230
         H            9.528257688346    -1.385572724969     0.322186633467     1.007825032230
         H           -8.315169223574    -3.426803504277     0.327510351557     1.007825032230
         H            8.279150962767    -3.515794440958     0.327031518851     1.007825032230
         C           -6.144998368428    -5.036300923848     0.323234328809    12.000000000000
         C           -3.706787527723    -5.049915365182     0.313413360721    12.000000000000
         C           -4.955594237727    -5.752147624559     0.321380495366    12.000000000000
         C           -2.486125505952    -5.763439225474     0.326353031766    12.000000000000
         C           -1.254062515205    -5.064775701066     0.315177425780    12.000000000000
         C            1.201008394143    -5.077934039257     0.316358550038    12.000000000000
         C           -0.030340854139    -5.778173954203     0.324201749701    12.000000000000
         C            3.653745921603    -5.089397426479     0.317116549786    12.000000000000
         C            2.425488516150    -5.789828286592     0.326493480338    12.000000000000
         C            6.091961438086    -5.101911614451     0.323470963459    12.000000000000
         C            4.894972264885    -5.805002072022     0.322234767629    12.000000000000
         H           -7.089896567766    -5.575653493303     0.327637090490     1.007825032230
         H            7.031051029475    -5.651312187397     0.327050743223     1.007825032230
         C           -4.923549501924    -7.187474750742     0.320825726461    12.000000000000
         C           -2.485346267963    -7.196381728994     0.318315834025    12.000000000000
         C           -3.751690071504    -7.872600808701     0.318510512950    12.000000000000
         C           -0.037953136713    -7.208118525534     0.318531559173    12.000000000000
         C           -1.277960280127    -7.881558035731     0.316546866411    12.000000000000
         C            2.409440141001    -7.222675663067     0.319394759984    12.000000000000
         C            1.194745757428    -7.894839016627     0.317242469102    12.000000000000
         C            4.847616872773    -7.239915761644     0.321901574643    12.000000000000
         C            3.668467426150    -7.912441644008     0.319553140279    12.000000000000
         H           -5.869944530142    -7.722484249106     0.322369763327     1.007825032230
         H            5.788245445663    -7.784985840379     0.323028694125     1.007825032230
         H           -3.753531119175    -8.959725220301     0.316674598521     1.007825032230
         H           -1.284308585620    -8.969529043562     0.312119482553     1.007825032230
         H            1.189217394970    -8.982814271654     0.313149832412     1.007825032230
         H            3.658542435098    -8.999514285118     0.317898598857     1.007825032230

  Charge       = 0
  Multiplicity = 1
  Basis Set: JUN-CC-PVDZ
    Blend: JUN-CC-PVDZ
  Basis Set: (JUN-CC-PVDZ AUX)
    Blend: JUN-CC-PVDZ-JKFIT

    Orbital Energies [Eh]
    ---------------------

    Doubly Occupied:

       1A    -11.264043     2A    -11.263671     3A    -11.263649
       4A    -11.263327     5A    -11.263281     6A    -11.263249
       7A    -11.263088     8A    -11.263075     9A    -11.263059
      10A    -11.262879    11A    -11.262742    12A    -11.262718
      13A    -11.262258    14A    -11.262241    15A    -11.262194
      16A    -11.262175    17A    -11.262098    18A    -11.262079
      19A    -11.262042    20A    -11.261998    21A    -11.261982
      22A    -11.261877    23A    -11.261845    24A    -11.261709
      25A    -11.261701    26A    -11.261679    27A    -11.261671
      28A    -11.261628    29A    -11.261621    30A    -11.261542
      31A    -11.261524    32A    -11.261513    33A    -11.261491
      34A    -11.261484    35A    -11.261470    36A    -11.261460
      37A    -11.261291    38A    -11.261283    39A    -11.261267
      40A    -11.261260    41A    -11.261247    42A    -11.261243
      43A    -11.261234    44A    -11.261225    45A    -11.261218
      46A    -11.261204    47A    -11.261190    48A    -11.261178
      49A    -11.261033    50A    -11.261009    51A    -11.261002
      52A    -11.260935    53A    -11.260930    54A    -11.260849
      55A    -11.259879    56A    -11.259855    57A    -11.259840
      58A    -11.259825    59A    -11.259810    60A    -11.259785
      61A    -11.259249    62A    -11.259220    63A    -11.259217
      64A    -11.259166    65A    -11.259161    66A    -11.259131
      67A    -11.258879    68A    -11.258855    69A    -11.258838
      70A    -11.258825    71A    -11.258812    72A    -11.258788
      73A    -11.254494    74A    -11.254490    75A    -11.254469
      76A    -11.254468    77A    -11.254460    78A    -11.254458
      79A    -11.253625    80A    -11.253602    81A    -11.253601
      82A    -11.253583    83A    -11.253574    84A    -11.253570
      85A    -11.253541    86A    -11.253516    87A    -11.253515
      88A    -11.253499    89A    -11.253489    90A    -11.253485
      91A    -11.253022    92A    -11.253018    93A    -11.252996
      94A    -11.252995    95A    -11.252988    96A    -11.252986
      97A     -1.253839    98A     -1.238908    99A     -1.238886
     100A     -1.220374   101A     -1.220366   102A     -1.215339
     103A     -1.200958   104A     -1.195517   105A     -1.188053
     106A     -1.188035   107A     -1.173683   108A     -1.173681
     109A     -1.155533   110A     -1.155527   111A     -1.152616
     112A     -1.144644   113A     -1.144641   114A     -1.128474
     115A     -1.114618   116A     -1.113084   117A     -1.112392
     118A     -1.112365   119A     -1.111542   120A     -1.088339
     121A     -1.088322   122A     -1.076886   123A     -1.076884
     124A     -1.067524   125A     -1.067486   126A     -1.064869
     127A     -1.046711   128A     -1.046703   129A     -1.040390
     130A     -1.038661   131A     -1.038656   132A     -1.025141
     133A     -1.021278   134A     -1.021219   135A     -1.007093
     136A     -1.006710   137A     -1.003709   138A     -1.000396
     139A     -1.000342   140A     -0.991004   141A     -0.970894
     142A     -0.970842   143A     -0.955805   144A     -0.955746
     145A     -0.905480   146A     -0.905476   147A     -0.905441
     148A     -0.905433   149A     -0.904214   150A     -0.892251
     151A     -0.892194   152A     -0.890254   153A     -0.890204
     154A     -0.889349   155A     -0.872139   156A     -0.868991
     157A     -0.851452   158A     -0.847757   159A     -0.847743
     160A     -0.845491   161A     -0.842914   162A     -0.834470
     163A     -0.834459   164A     -0.828044   165A     -0.828036
     166A     -0.784462   167A     -0.784454   168A     -0.783560
     169A     -0.783550   170A     -0.782193   171A     -0.782170
     172A     -0.781923   173A     -0.766890   174A     -0.760683
     175A     -0.750473   176A     -0.733406   177A     -0.726982
     178A     -0.726950   179A     -0.724982   180A     -0.724447
     181A     -0.724417   182A     -0.718387   183A     -0.713666
     184A     -0.713660   185A     -0.699490   186A     -0.699470
     187A     -0.686018   188A     -0.685868   189A     -0.685861
     190A     -0.682076   191A     -0.682069   192A     -0.678686
     193A     -0.653539   194A     -0.650780   195A     -0.650748
     196A     -0.649701   197A     -0.649697   198A     -0.649477
     199A     -0.640830   200A     -0.640788   201A     -0.639991
     202A     -0.639072   203A     -0.635925   204A     -0.635891
     205A     -0.629041   206A     -0.617728   207A     -0.615219
     208A     -0.615195   209A     -0.608705   210A     -0.608699
     211A     -0.599147   212A     -0.599090   213A     -0.598646
     214A     -0.598491   215A     -0.598479   216A     -0.597932
     217A     -0.594978   218A     -0.594963   219A     -0.594628
     220A     -0.594112   221A     -0.591855   222A     -0.591853
     223A     -0.587278   224A     -0.577722   225A     -0.577705
     226A     -0.575674   227A     -0.575660   228A     -0.573283
     229A     -0.569546   230A     -0.568037   231A     -0.568011
     232A     -0.566653   233A     -0.566647   234A     -0.560837
     235A     -0.558622   236A     -0.558584   237A     -0.558348
     238A     -0.554269   239A     -0.550531   240A     -0.547399
     241A     -0.544235   242A     -0.534962   243A     -0.534953
     244A     -0.533443   245A     -0.533428   246A     -0.527988
     247A     -0.527970   248A     -0.527679   249A     -0.517064
     250A     -0.517036   251A     -0.515309   252A     -0.515300
     253A     -0.509550   254A     -0.509538   255A     -0.497924
     256A     -0.496355   257A     -0.496315   258A     -0.493748
     259A     -0.493723   260A     -0.489387   261A     -0.481359
     262A     -0.477362   263A     -0.477359   264A     -0.473897
     265A     -0.469323   266A     -0.466414   267A     -0.466413
     268A     -0.458751   269A     -0.446558   270A     -0.446505
     271A     -0.440970   272A     -0.440707   273A     -0.440685
     274A     -0.434627   275A     -0.433844   276A     -0.407324
     277A     -0.407285   278A     -0.386341   279A     -0.386293
     280A     -0.385667   281A     -0.385665   282A     -0.383682
     283A     -0.354253   284A     -0.354239   285A     -0.350591
     286A     -0.338025   287A     -0.335504   288A     -0.335442
     289A     -0.332644   290A     -0.332642   291A     -0.306997
     292A     -0.301871   293A     -0.301806   294A     -0.300771
     295A     -0.286091   296A     -0.256410   297A     -0.253404
     298A     -0.253361   299A     -0.204185   300A     -0.204092

  @DF-RHF Final Energy: -3650.34161715017308

   => Energetics <=

    Nuclear Repulsion Energy =          15611.4211649754306563
    One-Electron Energy =              -36072.1938088505994529
    Two-Electron Energy =               16810.4310267249966273
    Total Energy =                      -3650.3416171501739882
 Dipole X            :         -0.0008079            0.0002112           -0.0005967
 Dipole Y            :        123.2196721         -123.2131634            0.0065087
 Dipole Z            :       -363.0648727          363.0709313            0.0060586
 Magnitude           :                                                    0.0089121

    SAPT Results
  --------------------------------------------------------------------------------------------------------
    Electrostatics                -18.41815785 [mEh]     -11.55756854 [kcal/mol]     -48.35686677 [kJ/mol]
      Elst10,r                    -18.41815785 [mEh]     -11.55756854 [kcal/mol]     -48.35686677 [kJ/mol]

    Exchange                       23.13790922 [mEh]      14.51925724 [kcal/mol]      60.74857228 [kJ/mol]
      Exch10                       23.13790922 [mEh]      14.51925724 [kcal/mol]      60.74857228 [kJ/mol]
      Exch10(S^2)                  22.98321097 [mEh]      14.42218262 [kcal/mol]      60.34241208 [kJ/mol]

    Induction                     -21.67916444 [mEh]     -13.60388107 [kcal/mol]     -56.91863840 [kJ/mol]
      Ind20,r                     -23.30655852 [mEh]     -14.62508627 [kcal/mol]     -61.19136097 [kJ/mol]
      Exch-Ind20,r                  6.25096253 [mEh]       3.92253821 [kcal/mol]      16.41189987 [kJ/mol]
      delta HF,r (2)               -4.62356845 [mEh]      -2.90133301 [kcal/mol]     -12.13917730 [kJ/mol]

    Dispersion                    -25.64157906 [mEh]     -16.09033378 [kcal/mol]     -67.32195655 [kJ/mol]
      Disp20                      -27.41419492 [mEh]     -17.20266703 [kcal/mol]     -71.97595886 [kJ/mol]
      Exch-Disp20                   1.77261586 [mEh]       1.11233325 [kcal/mol]       4.65400230 [kJ/mol]
      Disp20 (SS)                 -13.70709746 [mEh]      -8.60133352 [kcal/mol]     -35.98797943 [kJ/mol]
      Disp20 (OS)                 -13.70709746 [mEh]      -8.60133352 [kcal/mol]     -35.98797943 [kJ/mol]
      Exch-Disp20 (SS)              1.09151785 [mEh]       0.68493779 [kcal/mol]       2.86577973 [kJ/mol]
      Exch-Disp20 (OS)              0.68109801 [mEh]       0.42739545 [kcal/mol]       1.78822258 [kJ/mol]

  Total HF                        -16.95941308 [mEh]     -10.64219238 [kcal/mol]     -44.52693290 [kJ/mol]
  Total SAPT0                     -42.60099214 [mEh]     -26.73252616 [kcal/mol]    -111.84888945 [kJ/mol]

  Special recipe for scaled SAPT0 (see Manual):
    Electrostatics sSAPT0         -18.41815785 [mEh]     -11.55756854 [kcal/mol]     -48.35686677 [kJ/mol]
    Exchange sSAPT0                23.13790922 [mEh]      14.51925724 [kcal/mol]      60.74857228 [kJ/mol]
    Induction sSAPT0              -21.55208867 [mEh]     -13.52413982 [kcal/mol]     -56.58500100 [kJ/mol]
    Dispersion sSAPT0             -25.60554357 [mEh]     -16.06772117 [kcal/mol]     -67.22734537 [kJ/mol]
  Total sSAPT0                    -42.43788087 [mEh]     -26.63017229 [kcal/mol]    -111.42064087 [kJ/mol]
  --------------------------------------------------------------------------------------------------------

*** Psi4 exiting successfully. Buy a developer a beer!
