                               Psi4 1.9 release

  ==> Input File <==

--------------------------------------------------------------------------
memory 32 GB # how much memory is available ! Depends on the nodes/cores !

molecule dimer {
# monomer A
-1 1    # Charge and multiplicity
B -1.977592e-04  2.742729e-04 2.200034
F  1.123153e-16  1.430594e-17 3.612819
F  1.147860e+00  6.757812e-01 1.728893
F  1.191806e-02 -1.332011e+00 1.729095
F -1.159666e+00  6.560735e-01 1.729174
--
# monomer B
0 1     # Charge and multiplicity
C   1.22531237526482      0.70753866091955      0.00613762728373
C   1.22532433589282     -0.70753852257020     -0.00619318228664
C   -0.00000567409046      1.41496628609039     -0.00672680580738
C   2.45644923379077      1.41832825917820      0.00902448468363
C   0.00001130712078     -1.41497612663474      0.00347275151708
C   -1.22530046906674      0.70754574598412      0.00838914760619
C   2.45643823516184     -1.41832293188077     -0.00843833914343
C   -0.00000085313587      2.83680140328112     -0.00913035594137
C   3.68182717731192      0.70931832800114     -0.00808954934571
C   2.45512052870677      2.83422403348893     -0.00819210630633
C   3.68182158506039     -0.70933346742900      0.00798293467272
C   -1.22531311884624     -0.70752714354401     -0.00512042085974
C   1.22670006104402      3.54346985599427      0.00816696660346
C   0.00000526469929     -2.83678176723568      0.00832091913869
C   -2.45643555300670      1.41831729028492      0.00842454345199
C   2.45512389762097     -2.83422965658853      0.00783102630520
C   -1.22671388474763      3.54346943575023      0.00827029982280
C   4.91451777504333      1.42717324448953     -0.00160886631602
C   3.69315067131765      3.54279566454522     -0.00155906667985
C   -2.45643712022637     -1.41831290883911     -0.00846337726810
C   1.22670532178455     -3.54347386990643     -0.00780316414624
C   -2.45512491866593      2.83421703463423     -0.00818572995999
C   4.91452486062398     -1.42718653794377      0.00136387641845
C   1.22142509354026      4.97013443726031      0.00150231067809
C   4.89300870916237      2.82518837202648     -0.00039219795739
C   -1.22669652864725     -3.54347062507680     -0.00753595973677
C   -3.68181849668397      0.70932533873199     -0.00807686886569
C   3.69314758099218     -3.54280096939050      0.00148176697923
C   -1.22143177215231      4.97012866986289      0.00168580605083
C   6.13477145276790      0.68054831910577     -0.00083909176631
C   3.65678936045204      4.97295361556775     -0.00065042889723
C   -2.45512642789169     -2.83421472106065      0.00758666850712
C   -3.68181869921921     -0.70932533146830      0.00810055625144
C   4.89301309775526     -2.82519973363176      0.00021895393805
C   -0.00000059327114      5.65044773803267      0.00045449734393
C   6.13477559217374     -0.68055448207492      0.00042622874941
C   2.47813196269732      5.65357712333155      0.00063835075260
C   1.22142288457925     -4.97012668293268     -0.00129718634452
C   -3.69316190412301      3.54279732619245     -0.00139355922051
C   -1.22142804110313     -4.97011793159564     -0.00140994817719
C   -4.91452132810043      1.42717581899491     -0.00153192130862
C   3.65678749952045     -4.97295485423912      0.00080007163680
C   -2.47813805026426      5.65357479452875      0.00092287576113
C   -3.69314125872231     -3.54278984697859      0.00136564082345
C   -4.91451200321153     -1.42718062802730      0.00139857359209
C   -0.00000552908399     -5.65043791501335      0.00005899322272
C   -4.89302000425900      2.82518897091939     -0.00040227981744
C   2.47812647313991     -5.65357317188818     -0.00029052915548
C   -3.65679823041642      4.97295655404175     -0.00047374852278
C   -4.89299899901461     -2.82519139505969      0.00006491824035
C   -2.47812801824129     -5.65356579800621     -0.00056571680280
C   -6.13477002348955      0.68054913825639     -0.00086464346868
C   -3.65678835334731     -4.97294365097028      0.00058578382008
C   -6.13476456307132     -0.68055354348201      0.00040575295444
H   5.83528897565761      3.36927626695423      0.00396712770529
H   7.07385965258860      1.22821762089947     -0.00037744837300
H   4.60066374401555      5.51238117445323     -0.00014522814529
H   5.83528386714679     -3.36930568472863     -0.00423551337640
H   -0.00001167146422      6.73853104613662     -0.00389474766392
H   7.07386165167227     -1.22822657074368     -0.00008250934481
H   2.47331421164041      6.74068466339473      0.00017162982210
H   4.60066897122302     -5.51237575717576      0.00039007446835
H   -2.47331820069565      6.74068209160650      0.00047297644710
H   -0.00000978838621     -6.73852780445195      0.00458867820736
H   -5.83530143450167      3.36927132229595      0.00410314985360
H   2.47330840367253     -6.74068500242887      0.00027980126949
H   -4.60067436136587      5.51237839860371      0.00002010017831
H   -5.83527902699321     -3.36928859177951     -0.00451481925734
H   -2.47329986759855     -6.74067870613986     -0.00016951527498
H   -7.07385728692578      1.22822084484047     -0.00046143985387
H   -4.60067330624313     -5.51236229778631      0.00021776644566
H   -7.07385645456741     -1.22822025997701     -0.00017736581114

    units angstrom      # Angstroms are the default
    no_reorient         # Geometry fixed, default
    symmetry c1         # C1 symmetry, default
}

set {
    scf_type DF         # Density fitting, faster than exact integrals
    freeze_core True    # Freeze core electrons
    basis jun-cc-pVDZ   # Jun-cc-pVDZ basis set, recommended for sSAPT0 in https://doi.org/10.1063/1.4867135
}

energy('ssapt0')        # Compute sSAPT0 energy, includes also SAPT0
--------------------------------------------------------------------------

  //              Dimer HF             //
    Molecular point group: c1
  Charge       = -1
  Multiplicity = 1
  Basis Set: JUN-CC-PVDZ
    Blend: JUN-CC-PVDZ
  Basis Set: (JUN-CC-PVDZ AUX)
    Blend: JUN-CC-PVDZ-JKFIT
  @DF-RHF Final Energy: -2478.30471525279381
    Total Energy =                      -2478.3047152527942671
 Dipole X            :         -0.0011672            0.0000481           -0.0011191
 Dipole Y            :          0.0048802           -0.0001453            0.0047349
 Dipole Z            :         12.3522573          -13.4865782           -1.1343209
 Magnitude           :                                                    1.1343314
  //            Monomer A HF           //
    Molecular point group: c1
  Multiplicity = 1
  Basis Set: JUN-CC-PVDZ
    Blend: JUN-CC-PVDZ
  Basis Set: (JUN-CC-PVDZ AUX)
    Blend: JUN-CC-PVDZ-JKFIT
  @DF-RHF Final Energy:  -422.77831775810881
    Total Energy =                       -422.7783177581088125
  //            Monomer B HF           //
    Molecular point group: c1

    Geometry (in Angstrom), charge = 0, multiplicity = 1:

       Center              X                  Y                   Z               Mass
    ------------   -----------------  -----------------  -----------------  -----------------
      Gh(B)          -0.000198161052     0.000273808717     1.945892941868    11.009305360000
      Gh(F)          -0.000000401852    -0.000000464183     3.358677941868    18.998403162730
      Gh(F)           1.147859598148     0.675780735817     1.474751941868    18.998403162730
      Gh(F)           0.011917658148    -1.332011464183     1.474953941868    18.998403162730
      Gh(F)          -1.159666401852     0.656073035817     1.475032941868    18.998403162730
         C            1.225311973413     0.707538196736    -0.248003430849    12.000000000000
         C            1.225323934041    -0.707538986754    -0.260334240419    12.000000000000
         C           -0.000006075942     1.414965821907    -0.260867863940    12.000000000000
         C            2.456448831939     1.418327794995    -0.245116573449    12.000000000000
         C            0.000010905269    -1.414976590818    -0.250668306615    12.000000000000
         C           -1.225300870919     0.707545281801    -0.245751910526    12.000000000000
         C            2.456437833310    -1.418323396064    -0.262579397276    12.000000000000
         C           -0.000001254988     2.836800939098    -0.263271414074    12.000000000000
         C            3.681826775460     0.709317863818    -0.262230607478    12.000000000000
         C            2.455120126855     2.834223569306    -0.262333164439    12.000000000000
         C            3.681821183209    -0.709333931612    -0.246158123460    12.000000000000
         C           -1.225313520698    -0.707527607727    -0.259261478992    12.000000000000
         C            1.226699659192     3.543469391811    -0.245974091529    12.000000000000
         C            0.000004862847    -2.836782231419    -0.245820138994    12.000000000000
         C           -2.456435954859     1.418316826102    -0.245716514680    12.000000000000
         C            2.455123495769    -2.834230120772    -0.246310031827    12.000000000000
         C           -1.226714286599     3.543468971567    -0.245870758310    12.000000000000
         C            4.914517373191     1.427172780306    -0.255749924448    12.000000000000
         C            3.693150269466     3.542795200362    -0.255700124812    12.000000000000
         C           -2.456437522078    -1.418313373022    -0.262604435400    12.000000000000
         C            1.226704919933    -3.543474334090    -0.261944222279    12.000000000000
         C           -2.455125320518     2.834216570451    -0.262326788092    12.000000000000
         C            4.914524458772    -1.427187002127    -0.252777181714    12.000000000000
         C            1.221424691688     4.970133973077    -0.252638747454    12.000000000000
         C            4.893008307311     2.825187907843    -0.254533256090    12.000000000000
         C           -1.226696930499    -3.543471089260    -0.261677017869    12.000000000000
         C           -3.681818898536     0.709324874549    -0.262217926998    12.000000000000
         C            3.693147179140    -3.542801433574    -0.252659291153    12.000000000000
         C           -1.221432174004     4.970128205680    -0.252455252081    12.000000000000
         C            6.134771050916     0.680547854922    -0.254980149899    12.000000000000
         C            3.656788958600     4.972953151384    -0.254791487030    12.000000000000
         C           -2.455126829744    -2.834215185244    -0.246554389625    12.000000000000
         C           -3.681819101071    -0.709325795652    -0.246040501881    12.000000000000
         C            4.893012695903    -2.825200197815    -0.253922104194    12.000000000000
         C           -0.000000995123     5.650447273849    -0.253686560788    12.000000000000
         C            6.134775190322    -0.680554946258    -0.253714829383    12.000000000000
         C            2.478131560845     5.653576659148    -0.253502707380    12.000000000000
         C            1.221422482727    -4.970127147116    -0.255438244477    12.000000000000
         C           -3.693162305975     3.542796862009    -0.255534617353    12.000000000000
         C           -1.221428442955    -4.970118395779    -0.255551006310    12.000000000000
         C           -4.914521729952     1.427175354812    -0.255672979441    12.000000000000
         C            3.656787097669    -4.972955318422    -0.253340986496    12.000000000000
         C           -2.478138452116     5.653574330345    -0.253218182371    12.000000000000
         C           -3.693141660574    -3.542790311162    -0.252775417309    12.000000000000
         C           -4.914512405063    -1.427181092211    -0.252742484540    12.000000000000
         C           -0.000005930936    -5.650438379197    -0.254082064910    12.000000000000
         C           -4.893020406111     2.825188506736    -0.254543337950    12.000000000000
         C            2.478126071288    -5.653573636072    -0.254431587288    12.000000000000
         C           -3.656798632268     4.972956089858    -0.254614806655    12.000000000000
         C           -4.892999400866    -2.825191859243    -0.254076139892    12.000000000000
         C           -2.478128420093    -5.653566262190    -0.254706774935    12.000000000000
         C           -6.134770425341     0.680548674073    -0.255005701601    12.000000000000
         C           -3.656788755199    -4.972944115154    -0.253555274312    12.000000000000
         C           -6.134764964923    -0.680554007665    -0.253735305178    12.000000000000
         H            5.835288573806     3.369275802771    -0.250173930427     1.007825032230
         H            7.073859250737     1.228217156716    -0.254518506505     1.007825032230
         H            4.600663342164     5.512380710270    -0.254286286278     1.007825032230
         H            5.835283465295    -3.369306148912    -0.258376571509     1.007825032230
         H           -0.000012073316     6.738530581953    -0.258035805796     1.007825032230
         H            7.073861249820    -1.228227034927    -0.254223567477     1.007825032230
         H            2.473313809789     6.740684199211    -0.253969428310     1.007825032230
         H            4.600668569371    -5.512376221359    -0.253750983664     1.007825032230
         H           -2.473318602548     6.740681627423    -0.253668081685     1.007825032230
         H           -0.000010190238    -6.738528268635    -0.249552379925     1.007825032230
         H           -5.835301836354     3.369270858113    -0.250037908279     1.007825032230
         H            2.473308001821    -6.740685466612    -0.253861256863     1.007825032230
         H           -4.600674763218     5.512377934420    -0.254120957954     1.007825032230
         H           -5.835279428845    -3.369289055963    -0.258655877390     1.007825032230
         H           -2.473300269450    -6.740679170323    -0.254310573407     1.007825032230
         H           -7.073857688778     1.228220380657    -0.254602497986     1.007825032230
         H           -4.600673708095    -5.512362761970    -0.253923291687     1.007825032230
         H           -7.073856856419    -1.228220724160    -0.254318423943     1.007825032230

  Charge       = 0
  Multiplicity = 1
  Basis Set: JUN-CC-PVDZ
    Blend: JUN-CC-PVDZ
  Basis Set: (JUN-CC-PVDZ AUX)
    Blend: JUN-CC-PVDZ-JKFIT

    Orbital Energies [Eh]
    ---------------------

    Doubly Occupied:

       1A    -11.260744     2A    -11.260290     3A    -11.260289
       4A    -11.259458     5A    -11.259457     6A    -11.259248
       7A    -11.258967     8A    -11.258914     9A    -11.258913
      10A    -11.258616    11A    -11.258612    12A    -11.258471
      13A    -11.258437    14A    -11.258433    15A    -11.258425
      16A    -11.258364    17A    -11.258360    18A    -11.258349
      19A    -11.258346    20A    -11.258343    21A    -11.258338
      22A    -11.258292    23A    -11.258287    24A    -11.258103
      25A    -11.257228    26A    -11.257170    27A    -11.257169
      28A    -11.257034    29A    -11.257034    30A    -11.256953
      31A    -11.256314    32A    -11.256245    33A    -11.256245
      34A    -11.256139    35A    -11.256138    36A    -11.256093
      37A    -11.252253    38A    -11.252253    39A    -11.252251
      40A    -11.252250    41A    -11.252248    42A    -11.252246
      43A    -11.251364    44A    -11.251364    45A    -11.251363
      46A    -11.251302    47A    -11.251301    48A    -11.251299
      49A    -11.250815    50A    -11.250814    51A    -11.250813
      52A    -11.250810    53A    -11.250809    54A    -11.250807
      55A     -1.243890    56A     -1.219700    57A     -1.219699
      58A     -1.189459    59A     -1.189451    60A     -1.180781
      61A     -1.157502    62A     -1.148903    63A     -1.135346
      64A     -1.135339    65A     -1.113135    66A     -1.113130
      67A     -1.082314    68A     -1.082307    69A     -1.078460
      70A     -1.065930    71A     -1.065926    72A     -1.039316
      73A     -1.024131    74A     -1.021599    75A     -1.021556
      76A     -1.017682    77A     -1.012746    78A     -0.986909
      79A     -0.986863    80A     -0.961808    81A     -0.961759
      82A     -0.894222    83A     -0.894195    84A     -0.887780
      85A     -0.886035    86A     -0.885977    87A     -0.881285
      88A     -0.881238    89A     -0.861821    90A     -0.837379
      91A     -0.818131    92A     -0.816474    93A     -0.812017
      94A     -0.812008    95A     -0.794623    96A     -0.794612
      97A     -0.746502    98A     -0.744736    99A     -0.733274
     100A     -0.733266   101A     -0.732112   102A     -0.732088
     103A     -0.716381   104A     -0.698902   105A     -0.698891
     106A     -0.693486   107A     -0.693470   108A     -0.661158
     109A     -0.652944   110A     -0.651013   111A     -0.650190
     112A     -0.650185   113A     -0.639299   114A     -0.639297
     115A     -0.629606   116A     -0.627407   117A     -0.627391
     118A     -0.606516   119A     -0.605786   120A     -0.601549
     121A     -0.599653   122A     -0.599622   123A     -0.593553
     124A     -0.591047   125A     -0.591037   126A     -0.585243
     127A     -0.576361   128A     -0.576355   129A     -0.567275
     130A     -0.567260   131A     -0.565825   132A     -0.565806
     133A     -0.558582   134A     -0.554765   135A     -0.554758
     136A     -0.538528   137A     -0.538526   138A     -0.538150
     139A     -0.538144   140A     -0.529640   141A     -0.528208
     142A     -0.522791   143A     -0.522785   144A     -0.500439
     145A     -0.495553   146A     -0.493169   147A     -0.487798
     148A     -0.484981   149A     -0.481659   150A     -0.481651
     151A     -0.470347   152A     -0.470329   153A     -0.450877
     154A     -0.450799   155A     -0.439042   156A     -0.439033
     157A     -0.404688   158A     -0.404665   159A     -0.403317
     160A     -0.375397   161A     -0.375394   162A     -0.349077
     163A     -0.337467   164A     -0.336463   165A     -0.336406
     166A     -0.311021   167A     -0.298092   168A     -0.284234
     169A     -0.284180   170A     -0.224831   171A     -0.224765

  @DF-RHF Final Energy: -2055.89521629143928

   => Energetics <=

    Nuclear Repulsion Energy =           6452.5568002797772351
    One-Electron Energy =              -15636.5106943797709391
    Two-Electron Energy =                7128.0586778085544211
    Total Energy =                      -2055.8952162914392829
 Dipole X            :         -0.0000006            0.0000419            0.0000413
 Dipole Y            :          0.0000813           -0.0000426            0.0000388
 Dipole Z            :        164.2550713         -164.2493360            0.0057353
 Magnitude           :                                                    0.0057356

    SAPT Results
  --------------------------------------------------------------------------------------------------------
    Electrostatics               -374.11959307 [mEh]    -234.76358898 [kcal/mol]    -982.25085627 [kJ/mol]
      Elst10,r                   -374.11959307 [mEh]    -234.76358898 [kcal/mol]    -982.25085627 [kJ/mol]

    Exchange                      860.47144720 [mEh]     539.95398503 [kcal/mol]    2259.16747337 [kJ/mol]
      Exch10                      860.47144720 [mEh]     539.95398503 [kcal/mol]    2259.16747337 [kJ/mol]
      Exch10(S^2)                 790.95203896 [mEh]     496.32989775 [kcal/mol]    2076.64429220 [kJ/mol]

    Induction                    -117.53305738 [mEh]     -73.75310699 [kcal/mol]    -308.58299963 [kJ/mol]
      Ind20,r                    -597.24683781 [mEh]    -374.77804891 [kcal/mol]   -1568.07135664 [kJ/mol]
      Exch-Ind20,r                461.10136603 [mEh]     289.34547556 [kcal/mol]    1210.62146973 [kJ/mol]
      delta HF,r (2)               18.61241440 [mEh]      11.67946637 [kcal/mol]      48.86688728 [kJ/mol]

    Dispersion                    -86.84397066 [mEh]     -54.49541433 [kcal/mol]    -228.00881355 [kJ/mol]
      Disp20                     -139.87423276 [mEh]     -87.77240619 [kcal/mol]    -367.23974751 [kJ/mol]
      Exch-Disp20                  53.03026210 [mEh]      33.27699187 [kcal/mol]     139.23093397 [kJ/mol]
      Disp20 (SS)                 -69.93711638 [mEh]     -43.88620310 [kcal/mol]    -183.61987376 [kJ/mol]
      Disp20 (OS)                 -69.93711638 [mEh]     -43.88620310 [kcal/mol]    -183.61987376 [kJ/mol]
      Exch-Disp20 (SS)             25.59663361 [mEh]      16.06213009 [kcal/mol]      67.20395229 [kJ/mol]
      Exch-Disp20 (OS)             27.43362849 [mEh]      17.21486178 [kcal/mol]      72.02698168 [kJ/mol]

  Total HF                        368.81879675 [mEh]     231.43728907 [kcal/mol]     968.33361747 [kJ/mol]
  Total SAPT0                     281.97482610 [mEh]     176.94187474 [kcal/mol]     740.32480392 [kJ/mol]

  Special recipe for scaled SAPT0 (see Manual):
    Electrostatics sSAPT0        -374.11959307 [mEh]    -234.76358898 [kcal/mol]    -982.25085627 [kJ/mol]
    Exchange sSAPT0               860.47144720 [mEh]     539.95398503 [kcal/mol]    2259.16747337 [kJ/mol]
    Induction sSAPT0               15.04958451 [mEh]       9.44375686 [kcal/mol]      39.51267869 [kJ/mol]
    Dispersion sSAPT0             -71.59593028 [mEh]     -44.92712453 [kcal/mol]    -187.97508904 [kJ/mol]
  Total sSAPT0                    429.80550837 [mEh]     269.70702838 [kcal/mol]    1128.45420675 [kJ/mol]
  --------------------------------------------------------------------------------------------------------

*** Psi4 exiting successfully. Buy a developer a beer!
