                               Psi4 1.9 release

  ==> Input File <==

--------------------------------------------------------------------------
memory 48 GB # how much memory is available ! Depends on the nodes/cores !

molecule dimer {
# monomer A
+1 1    # Charge and multiplicity
C  0.680067 -0.008042 -5.515929
C -0.680504 -0.006014 -5.515545
N -1.085635 -0.005016 -4.197221
C  0.000108 -0.001740 -3.415820
C -2.477365  0.044390 -3.729242
N  1.085222 -0.005016 -4.197221
H  1.385146 -0.015870 -6.333368
H -1.385302 -0.006204 -6.333214
H -0.000009  0.000007 -2.334731
C  2.478117 -0.021908 -3.732123
H  2.490592  0.005437 -2.641870
H  2.967028 -0.935354 -4.079299
H  3.001428  0.853575 -4.123595
H -2.857359  1.066461 -3.809201
H -3.082679 -0.625694 -4.342306
H -2.518128 -0.282594 -2.689294
--
# monomer B
0 1     # Charge and multiplicity
C   1.22531237526482      0.70753866091955      0.00613762728373
C   1.22532433589282     -0.70753852257020     -0.00619318228664
C   -0.00000567409046      1.41496628609039     -0.00672680580738
C   2.45644923379077      1.41832825917820      0.00902448468363
C   0.00001130712078     -1.41497612663474      0.00347275151708
C   -1.22530046906674      0.70754574598412      0.00838914760619
C   2.45643823516184     -1.41832293188077     -0.00843833914343
C   -0.00000085313587      2.83680140328112     -0.00913035594137
C   3.68182717731192      0.70931832800114     -0.00808954934571
C   2.45512052870677      2.83422403348893     -0.00819210630633
C   3.68182158506039     -0.70933346742900      0.00798293467272
C   -1.22531311884624     -0.70752714354401     -0.00512042085974
C   1.22670006104402      3.54346985599427      0.00816696660346
C   0.00000526469929     -2.83678176723568      0.00832091913869
C   -2.45643555300670      1.41831729028492      0.00842454345199
C   2.45512389762097     -2.83422965658853      0.00783102630520
C   -1.22671388474763      3.54346943575023      0.00827029982280
C   4.91451777504333      1.42717324448953     -0.00160886631602
C   3.69315067131765      3.54279566454522     -0.00155906667985
C   -2.45643712022637     -1.41831290883911     -0.00846337726810
C   1.22670532178455     -3.54347386990643     -0.00780316414624
C   -2.45512491866593      2.83421703463423     -0.00818572995999
C   4.91452486062398     -1.42718653794377      0.00136387641845
C   1.22142509354026      4.97013443726031      0.00150231067809
C   4.89300870916237      2.82518837202648     -0.00039219795739
C   -1.22669652864725     -3.54347062507680     -0.00753595973677
C   -3.68181849668397      0.70932533873199     -0.00807686886569
C   3.69314758099218     -3.54280096939050      0.00148176697923
C   -1.22143177215231      4.97012866986289      0.00168580605083
C   6.13477145276790      0.68054831910577     -0.00083909176631
C   3.65678936045204      4.97295361556775     -0.00065042889723
C   -2.45512642789169     -2.83421472106065      0.00758666850712
C   -3.68181869921921     -0.70932533146830      0.00810055625144
C   4.89301309775526     -2.82519973363176      0.00021895393805
C   -0.00000059327114      5.65044773803267      0.00045449734393
C   6.13477559217374     -0.68055448207492      0.00042622874941
C   2.47813196269732      5.65357712333155      0.00063835075260
C   1.22142288457925     -4.97012668293268     -0.00129718634452
C   -3.69316190412301      3.54279732619245     -0.00139355922051
C   -1.22142804110313     -4.97011793159564     -0.00140994817719
C   -4.91452132810043      1.42717581899491     -0.00153192130862
C   3.65678749952045     -4.97295485423912      0.00080007163680
C   -2.47813805026426      5.65357479452875      0.00092287576113
C   -3.69314125872231     -3.54278984697859      0.00136564082345
C   -4.91451200321153     -1.42718062802730      0.00139857359209
C   -0.00000552908399     -5.65043791501335      0.00005899322272
C   -4.89302000425900      2.82518897091939     -0.00040227981744
C   2.47812647313991     -5.65357317188818     -0.00029052915548
C   -3.65679823041642      4.97295655404175     -0.00047374852278
C   -4.89299899901461     -2.82519139505969      0.00006491824035
C   -2.47812801824129     -5.65356579800621     -0.00056571680280
C   -6.13477002348955      0.68054913825639     -0.00086464346868
C   -3.65678835334731     -4.97294365097028      0.00058578382008
C   -6.13476456307132     -0.68055354348201      0.00040575295444
H   5.83528897565761      3.36927626695423      0.00396712770529
H   7.07385965258860      1.22821762089947     -0.00037744837300
H   4.60066374401555      5.51238117445323     -0.00014522814529
H   5.83528386714679     -3.36930568472863     -0.00423551337640
H   -0.00001167146422      6.73853104613662     -0.00389474766392
H   7.07386165167227     -1.22822657074368     -0.00008250934481
H   2.47331421164041      6.74068466339473      0.00017162982210
H   4.60066897122302     -5.51237575717576      0.00039007446835
H   -2.47331820069565      6.74068209160650      0.00047297644710
H   -0.00000978838621     -6.73852780445195      0.00458867820736
H   -5.83530143450167      3.36927132229595      0.00410314985360
H   2.47330840367253     -6.74068500242887      0.00027980126949
H   -4.60067436136587      5.51237839860371      0.00002010017831
H   -5.83527902699321     -3.36928859177951     -0.00451481925734
H   -2.47329986759855     -6.74067870613986     -0.00016951527498
H   -7.07385728692578      1.22822084484047     -0.00046143985387
H   -4.60067330624313     -5.51236229778631      0.00021776644566
H   -7.07385645456741     -1.22822025997701     -0.00017736581114

    units angstrom      # Angstroms are the default
    no_reorient         # Geometry fixed, default
    symmetry c1         # C1 symmetry, default
}

set {
    scf_type DF         # Density fitting, faster than exact integrals
    freeze_core True    # Freeze core electrons
    basis jun-cc-pVDZ   # Jun-cc-pVDZ basis set, recommended for sSAPT0 in https://doi.org/10.1063/1.4867135
}

energy('ssapt0')        # Compute sSAPT0 energy, includes also SAPT0
--------------------------------------------------------------------------

  //              Dimer HF             //
    Molecular point group: c1
  Charge       = 1
  Multiplicity = 1
  Basis Set: JUN-CC-PVDZ
    Blend: JUN-CC-PVDZ
  Basis Set: (JUN-CC-PVDZ AUX)
    Blend: JUN-CC-PVDZ-JKFIT
  @DF-RHF Final Energy: -2359.21233721410863
    Total Energy =                      -2359.2123372141086293
 Dipole X            :         -0.0025888            0.0006313           -0.0019575
 Dipole Y            :         -0.0534451            0.0560211            0.0025760
 Dipole Z            :         15.5428643          -20.5277316           -4.9848673
 Magnitude           :                                                    4.9848683
  //            Monomer A HF           //
    Molecular point group: c1
  Multiplicity = 1
  Basis Set: JUN-CC-PVDZ
    Blend: JUN-CC-PVDZ
  Basis Set: (JUN-CC-PVDZ AUX)
    Blend: JUN-CC-PVDZ-JKFIT
  @DF-RHF Final Energy:  -303.29815998729384
    Total Energy =                       -303.2981599872938432
  //            Monomer B HF           //
    Molecular point group: c1

    Geometry (in Angstrom), charge = 0, multiplicity = 1:

       Center              X                  Y                   Z               Mass
    ------------   -----------------  -----------------  -----------------  -----------------
      Gh(C)           0.680066520158    -0.008042372515    -4.968997653585    12.000000000000
      Gh(C)          -0.680504479842    -0.006014372515    -4.968613653585    12.000000000000
      Gh(N)          -1.085635479842    -0.005016372515    -3.650289653585    14.003074004430
      Gh(C)           0.000107520158    -0.001740372515    -2.868888653585    12.000000000000
      Gh(C)          -2.477365479842     0.044389627485    -3.182310653585    12.000000000000
      Gh(N)           1.085221520158    -0.005016372515    -3.650289653585    14.003074004430
      Gh(H)           1.385145520158    -0.015870372515    -5.786436653585     1.007825032230
      Gh(H)          -1.385302479842    -0.006204372515    -5.786282653585     1.007825032230
      Gh(H)          -0.000009479842     0.000006627485    -1.787799653585     1.007825032230
      Gh(C)           2.478116520158    -0.021908372515    -3.185191653585    12.000000000000
      Gh(H)           2.490591520158     0.005436627485    -2.094938653585     1.007825032230
      Gh(H)           2.967027520158    -0.935354372515    -3.532367653585     1.007825032230
      Gh(H)           3.001427520158     0.853574627485    -3.576663653585     1.007825032230
      Gh(H)          -2.857359479842     1.066460627485    -3.262269653585     1.007825032230
      Gh(H)          -3.082679479842    -0.625694372515    -3.795374653585     1.007825032230
      Gh(H)          -2.518128479842    -0.282594372515    -2.142362653585     1.007825032230
         C            1.225311895423     0.707538288405     0.553068973699    12.000000000000
         C            1.225323856051    -0.707538895085     0.540738164129    12.000000000000
         C           -0.000006153932     1.414965913575     0.540204540608    12.000000000000
         C            2.456448753949     1.418327886663     0.555955831099    12.000000000000
         C            0.000010827279    -1.414976499150     0.550404097933    12.000000000000
         C           -1.225300948908     0.707545373469     0.555320494022    12.000000000000
         C            2.456437755320    -1.418323304396     0.538493007272    12.000000000000
         C           -0.000001332978     2.836801030766     0.537800990474    12.000000000000
         C            3.681826697470     0.709317955486     0.538841797070    12.000000000000
         C            2.455120048865     2.834223660974     0.538739240109    12.000000000000
         C            3.681821105219    -0.709333839944     0.554914281088    12.000000000000
         C           -1.225313598688    -0.707527516059     0.541810925556    12.000000000000
         C            1.226699581202     3.543469483479     0.555098313019    12.000000000000
         C            0.000004784858    -2.836782139751     0.555252265554    12.000000000000
         C           -2.456436032848     1.418316917770     0.555355889867    12.000000000000
         C            2.455123417779    -2.834230029103     0.554762372721    12.000000000000
         C           -1.226714364589     3.543469063235     0.555201646238    12.000000000000
         C            4.914517295202     1.427172871975     0.545322480099    12.000000000000
         C            3.693150191476     3.542795292030     0.545372279736    12.000000000000
         C           -2.456437600068    -1.418313281354     0.538467969147    12.000000000000
         C            1.226704841943    -3.543474242421     0.539128182269    12.000000000000
         C           -2.455125398508     2.834216662119     0.538745616455    12.000000000000
         C            4.914524380782    -1.427186910459     0.548295222834    12.000000000000
         C            1.221424613699     4.970134064745     0.548433657094    12.000000000000
         C            4.893008229321     2.825187999512     0.546539148458    12.000000000000
         C           -1.226697008489    -3.543470997592     0.539395386679    12.000000000000
         C           -3.681818976526     0.709324966217     0.538854477550    12.000000000000
         C            3.693147101150    -3.542801341905     0.548413113395    12.000000000000
         C           -1.221432251994     4.970128297348     0.548617152466    12.000000000000
         C            6.134770972926     0.680547946591     0.546092254649    12.000000000000
         C            3.656788880610     4.972953243053     0.546280917518    12.000000000000
         C           -2.455126907733    -2.834215093576     0.554518014923    12.000000000000
         C           -3.681819179061    -0.709325703983     0.555031902667    12.000000000000
         C            4.893012617914    -2.825200106147     0.547150300353    12.000000000000
         C           -0.000001073113     5.650447365518     0.547385843759    12.000000000000
         C            6.134775112332    -0.680554854590     0.547357575165    12.000000000000
         C            2.478131482856     5.653576750817     0.547569697168    12.000000000000
         C            1.221422404738    -4.970127055448     0.545634160071    12.000000000000
         C           -3.693162383965     3.542796953677     0.545537787195    12.000000000000
         C           -1.221428520945    -4.970118304111     0.545521398238    12.000000000000
         C           -4.914521807942     1.427175446480     0.545399425107    12.000000000000
         C            3.656787019679    -4.972955226754     0.547731418052    12.000000000000
         C           -2.478138530106     5.653574422014     0.547854222177    12.000000000000
         C           -3.693141738564    -3.542790219494     0.548296987239    12.000000000000
         C           -4.914512483053    -1.427181000542     0.548329920008    12.000000000000
         C           -0.000006008926    -5.650438287528     0.546990339638    12.000000000000
         C           -4.893020484101     2.825188598404     0.546529066598    12.000000000000
         C            2.478125993298    -5.653573544403     0.546640817260    12.000000000000
         C           -3.656798710258     4.972956181527     0.546457597893    12.000000000000
         C           -4.892999478856    -2.825191767575     0.546996264656    12.000000000000
         C           -2.478128498083    -5.653566170521     0.546365629613    12.000000000000
         C           -6.134770503331     0.680548765741     0.546066702947    12.000000000000
         C           -3.656788833189    -4.972944023485     0.547517130236    12.000000000000
         C           -6.134765042913    -0.680553915997     0.547337099370    12.000000000000
         H            5.835288495816     3.369275894439     0.550898474121     1.007825032230
         H            7.073859172747     1.228217248385     0.546553898042     1.007825032230
         H            4.600663264174     5.512380801938     0.546786118270     1.007825032230
         H            5.835283387305    -3.369306057244     0.542695833039     1.007825032230
         H           -0.000012151306     6.738530673622     0.543036598752     1.007825032230
         H            7.073861171831    -1.228226943259     0.546848837071     1.007825032230
         H            2.473313731799     6.740684290880     0.547102976238     1.007825032230
         H            4.600668491381    -5.512376129691     0.547321420884     1.007825032230
         H           -2.473318680537     6.740681719092     0.547404322863     1.007825032230
         H           -0.000010268228    -6.738528176967     0.551520024623     1.007825032230
         H           -5.835301914343     3.369270949781     0.551034496269     1.007825032230
         H            2.473307923831    -6.740685374944     0.547211147685     1.007825032230
         H           -4.600674841208     5.512378026089     0.546951446594     1.007825032230
         H           -5.835279506835    -3.369288964294     0.542416527158     1.007825032230
         H           -2.473300347440    -6.740679078655     0.546761831140     1.007825032230
         H           -7.073857766768     1.228220472326     0.546469906562     1.007825032230
         H           -4.600673786085    -5.512362670301     0.547149112861     1.007825032230
         H           -7.073856934409    -1.228220632492     0.546753980604     1.007825032230

  Charge       = 0
  Multiplicity = 1
  Basis Set: JUN-CC-PVDZ
    Blend: JUN-CC-PVDZ
  Basis Set: (JUN-CC-PVDZ AUX)
    Blend: JUN-CC-PVDZ-JKFIT

    Orbital Energies [Eh]
    ---------------------

    Doubly Occupied:

       1A    -11.260590     2A    -11.260173     3A    -11.260101
       4A    -11.259416     5A    -11.259358     6A    -11.259199
       7A    -11.258970     8A    -11.258915     9A    -11.258871
      10A    -11.258575    11A    -11.258560    12A    -11.258461
      13A    -11.258405    14A    -11.258400    15A    -11.258395
      16A    -11.258365    17A    -11.258354    18A    -11.258338
      19A    -11.258333    20A    -11.258324    21A    -11.258322
      22A    -11.258269    23A    -11.258241    24A    -11.258007
      25A    -11.257266    26A    -11.257225    27A    -11.257180
      28A    -11.257087    29A    -11.257043    30A    -11.256980
      31A    -11.256366    32A    -11.256320    33A    -11.256262
      34A    -11.256197    35A    -11.256153    36A    -11.256125
      37A    -11.252217    38A    -11.252214    39A    -11.252213
      40A    -11.252211    41A    -11.252190    42A    -11.252187
      43A    -11.251311    44A    -11.251309    45A    -11.251302
      46A    -11.251298    47A    -11.251295    48A    -11.251291
      49A    -11.250778    50A    -11.250776    51A    -11.250774
      52A    -11.250772    53A    -11.250751    54A    -11.250748
      55A     -1.243901    56A     -1.219680    57A     -1.219650
      58A     -1.189412    59A     -1.189393    60A     -1.180798
      61A     -1.157436    62A     -1.148848    63A     -1.135356
      64A     -1.135321    65A     -1.113071    66A     -1.113066
      67A     -1.082285    68A     -1.082274    69A     -1.078459
      70A     -1.065867    71A     -1.065857    72A     -1.039263
      73A     -1.024113    74A     -1.021621    75A     -1.021551
      76A     -1.017606    77A     -1.012686    78A     -0.986880
      79A     -0.986818    80A     -0.961761    81A     -0.961701
      82A     -0.894154    83A     -0.894134    84A     -0.887768
      85A     -0.886011    86A     -0.885971    87A     -0.881236
      88A     -0.881196    89A     -0.861768    90A     -0.837302
      91A     -0.818068    92A     -0.816451    93A     -0.811984
      94A     -0.811978    95A     -0.794566    96A     -0.794551
      97A     -0.746461    98A     -0.744704    99A     -0.733262
     100A     -0.733249   101A     -0.732049   102A     -0.732031
     103A     -0.716353   104A     -0.698853   105A     -0.698810
     106A     -0.693460   107A     -0.693404   108A     -0.661104
     109A     -0.652955   110A     -0.650992   111A     -0.650135
     112A     -0.650122   113A     -0.639240   114A     -0.639208
     115A     -0.629567   116A     -0.627368   117A     -0.627360
     118A     -0.606401   119A     -0.605716   120A     -0.601498
     121A     -0.599618   122A     -0.599539   123A     -0.593480
     124A     -0.591061   125A     -0.591020   126A     -0.585173
     127A     -0.576450   128A     -0.576309   129A     -0.567212
     130A     -0.567184   131A     -0.565802   132A     -0.565793
     133A     -0.558564   134A     -0.554725   135A     -0.554706
     136A     -0.538468   137A     -0.538465   138A     -0.538191
     139A     -0.538136   140A     -0.529577   141A     -0.528136
     142A     -0.522751   143A     -0.522706   144A     -0.500377
     145A     -0.495570   146A     -0.493103   147A     -0.487774
     148A     -0.484915   149A     -0.481608   150A     -0.481602
     151A     -0.470303   152A     -0.470244   153A     -0.450838
     154A     -0.450777   155A     -0.438998   156A     -0.438997
     157A     -0.404685   158A     -0.404631   159A     -0.403293
     160A     -0.375353   161A     -0.375349   162A     -0.349058
     163A     -0.337501   164A     -0.336461   165A     -0.336446
     166A     -0.311009   167A     -0.298046   168A     -0.284239
     169A     -0.284198   170A     -0.224819   171A     -0.224760

  @DF-RHF Final Energy: -2055.89504340067379

   => Energetics <=

    Nuclear Repulsion Energy =           6452.5568002797781446
    One-Electron Energy =              -15636.5218086146342102
    Two-Electron Energy =                7128.0699649341831901
    Total Energy =                      -2055.8950434006737851
 Dipole X            :         -0.0003814           -0.0000085           -0.0003899
 Dipole Y            :         -0.0001193            0.0000167           -0.0001026
 Dipole Z            :       -353.4691869          353.4728124            0.0036254
 Magnitude           :                                                    0.0036478

    SAPT Results
  --------------------------------------------------------------------------------------------------------
    Electrostatics                -16.05368691 [mEh]     -10.07384062 [kcal/mol]     -42.14894917 [kJ/mol]
      Elst10,r                    -16.05368691 [mEh]     -10.07384062 [kcal/mol]     -42.14894917 [kJ/mol]

    Exchange                       12.37390344 [mEh]       7.76474164 [kcal/mol]      32.48767900 [kJ/mol]
      Exch10                       12.37390344 [mEh]       7.76474164 [kcal/mol]      32.48767900 [kJ/mol]
      Exch10(S^2)                  12.32627604 [mEh]       7.73485499 [kcal/mol]      32.36263328 [kJ/mol]

    Induction                     -15.45404267 [mEh]      -9.69755818 [kcal/mol]     -40.57458344 [kJ/mol]
      Ind20,r                     -15.57978834 [mEh]      -9.77646478 [kcal/mol]     -40.90472865 [kJ/mol]
      Exch-Ind20,r                  2.84910375 [mEh]       1.78783959 [kcal/mol]       7.48032086 [kJ/mol]
      delta HF,r (2)               -2.72335808 [mEh]      -1.70893300 [kcal/mol]      -7.15017565 [kJ/mol]

    Dispersion                    -20.97654979 [mEh]     -13.16298372 [kcal/mol]     -55.07392389 [kJ/mol]
      Disp20                      -22.14194786 [mEh]     -13.89428205 [kcal/mol]     -58.13367609 [kJ/mol]
      Exch-Disp20                   1.16539807 [mEh]       0.73129833 [kcal/mol]       3.05975220 [kJ/mol]
      Disp20 (SS)                 -11.07097393 [mEh]      -6.94714102 [kcal/mol]     -29.06683804 [kJ/mol]
      Disp20 (OS)                 -11.07097393 [mEh]      -6.94714102 [kcal/mol]     -29.06683804 [kJ/mol]
      Exch-Disp20 (SS)              0.69721243 [mEh]       0.43750741 [kcal/mol]       1.83053099 [kJ/mol]
      Exch-Disp20 (OS)              0.46818563 [mEh]       0.29379092 [kcal/mol]       1.22922121 [kJ/mol]

  Total HF                        -19.13382614 [mEh]     -12.00665717 [kcal/mol]     -50.23585361 [kJ/mol]
  Total SAPT0                     -40.11037593 [mEh]     -25.16964089 [kcal/mol]    -105.30977750 [kJ/mol]

  Special recipe for scaled SAPT0 (see Manual):
    Electrostatics sSAPT0         -16.05368691 [mEh]     -10.07384062 [kcal/mol]     -42.14894917 [kJ/mol]
    Exchange sSAPT0                12.37390344 [mEh]       7.76474164 [kcal/mol]      32.48767900 [kJ/mol]
    Induction sSAPT0              -15.42088901 [mEh]      -9.67675395 [kcal/mol]     -40.48753851 [kJ/mol]
    Dispersion sSAPT0             -20.96298861 [mEh]     -13.15447395 [kcal/mol]     -55.03831901 [kJ/mol]
  Total sSAPT0                    -40.06366109 [mEh]     -25.14032689 [kcal/mol]    -105.18712770 [kJ/mol]
  --------------------------------------------------------------------------------------------------------

*** Psi4 exiting successfully. Buy a developer a beer!
