                               Psi4 1.9 release

  ==> Input File <==

--------------------------------------------------------------------------
memory 32 GB # how much memory is available ! Depends on the nodes/cores !

molecule dimer {
# monomer A
+1 1    # Charge and multiplicity
C  0.680067 -1.215929 6.608042
C -0.680504 -1.215545 6.606014
N -1.085635  0.102779 6.605016
C  0.000108  0.884180 6.601740
C -2.477365  0.570758 6.555610
N  1.085222  0.102779 6.605016
H  1.385146 -2.033368 6.615870
H -1.385302 -2.033214 6.606204
H -0.000009  1.965269 6.599993
C  2.478117  0.567877 6.621908
H  2.490592  1.658130 6.594563
H  2.967028  0.220701 7.535354
H  3.001428  0.176405 5.746425
H -2.857359  0.490799 5.533539
H -3.082679 -0.042306 7.225694
H -2.518128  1.610706 6.882594
--
# monomer B
0 1     # Charge and multiplicity
C   1.22531237526482      0.70753866091955      0.00613762728373
C   1.22532433589282     -0.70753852257020     -0.00619318228664
C   -0.00000567409046      1.41496628609039     -0.00672680580738
C   2.45644923379077      1.41832825917820      0.00902448468363
C   0.00001130712078     -1.41497612663474      0.00347275151708
C   -1.22530046906674      0.70754574598412      0.00838914760619
C   2.45643823516184     -1.41832293188077     -0.00843833914343
C   -0.00000085313587      2.83680140328112     -0.00913035594137
C   3.68182717731192      0.70931832800114     -0.00808954934571
C   2.45512052870677      2.83422403348893     -0.00819210630633
C   3.68182158506039     -0.70933346742900      0.00798293467272
C   -1.22531311884624     -0.70752714354401     -0.00512042085974
C   1.22670006104402      3.54346985599427      0.00816696660346
C   0.00000526469929     -2.83678176723568      0.00832091913869
C   -2.45643555300670      1.41831729028492      0.00842454345199
C   2.45512389762097     -2.83422965658853      0.00783102630520
C   -1.22671388474763      3.54346943575023      0.00827029982280
C   4.91451777504333      1.42717324448953     -0.00160886631602
C   3.69315067131765      3.54279566454522     -0.00155906667985
C   -2.45643712022637     -1.41831290883911     -0.00846337726810
C   1.22670532178455     -3.54347386990643     -0.00780316414624
C   -2.45512491866593      2.83421703463423     -0.00818572995999
C   4.91452486062398     -1.42718653794377      0.00136387641845
C   1.22142509354026      4.97013443726031      0.00150231067809
C   4.89300870916237      2.82518837202648     -0.00039219795739
C   -1.22669652864725     -3.54347062507680     -0.00753595973677
C   -3.68181849668397      0.70932533873199     -0.00807686886569
C   3.69314758099218     -3.54280096939050      0.00148176697923
C   -1.22143177215231      4.97012866986289      0.00168580605083
C   6.13477145276790      0.68054831910577     -0.00083909176631
C   3.65678936045204      4.97295361556775     -0.00065042889723
C   -2.45512642789169     -2.83421472106065      0.00758666850712
C   -3.68181869921921     -0.70932533146830      0.00810055625144
C   4.89301309775526     -2.82519973363176      0.00021895393805
C   -0.00000059327114      5.65044773803267      0.00045449734393
C   6.13477559217374     -0.68055448207492      0.00042622874941
C   2.47813196269732      5.65357712333155      0.00063835075260
C   1.22142288457925     -4.97012668293268     -0.00129718634452
C   -3.69316190412301      3.54279732619245     -0.00139355922051
C   -1.22142804110313     -4.97011793159564     -0.00140994817719
C   -4.91452132810043      1.42717581899491     -0.00153192130862
C   3.65678749952045     -4.97295485423912      0.00080007163680
C   -2.47813805026426      5.65357479452875      0.00092287576113
C   -3.69314125872231     -3.54278984697859      0.00136564082345
C   -4.91451200321153     -1.42718062802730      0.00139857359209
C   -0.00000552908399     -5.65043791501335      0.00005899322272
C   -4.89302000425900      2.82518897091939     -0.00040227981744
C   2.47812647313991     -5.65357317188818     -0.00029052915548
C   -3.65679823041642      4.97295655404175     -0.00047374852278
C   -4.89299899901461     -2.82519139505969      0.00006491824035
C   -2.47812801824129     -5.65356579800621     -0.00056571680280
C   -6.13477002348955      0.68054913825639     -0.00086464346868
C   -3.65678835334731     -4.97294365097028      0.00058578382008
C   -6.13476456307132     -0.68055354348201      0.00040575295444
H   5.83528897565761      3.36927626695423      0.00396712770529
H   7.07385965258860      1.22821762089947     -0.00037744837300
H   4.60066374401555      5.51238117445323     -0.00014522814529
H   5.83528386714679     -3.36930568472863     -0.00423551337640
H   -0.00001167146422      6.73853104613662     -0.00389474766392
H   7.07386165167227     -1.22822657074368     -0.00008250934481
H   2.47331421164041      6.74068466339473      0.00017162982210
H   4.60066897122302     -5.51237575717576      0.00039007446835
H   -2.47331820069565      6.74068209160650      0.00047297644710
H   -0.00000978838621     -6.73852780445195      0.00458867820736
H   -5.83530143450167      3.36927132229595      0.00410314985360
H   2.47330840367253     -6.74068500242887      0.00027980126949
H   -4.60067436136587      5.51237839860371      0.00002010017831
H   -5.83527902699321     -3.36928859177951     -0.00451481925734
H   -2.47329986759855     -6.74067870613986     -0.00016951527498
H   -7.07385728692578      1.22822084484047     -0.00046143985387
H   -4.60067330624313     -5.51236229778631      0.00021776644566
H   -7.07385645456741     -1.22822025997701     -0.00017736581114

    units angstrom      # Angstroms are the default
    no_reorient         # Geometry fixed, default
    symmetry c1         # C1 symmetry, default
}

set {
    scf_type DF         # Density fitting, faster than exact integrals
    freeze_core True    # Freeze core electrons
    basis jun-cc-pVDZ   # Jun-cc-pVDZ basis set, recommended for sSAPT0 in https://doi.org/10.1063/1.4867135
}

energy('ssapt0')        # Compute sSAPT0 energy, includes also SAPT0
--------------------------------------------------------------------------

  //              Dimer HF             //
    Molecular point group: c1
  Charge       = 1
  Multiplicity = 1
  Basis Set: JUN-CC-PVDZ
    Blend: JUN-CC-PVDZ
  Basis Set: (JUN-CC-PVDZ AUX)
    Blend: JUN-CC-PVDZ-JKFIT
  @DF-RHF Final Energy: -2359.19897261168126
    Total Energy =                      -2359.1989726116808015
 Dipole X            :          0.0031447            0.0006313            0.0037760
 Dipole Y            :         -1.5175581            1.8864948            0.3689367
 Dipole Z            :        -24.3222477           34.3477332           10.0254855
 Magnitude           :                                                   10.0322723
  //            Monomer A HF           //
    Molecular point group: c1
  Multiplicity = 1
  Basis Set: JUN-CC-PVDZ
    Blend: JUN-CC-PVDZ
  Basis Set: (JUN-CC-PVDZ AUX)
    Blend: JUN-CC-PVDZ-JKFIT
  @DF-RHF Final Energy:  -303.29730032534053
    Total Energy =                       -303.2973003253405295
  //            Monomer B HF           //
    Molecular point group: c1

    Geometry (in Angstrom), charge = 0, multiplicity = 1:

       Center              X                  Y                   Z               Mass
    ------------   -----------------  -----------------  -----------------  -----------------
      Gh(C)           0.680066520158    -1.215933861162     5.768564676481    12.000000000000
      Gh(C)          -0.680504479842    -1.215549861162     5.766536676481    12.000000000000
      Gh(N)          -1.085635479842     0.102774138838     5.765538676481    14.003074004430
      Gh(C)           0.000107520158     0.884175138838     5.762262676481    12.000000000000
      Gh(C)          -2.477365479842     0.570753138838     5.716132676481    12.000000000000
      Gh(N)           1.085221520158     0.102774138838     5.765538676481    14.003074004430
      Gh(H)           1.385145520158    -2.033372861162     5.776392676481     1.007825032230
      Gh(H)          -1.385302479842    -2.033218861162     5.766726676481     1.007825032230
      Gh(H)          -0.000009479842     1.965264138838     5.760515676481     1.007825032230
      Gh(C)           2.478116520158     0.567872138838     5.782430676481    12.000000000000
      Gh(H)           2.490591520158     1.658125138838     5.755085676481     1.007825032230
      Gh(H)           2.967027520158     0.220696138838     6.695876676481     1.007825032230
      Gh(H)           3.001427520158     0.176400138838     4.906947676481     1.007825032230
      Gh(H)          -2.857359479842     0.490794138838     4.694061676481     1.007825032230
      Gh(H)          -3.082679479842    -0.042310861162     6.386216676481     1.007825032230
      Gh(H)          -2.518128479842     1.610701138838     6.043116676481     1.007825032230
         C            1.225311895423     0.707533799757    -0.833339696235    12.000000000000
         C            1.225323856051    -0.707543383733    -0.845670505805    12.000000000000
         C           -0.000006153932     1.414961424928    -0.846204129326    12.000000000000
         C            2.456448753949     1.418323398016    -0.830452838835    12.000000000000
         C            0.000010827279    -1.414980987797    -0.836004572002    12.000000000000
         C           -1.225300948908     0.707540884822    -0.831088175913    12.000000000000
         C            2.456437755320    -1.418327793043    -0.847915662662    12.000000000000
         C           -0.000001332978     2.836796542119    -0.848607679460    12.000000000000
         C            3.681826697470     0.709313466839    -0.847566872864    12.000000000000
         C            2.455120048865     2.834219172327    -0.847669429825    12.000000000000
         C            3.681821105219    -0.709338328591    -0.831494388846    12.000000000000
         C           -1.225313598688    -0.707532004706    -0.844597744378    12.000000000000
         C            1.226699581202     3.543464994832    -0.831310356915    12.000000000000
         C            0.000004784858    -2.836786628398    -0.831156404380    12.000000000000
         C           -2.456436032848     1.418312429123    -0.831052780067    12.000000000000
         C            2.455123417779    -2.834234517751    -0.831646297214    12.000000000000
         C           -1.226714364589     3.543464574588    -0.831207023696    12.000000000000
         C            4.914517295202     1.427168383327    -0.841086189835    12.000000000000
         C            3.693150191476     3.542790803383    -0.841036390199    12.000000000000
         C           -2.456437600068    -1.418317770001    -0.847940700787    12.000000000000
         C            1.226704841943    -3.543478731069    -0.847280487665    12.000000000000
         C           -2.455125398508     2.834212173472    -0.847663053479    12.000000000000
         C            4.914524380782    -1.427191399106    -0.838113447100    12.000000000000
         C            1.221424613699     4.970129576098    -0.837975012841    12.000000000000
         C            4.893008229321     2.825183510864    -0.839869521476    12.000000000000
         C           -1.226697008489    -3.543475486239    -0.847013283256    12.000000000000
         C           -3.681818976526     0.709320477570    -0.847554192384    12.000000000000
         C            3.693147101150    -3.542805830553    -0.837995556540    12.000000000000
         C           -1.221432251994     4.970123808701    -0.837791517468    12.000000000000
         C            6.134770972926     0.680543457943    -0.840316415285    12.000000000000
         C            3.656788880610     4.972948754405    -0.840127752416    12.000000000000
         C           -2.455126907733    -2.834219582223    -0.831890655012    12.000000000000
         C           -3.681819179061    -0.709330192631    -0.831376767267    12.000000000000
         C            4.893012617914    -2.825204594794    -0.839258369581    12.000000000000
         C           -0.000001073113     5.650442876870    -0.839022826175    12.000000000000
         C            6.134775112332    -0.680559343237    -0.839051094769    12.000000000000
         C            2.478131482856     5.653572262169    -0.838838972766    12.000000000000
         C            1.221422404738    -4.970131544095    -0.840774509863    12.000000000000
         C           -3.693162383965     3.542792465030    -0.840870882739    12.000000000000
         C           -1.221428520945    -4.970122792758    -0.840887271696    12.000000000000
         C           -4.914521807942     1.427170957833    -0.841009244827    12.000000000000
         C            3.656787019679    -4.972959715401    -0.838677251882    12.000000000000
         C           -2.478138530106     5.653569933366    -0.838554447758    12.000000000000
         C           -3.693141738564    -3.542794708141    -0.838111682695    12.000000000000
         C           -4.914512483053    -1.427185489190    -0.838078749927    12.000000000000
         C           -0.000006008926    -5.650442776176    -0.839418330296    12.000000000000
         C           -4.893020484101     2.825184109757    -0.839879603336    12.000000000000
         C            2.478125993298    -5.653578033051    -0.839767852674    12.000000000000
         C           -3.656798710258     4.972951692879    -0.839951072042    12.000000000000
         C           -4.892999478856    -2.825196256222    -0.839412405278    12.000000000000
         C           -2.478128498083    -5.653570659169    -0.840043040322    12.000000000000
         C           -6.134770503331     0.680544277094    -0.840341966987    12.000000000000
         C           -3.656788833189    -4.972948512133    -0.838891539699    12.000000000000
         C           -6.134765042913    -0.680558404644    -0.839071570564    12.000000000000
         H            5.835288495816     3.369271405792    -0.835510195813     1.007825032230
         H            7.073859172747     1.228212759737    -0.839854771892     1.007825032230
         H            4.600663264174     5.512376313291    -0.839622551664     1.007825032230
         H            5.835283387305    -3.369310545891    -0.843712836895     1.007825032230
         H           -0.000012151306     6.738526184974    -0.843372071183     1.007825032230
         H            7.073861171831    -1.228231431906    -0.839559832864     1.007825032230
         H            2.473313731799     6.740679802232    -0.839305693697     1.007825032230
         H            4.600668491381    -5.512380618338    -0.839087249050     1.007825032230
         H           -2.473318680537     6.740677230444    -0.839004347072     1.007825032230
         H           -0.000010268228    -6.738532665614    -0.834888645311     1.007825032230
         H           -5.835301914343     3.369266461134    -0.835374173665     1.007825032230
         H            2.473307923831    -6.740689863591    -0.839197522249     1.007825032230
         H           -4.600674841208     5.512373537441    -0.839457223340     1.007825032230
         H           -5.835279506835    -3.369293452942    -0.843992142776     1.007825032230
         H           -2.473300347440    -6.740683567302    -0.839646838794     1.007825032230
         H           -7.073857766768     1.228215983678    -0.839938763373     1.007825032230
         H           -4.600673786085    -5.512367158949    -0.839259557073     1.007825032230
         H           -7.073856934409    -1.228225121139    -0.839654689330     1.007825032230

  Charge       = 0
  Multiplicity = 1
  Basis Set: JUN-CC-PVDZ
    Blend: JUN-CC-PVDZ
  Basis Set: (JUN-CC-PVDZ AUX)
    Blend: JUN-CC-PVDZ-JKFIT

    Orbital Energies [Eh]
    ---------------------

    Doubly Occupied:

       1A    -11.260642     2A    -11.260199     3A    -11.260197
       4A    -11.259489     5A    -11.259489     6A    -11.259320
       7A    -11.259112     8A    -11.259034     9A    -11.259033
      10A    -11.258709    11A    -11.258706    12A    -11.258638
      13A    -11.258576    14A    -11.258571    15A    -11.258568
      16A    -11.258540    17A    -11.258533    18A    -11.258517
      19A    -11.258504    20A    -11.258498    21A    -11.258493
      22A    -11.258392    23A    -11.258389    24A    -11.258088
      25A    -11.257432    26A    -11.257370    27A    -11.257369
      28A    -11.257234    29A    -11.257233    30A    -11.257149
      31A    -11.256527    32A    -11.256456    33A    -11.256455
      34A    -11.256346    35A    -11.256345    36A    -11.256298
      37A    -11.252379    38A    -11.252378    39A    -11.252377
      40A    -11.252376    41A    -11.252373    42A    -11.252371
      43A    -11.251509    44A    -11.251506    45A    -11.251505
      46A    -11.251499    47A    -11.251498    48A    -11.251494
      49A    -11.250940    50A    -11.250940    51A    -11.250938
      52A    -11.250936    53A    -11.250934    54A    -11.250933
      55A     -1.244251    56A     -1.219978    57A     -1.219977
      58A     -1.189691    59A     -1.189683    60A     -1.181125
      61A     -1.157693    62A     -1.149122    63A     -1.135666
      64A     -1.135659    65A     -1.113326    66A     -1.113321
      67A     -1.082591    68A     -1.082584    69A     -1.078772
      70A     -1.066110    71A     -1.066105    72A     -1.039543
      73A     -1.024446    74A     -1.021949    75A     -1.021905
      76A     -1.017857    77A     -1.012921    78A     -0.987181
      79A     -0.987134    80A     -0.962017    81A     -0.961967
      82A     -0.894434    83A     -0.894408    84A     -0.888120
      85A     -0.886367    86A     -0.886310    87A     -0.881559
      88A     -0.881512    89A     -0.862040    90A     -0.837525
      91A     -0.818354    92A     -0.816788    93A     -0.812299
      94A     -0.812290    95A     -0.794823    96A     -0.794812
      97A     -0.746795    98A     -0.745025    99A     -0.733589
     100A     -0.733582   101A     -0.732320   102A     -0.732296
     103A     -0.716660   104A     -0.699116   105A     -0.699104
     106A     -0.693739   107A     -0.693722   108A     -0.661367
     109A     -0.653291   110A     -0.651334   111A     -0.650386
     112A     -0.650380   113A     -0.639497   114A     -0.639493
     115A     -0.629874   116A     -0.627684   117A     -0.627669
     118A     -0.606452   119A     -0.605912   120A     -0.601824
     121A     -0.599884   122A     -0.599851   123A     -0.593785
     124A     -0.591407   125A     -0.591395   126A     -0.585393
     127A     -0.576418   128A     -0.576404   129A     -0.567449
     130A     -0.567435   131A     -0.566124   132A     -0.566106
     133A     -0.558898   134A     -0.554989   135A     -0.554983
     136A     -0.538727   137A     -0.538725   138A     -0.538274
     139A     -0.538267   140A     -0.529860   141A     -0.528196
     142A     -0.523016   143A     -0.523008   144A     -0.500636
     145A     -0.495698   146A     -0.493373   147A     -0.487926
     148A     -0.485227   149A     -0.481909   150A     -0.481901
     151A     -0.470417   152A     -0.470402   153A     -0.451204
     154A     -0.451127   155A     -0.439167   156A     -0.439158
     157A     -0.404847   158A     -0.404824   159A     -0.403468
     160A     -0.375522   161A     -0.375519   162A     -0.349224
     163A     -0.337689   164A     -0.336655   165A     -0.336599
     166A     -0.311201   167A     -0.298191   168A     -0.284453
     169A     -0.284401   170A     -0.225024   171A     -0.224959

  @DF-RHF Final Energy: -2055.89196393300244

   => Energetics <=

    Nuclear Repulsion Energy =           6452.5568002797772351
    One-Electron Energy =              -15636.4375251283236139
    Two-Electron Energy =                7127.9887609155439350
    Total Energy =                      -2055.8919639330024438
 Dipole X            :          0.0001025           -0.0000085            0.0000940
 Dipole Y            :          0.0028637           -0.0028843           -0.0000206
 Dipole Z            :        542.5389759         -542.5441656           -0.0051897
 Magnitude           :                                                    0.0051906

    SAPT Results
  --------------------------------------------------------------------------------------------------------
    Electrostatics                 -7.49054094 [mEh]      -4.70038540 [kcal/mol]     -19.66641252 [kJ/mol]
      Elst10,r                     -7.49054094 [mEh]      -4.70038540 [kcal/mol]     -19.66641252 [kJ/mol]

    Exchange                       -0.00048013 [mEh]      -0.00030129 [kcal/mol]      -0.00126059 [kJ/mol]
      Exch10                       -0.00048013 [mEh]      -0.00030129 [kcal/mol]      -0.00126059 [kJ/mol]
      Exch10(S^2)                  -0.00048013 [mEh]      -0.00030129 [kcal/mol]      -0.00126059 [kJ/mol]

    Induction                      -2.21733227 [mEh]      -1.39139701 [kcal/mol]      -5.82160507 [kJ/mol]
      Ind20,r                      -2.18144492 [mEh]      -1.36887735 [kcal/mol]      -5.72738284 [kJ/mol]
      Exch-Ind20,r                  0.00072404 [mEh]       0.00045434 [kcal/mol]       0.00190096 [kJ/mol]
      delta HF,r (2)               -0.03661139 [mEh]      -0.02297399 [kcal/mol]      -0.09612319 [kJ/mol]

    Dispersion                     -1.60884923 [mEh]      -1.00956813 [kcal/mol]      -4.22403307 [kJ/mol]
      Disp20                       -1.60914648 [mEh]      -1.00975466 [kcal/mol]      -4.22481350 [kJ/mol]
      Exch-Disp20                   0.00029725 [mEh]       0.00018653 [kcal/mol]       0.00078043 [kJ/mol]
      Disp20 (SS)                  -0.80457324 [mEh]      -0.50487733 [kcal/mol]      -2.11240675 [kJ/mol]
      Disp20 (OS)                  -0.80457324 [mEh]      -0.50487733 [kcal/mol]      -2.11240675 [kJ/mol]
      Exch-Disp20 (SS)              0.00022961 [mEh]       0.00014408 [kcal/mol]       0.00060283 [kJ/mol]
      Exch-Disp20 (OS)              0.00006764 [mEh]       0.00004245 [kcal/mol]       0.00017760 [kJ/mol]

  Total HF                         -9.70835334 [mEh]      -6.09208369 [kcal/mol]     -25.48927818 [kJ/mol]
  Total SAPT0                     -11.31720257 [mEh]      -7.10165183 [kcal/mol]     -29.71331125 [kJ/mol]

  Special recipe for scaled SAPT0 (see Manual):
    Electrostatics sSAPT0          -7.49054094 [mEh]      -4.70038540 [kcal/mol]     -19.66641252 [kJ/mol]
    Exchange sSAPT0                -0.00048013 [mEh]      -0.00030129 [kcal/mol]      -0.00126059 [kJ/mol]
    Induction sSAPT0               -2.21733227 [mEh]      -1.39139701 [kcal/mol]      -5.82160507 [kJ/mol]
    Dispersion sSAPT0              -1.60884923 [mEh]      -1.00956813 [kcal/mol]      -4.22403307 [kJ/mol]
  Total sSAPT0                    -11.31720257 [mEh]      -7.10165183 [kcal/mol]     -29.71331125 [kJ/mol]
  --------------------------------------------------------------------------------------------------------

*** Psi4 exiting successfully. Buy a developer a beer!
