                               Psi4 1.9 release

  ==> Input File <==

--------------------------------------------------------------------------
# PSI4 input file for a GDMA calculation
memory 3 GB

molecule bf4 {
# charge and multiplicity
-1 1
# coordinates
B -0.00019775921889909396 0.00027427289843485157 3.4252470970245235e-05
F 1.1231531389274233e-16 1.4305943048730027e-17 1.4128186388556467
F 1.1478599870053965 0.6757812206519086 -0.47110657859818933
F 0.011918061223755466 -1.332010791454871 -0.4709051045495349
F -1.159665513775966 0.6560734964069324 -0.4708264470019934

# additional options
units angstrom
no_reorient
symmetry c1
}

# calculation options
set {
scf_type DF         # Density fitting, faster than exact integrals
freeze_core True    # Freeze core electrons
basis jun-cc-pVDZ   # Jun-cc-pVDZ basis set, recommended for sSAPT0 in https://doi.org/10.1063/1.4867135
}

# call gdma routine
energy, wfn = energy('scf', return_wfn=True)
fchk(wfn, filename='gdma.fchk')
gdma(wfn, datafile='gdma.dma')
print(variable('DMA DISTRIBUTED MULTIPOLES'))
print(variable('DMA TOTAL MULTIPOLES'))
--------------------------------------------------------------------------

    Molecular point group: c1

    Geometry (in Angstrom), charge = -1, multiplicity = 1:

       Center              X                  Y                   Z               Mass
    ------------   -----------------  -----------------  -----------------  -----------------
         B           -0.000197308467     0.000273647749     0.000034174399    11.009305360000
         F            0.000000450752    -0.000000625149     1.412818560784    18.998403162730
         F            1.147860437757     0.675780595503    -0.471106656670    18.998403162730
         F            0.011918511976    -1.332011416604    -0.470905182621    18.998403162730
         F           -1.159665063024     0.656072871258    -0.470826525074    18.998403162730

  Charge       = -1
  Multiplicity = 1
  Basis Set: JUN-CC-PVDZ
    Blend: JUN-CC-PVDZ
  Basis Set: (JUN-CC-PVDZ AUX)
    Blend: JUN-CC-PVDZ-JKFIT

    Orbital Energies [Eh]
    ---------------------

    Doubly Occupied:

       1A    -26.067094     2A    -26.067035     3A    -26.066996
       4A    -26.066905     5A     -7.539296     6A     -1.410962
       7A     -1.351248     8A     -1.351197     9A     -1.351059
      10A     -0.602243    11A     -0.528453    12A     -0.528425
      13A     -0.528365    14A     -0.447307    15A     -0.447265
      16A     -0.408466    17A     -0.408432    18A     -0.408370
      19A     -0.384997    20A     -0.384957    21A     -0.384909

  @DF-RHF Final Energy:  -422.77138748048969

   => Energetics <=

    Nuclear Repulsion Energy =            178.8794840315429724
    One-Electron Energy =                -957.8337335882644084
    Two-Electron Energy =                 356.1828620762316859
    Total Energy =                       -422.7713874804896932
 Dipole X            :         -0.0007642            0.0000803           -0.0006839
 Dipole Y            :          0.0012414           -0.0001114            0.0011300
 Dipole Z            :          0.0003297           -0.0000139            0.0003158
 Magnitude           :                                                    0.0013581
*** Psi4 exiting successfully. Buy a developer a beer!
