                               Psi4 1.9 release

  ==> Input File <==

--------------------------------------------------------------------------
memory 64 GB # how much memory is available ! Depends on the nodes/cores !

molecule dimer {
# monomer A
+1 1    # Charge and multiplicity
C  0.680067 1.417258 -5.815929
C -0.680504 1.419286 -5.815545
N -1.085635 1.420284 -4.497221
C  0.000108 1.423560 -3.715820
C -2.477365 1.469690 -4.029242
N  1.085222 1.420284 -4.497221
H  1.385146 1.409430 -6.633368
H -1.385302 1.419096 -6.633214
H -0.000009 1.425307 -2.634731
C  2.478117 1.403392 -4.032123
H  2.490592 1.430737 -2.941870
H  2.967028 0.489946 -4.379299
H  3.001428 2.278875 -4.423595
H -2.857359 2.491761 -4.109201
H -3.082679 0.799606 -4.642306
H -2.518128 1.142706 -2.989294
--
# monomer B
0 1     # Charge and multiplicity
C   -3.66844126402057      7.80375217008252      0.00190004133558
C   -4.84759871934653      7.13124183134024     -0.00046653359696
C   -4.89495929917518      5.69633040353158     -0.00103944469517
C   -3.65374067877320      4.98073034095895      0.00662099703436
C   -2.40942512149445      7.11398103667468      0.00209438359570
C   -2.42547734410473      5.68112195090346     -0.00491050527438
C   -1.19474401643570      7.78614419430947      0.00356656413763
C   0.03795902893699      7.09942164575698      0.00139585983271
C   0.03033258741920      5.66948955970466     -0.00408752508301
C   -1.20098450790502      4.96927034791531      0.00488220885047
C   1.27795782581485      7.77285944319479      0.00277170839332
C   2.48535808472416      7.08769688523756      0.00049722048857
C   2.48612868491717      5.65477081024076     -0.00644052849921
C   1.25408291964399      4.95607811366431      0.00518741308898
C   3.75171459140595      7.76391215098033      0.00062407186893
C   4.92356605618520      7.07878077698995     -0.00143240883900
C   4.95560727132542      5.64344746336949     -0.00159282164606
C   3.70680153420475      4.94121020833308      0.00349873852374
H   -3.65852113775815      8.89082741913536      0.00358502958574
H   -1.18921332975660      8.87412108735996      0.00753844057883
H   1.28429423888630      8.86083343548850      0.00693053253426
H   3.75354208679975      8.85103527897216      0.00214659618464
H   5.86995870320703      7.61379483465560     -0.00235777588134
H   -5.78823170750226      7.67630221293400     -0.00202638095293
C   -6.09197395869619      4.99326001364347     -0.00291168518608
C   -6.12866148031747      3.58258016879823     -0.00171050815740
C   -3.66457974004527      3.56418217974434     -0.00463560277484
C   -4.89429820469869      2.86108077590057      0.00453338221034
C   -2.43733499489796      2.84761165708481      0.00719617576166
C   -1.20922785759670      3.54788693497833     -0.00648285103018
C   1.24714157216223      3.53468075142962     -0.00729145743546
C   0.01517603956900      2.83311183930540      0.00439272578912
C   2.46764517244071      2.82128997725533      0.00449278391269
C   3.70254947457969      3.52466015442405     -0.00899517692985
C   6.14498038638375      4.92757236613191     -0.00282626685777
C   6.16658835886151      3.51658447594213     -0.00065971342101
C   4.92460995845939      2.80840792535402      0.00587903281610
H   7.08990550964105      5.46688776622306     -0.00658814770723
H   -7.03104175110130      5.54268795285765     -0.00714490013730
C   -7.33969804112295      2.85841153457957     -0.00333767559888
C   -7.36488195805880      1.47032337158330     -0.00157213747140
C   -4.90350460894690      1.44442681216000     -0.00628840166334
C   -6.13225715261081      0.73993935705394      0.00600164231964
C   -3.67687480051673      0.72669714267312      0.00433931473643
C   -2.44565658606518      1.42964113326212     -0.00597039546461
C   -1.22360068130162      0.71532450163492      0.00545886906656
C   0.00763786931376      1.41738314923765      0.00392452278437
C   1.23121980774686      0.70211669058719     -0.01490206287210
C   2.46082110053113      1.40329203612573      0.00460244601878
C   3.68443025419614      0.68719842821222      0.00377365974158
C   4.91870890153864      1.39173456118907     -0.00862816189375
C   7.36980207796101      2.77948220318441     -0.00242013321349
C   7.38016266612146      1.39121750785509     -0.00087345036788
C   6.13979953912259      0.67411862320065      0.00545489144369
H   -8.27919079934664      3.40711804112415     -0.00763522772059
H   8.31511347147953      3.31811809662368     -0.00663070901292
C   -8.59175593758115      0.72483255304480     -0.00123170985383
C   -8.59902460370342     -0.63263980622873      0.00089141472904
C   -6.13981313911873     -0.67413663715361     -0.00609792660607
C   -7.38018411213749     -1.39126618958160      0.00131813493501
C   -4.91868448025621     -1.39175501803000      0.00624257154343
C   -3.68443829568458     -0.68723731573599     -0.00478966852105
C   -2.46081704024768     -1.40334517882457      0.00575341766833
C   -1.23116201232071     -0.70217386488055     -0.00636696112346
C   -0.00756962538737     -1.41741884941102      0.00108956317991
C   1.22364771588843     -0.71527537726392      0.01109518512883
C   2.44567064933149     -1.42964328900682     -0.00065482763106
C   3.67686670284649     -0.72670743155550     -0.00479541202602
C   6.13224884641929     -0.73997883984993     -0.00632338623858
C   4.90351914550401     -1.44445752054090      0.00751768830159
C   8.59901484869081      0.63260386666793     -0.00101133422380
C   8.59174548810050     -0.72485086719319      0.00072504603735
C   7.36486276438985     -1.47033266560598      0.00049486934466
H   -9.52830597181814      1.27684744919284     -0.00270163681798
H   9.54141097460619      1.17457248844457     -0.00206336648518
C   -7.36983790976868     -2.77954514593389      0.00312634335708
C   -4.92459910905015     -2.80843725734101     -0.00460528907921
C   -6.16662249566744     -3.51665219282533      0.00169655107992
C   -3.70251035970491     -3.52468154912026      0.00571878010666
C   -2.46764698511392     -2.82132596280400     -0.00632585824990
C   -0.01513347410770     -2.83314164539971     -0.00604426974092
C   -1.24712184122656     -3.53473217556300      0.00551968366725
C   1.20924506964357     -3.54791467864352      0.00805871345849
C   2.43733602215464     -2.84764173817541     -0.00608104485234
C   4.89430234377080     -2.86112296828604     -0.00526030478103
C   3.66461525504104     -3.56421984553201      0.00761911515957
C   6.12863901474565     -3.58258405771778      0.00096495711699
C   7.33967266469532     -2.85841330737039      0.00248018319869
H   -9.54144911125902     -1.17456346666430      0.00226083090216
H   9.52826186807155     -1.27691907390448      0.00197485379837
H   -8.31516504384864     -3.31814985321231      0.00729857188773
H   8.27915514249207     -3.40714078989363      0.00681973918158
C   -6.14499418870218     -4.92764727278338      0.00302254913999
C   -3.70678334799751     -4.94126171411716     -0.00679841894792
C   -4.95559005800169     -5.64349397349412      0.00116871569699
C   -2.48612132622665     -5.65478557440947      0.00614125209662
C   -1.25405833548005     -4.95612205000132     -0.00503435388927
C   1.20101257386816     -4.96928038819302     -0.00385322963129
C   -0.03033667441341     -5.66952030313900      0.00398997003238
C   3.65375010132847     -4.98074377541453     -0.00309522988330
C   2.42549269587528     -5.68117463552727      0.00628170066869
C   6.09196561781097     -4.99325796338655      0.00325918379042
C   4.89497644461045     -5.69634842095790      0.00202298796027
H   -7.08989238804069     -5.46699984223871      0.00742531082125
H   7.03105520920009     -5.54265853633254      0.00683896355417
C   -4.92354532219813     -7.07882109967734      0.00061394679214
C   -2.48534208823777     -7.08772807792913     -0.00189594564379
C   -3.75168589177895     -7.76394715763627     -0.00170126671874
C   -0.03794895698805     -7.09946487446944     -0.00168022049625
C   -1.27795610040136     -7.77290438466689     -0.00366491325785
C   2.40944432072629     -7.11402201200282     -0.00081701968533
C   1.19474993715296     -7.78618536556242     -0.00296931056689
C   4.84762105249800     -7.13126211057943      0.00168979497423
C   3.66847160587561     -7.80378799294376     -0.00065863938960
H   -5.86994035041618     -7.61383059804164      0.00215798365757
H   5.78824962538815     -7.67633218931421      0.00281691445618
H   -3.75352693944918     -8.85107156923607     -0.00353718114765
H   -1.28430440589466     -8.86087539249706     -0.00809229711623
H   1.18922157469537     -8.87416062058945     -0.00706194725726
H   3.65854661482387     -8.89086063405326     -0.00231318081200

    units angstrom      # Angstroms are the default
    no_reorient         # Geometry fixed, default
    symmetry c1         # C1 symmetry, default
}

set {
    scf_type DF         # Density fitting, faster than exact integrals
    freeze_core True    # Freeze core electrons
    basis jun-cc-pVDZ   # Jun-cc-pVDZ basis set, recommended for sSAPT0 in https://doi.org/10.1063/1.4867135
}

energy('ssapt0')        # Compute sSAPT0 energy, includes also SAPT0
--------------------------------------------------------------------------

  //              Dimer HF             //
    Molecular point group: c1
  Charge       = 1
  Multiplicity = 1
  Basis Set: JUN-CC-PVDZ
    Blend: JUN-CC-PVDZ
  Basis Set: (JUN-CC-PVDZ AUX)
    Blend: JUN-CC-PVDZ-JKFIT
  @DF-RHF Final Energy: -3953.66112354801271
    Total Energy =                      -3953.6611235480122559
 Dipole X            :         -0.0044660            0.0004804           -0.0039855
 Dipole Y            :         -7.2529499            8.7122315            1.4592816
 Dipole Z            :         20.1779169          -26.0505485           -5.8726316
 Magnitude           :                                                    6.0512247
  //            Monomer A HF           //
    Molecular point group: c1
  Multiplicity = 1
  Basis Set: JUN-CC-PVDZ
    Blend: JUN-CC-PVDZ
  Basis Set: (JUN-CC-PVDZ AUX)
    Blend: JUN-CC-PVDZ-JKFIT
  @DF-RHF Final Energy:  -303.29812735303079
    Total Energy =                       -303.2981273530307931
  //            Monomer B HF           //
    Molecular point group: c1

    Geometry (in Angstrom), charge = 0, multiplicity = 1:

       Center              X                  Y                   Z               Mass
    ------------   -----------------  -----------------  -----------------  -----------------
      Gh(C)           0.680062820275     1.308604348936    -5.465220310098    12.000000000000
      Gh(C)          -0.680508179725     1.310632348936    -5.464836310098    12.000000000000
      Gh(N)          -1.085639179725     1.311630348936    -4.146512310098    14.003074004430
      Gh(C)           0.000103820275     1.314906348936    -3.365111310098    12.000000000000
      Gh(C)          -2.477369179725     1.361036348936    -3.678533310098    12.000000000000
      Gh(N)           1.085217820275     1.311630348936    -4.146512310098    14.003074004430
      Gh(H)           1.385141820275     1.300776348936    -6.282659310098     1.007825032230
      Gh(H)          -1.385306179725     1.310442348936    -6.282505310098     1.007825032230
      Gh(H)          -0.000013179725     1.316653348936    -2.284022310098     1.007825032230
      Gh(C)           2.478112820275     1.294738348936    -3.681414310098    12.000000000000
      Gh(H)           2.490587820275     1.322083348936    -2.591161310098     1.007825032230
      Gh(H)           2.967023820275     0.381292348936    -4.028590310098     1.007825032230
      Gh(H)           3.001423820275     2.170221348936    -4.072886310098     1.007825032230
      Gh(H)          -2.857363179725     2.383107348936    -3.758492310098     1.007825032230
      Gh(H)          -3.082683179725     0.690952348936    -4.291597310098     1.007825032230
      Gh(H)          -2.518132179725     1.034052348936    -2.638585310098     1.007825032230
         C           -3.668445443746     7.695098519018     0.352608731238    12.000000000000
         C           -4.847602899072     7.022588180276     0.350242156306    12.000000000000
         C           -4.894963478901     5.587676752467     0.349669245207    12.000000000000
         C           -3.653744858499     4.872076689895     0.357329686937    12.000000000000
         C           -2.409429301220     7.005327385610     0.352803073498    12.000000000000
         C           -2.425481523830     5.572468299839     0.345798184628    12.000000000000
         C           -1.194748196161     7.677490543245     0.354275254040    12.000000000000
         C            0.037954849212     6.990767994693     0.352104549735    12.000000000000
         C            0.030328407694     5.560835908640     0.346621164819    12.000000000000
         C           -1.200988687630     4.860616696851     0.355590898753    12.000000000000
         C            1.277953646089     7.664205792130     0.353480398296    12.000000000000
         C            2.485353904999     6.979043234173     0.351205910391    12.000000000000
         C            2.486124505192     5.546117159176     0.344268161403    12.000000000000
         C            1.254078739919     4.847424462600     0.355896102991    12.000000000000
         C            3.751710411681     7.655258499916     0.351332761771    12.000000000000
         C            4.923561876460     6.970127125926     0.349276281063    12.000000000000
         C            4.955603091600     5.534793812305     0.349115868256    12.000000000000
         C            3.706797354479     4.832556557269     0.354207428426    12.000000000000
         H           -3.658525317484     8.782173768071     0.354293719488     1.007825032230
         H           -1.189217509482     8.765467436296     0.358247130481     1.007825032230
         H            1.284290059161     8.752179784424     0.357639222437     1.007825032230
         H            3.753537907074     8.742381627908     0.352855286087     1.007825032230
         H            5.869954523482     7.505141183591     0.348350914021     1.007825032230
         H           -5.788235887228     7.567648561870     0.348682308950     1.007825032230
         C           -6.091978138422     4.884606362579     0.347797004716    12.000000000000
         C           -6.128665660043     3.473926517734     0.348998181745    12.000000000000
         C           -3.664583919771     3.455528528680     0.346073087128    12.000000000000
         C           -4.894302384424     2.752427124836     0.355242072113    12.000000000000
         C           -2.437339174623     2.738958006020     0.357904865664    12.000000000000
         C           -1.209232037322     3.439233283914     0.344225838872    12.000000000000
         C            1.247137392437     3.426027100365     0.343417232467    12.000000000000
         C            0.015171859844     2.724458188241     0.355101415692    12.000000000000
         C            2.467640992715     2.712636326191     0.355201473815    12.000000000000
         C            3.702545294854     3.416006503360     0.341713512973    12.000000000000
         C            6.144976206658     4.818918715067     0.347882423045    12.000000000000
         C            6.166584179136     3.407930824878     0.350048976481    12.000000000000
         C            4.924605778734     2.699754274290     0.356587722719    12.000000000000
         H            7.089901329916     5.358234115159     0.344120542195     1.007825032230
         H           -7.031045930827     5.434034301793     0.343563789765     1.007825032230
         C           -7.339702220848     2.749757883515     0.347371014304    12.000000000000
         C           -7.364886137784     1.361669720519     0.349136552431    12.000000000000
         C           -4.903508788672     1.335773161096     0.344420288239    12.000000000000
         C           -6.132261332336     0.631285705989     0.356710332222    12.000000000000
         C           -3.676878980242     0.618043491609     0.355048004639    12.000000000000
         C           -2.445660765791     1.320987482198     0.344738294438    12.000000000000
         C           -1.223604861027     0.606670850570     0.356167558969    12.000000000000
         C            0.007633689588     1.308729498173     0.354633212687    12.000000000000
         C            1.231215628021     0.593463039523     0.335806627030    12.000000000000
         C            2.460816920806     1.294638385061     0.355311135921    12.000000000000
         C            3.684426074471     0.578544777148     0.354482349644    12.000000000000
         C            4.918704721813     1.283080910125     0.342080528009    12.000000000000
         C            7.369797898236     2.670828552120     0.348288556689    12.000000000000
         C            7.380158486396     1.282563856791     0.349835239535    12.000000000000
         C            6.139795359397     0.565464972136     0.356163581346    12.000000000000
         H           -8.279194979072     3.298464390060     0.343073462182     1.007825032230
         H            8.315109291754     3.209464445559     0.344077980890     1.007825032230
         C           -8.591760117307     0.616178901980     0.349476980049    12.000000000000
         C           -8.599028783429    -0.741293457293     0.351600104632    12.000000000000
         C           -6.139817318844    -0.782790288218     0.344610763296    12.000000000000
         C           -7.380188291863    -1.499919840646     0.352026824837    12.000000000000
         C           -4.918688659982    -1.500408669094     0.356951261446    12.000000000000
         C           -3.684442475410    -0.795890966800     0.345919021381    12.000000000000
         C           -2.460821219973    -1.511998829889     0.356462107571    12.000000000000
         C           -1.231166192046    -0.810827515945     0.344341728779    12.000000000000
         C           -0.007573805113    -1.526072500475     0.351798253082    12.000000000000
         C            1.223643536163    -0.823929028328     0.361803875031    12.000000000000
         C            2.445666469606    -1.538296940071     0.350053862271    12.000000000000
         C            3.676862523121    -0.835361082620     0.345913277876    12.000000000000
         C            6.132244666694    -0.848632490914     0.344385303664    12.000000000000
         C            4.903514965779    -1.553111171605     0.358226378204    12.000000000000
         C            8.599010668965     0.523950215603     0.349697355679    12.000000000000
         C            8.591741308375    -0.833504518258     0.351433735940    12.000000000000
         C            7.364858584664    -1.578986316670     0.351203559247    12.000000000000
         H           -9.528310151544     1.168193798128     0.348007053084     1.007825032230
         H            9.541406794881     1.065918837380     0.348645323417     1.007825032230
         C           -7.369842089494    -2.888198796998     0.353835033260    12.000000000000
         C           -4.924603288776    -2.917090908405     0.346103400823    12.000000000000
         C           -6.166626675393    -3.625305843890     0.352405240982    12.000000000000
         C           -3.702514539430    -3.633335200185     0.356427470009    12.000000000000
         C           -2.467651164839    -2.929979613868     0.344382831653    12.000000000000
         C           -0.015137653833    -2.941795296464     0.344664420162    12.000000000000
         C           -1.247126020952    -3.643385826627     0.356228373570    12.000000000000
         C            1.209240889918    -3.656568329708     0.358767403361    12.000000000000
         C            2.437331842429    -2.956295389240     0.344627645050    12.000000000000
         C            4.894298164045    -2.969776619350     0.345448385121    12.000000000000
         C            3.664611075316    -3.672873496596     0.358327805062    12.000000000000
         C            6.128634835020    -3.691237708782     0.351673647019    12.000000000000
         C            7.339668484970    -2.967066958435     0.353188873101    12.000000000000
         H           -9.541453290984    -1.283217117729     0.352969520805     1.007825032230
         H            9.528257688346    -1.385572724969     0.352683543701     1.007825032230
         H           -8.315169223574    -3.426803504277     0.358007261790     1.007825032230
         H            8.279150962767    -3.515794440958     0.357528429084     1.007825032230
         C           -6.144998368428    -5.036300923848     0.353731239042    12.000000000000
         C           -3.706787527723    -5.049915365182     0.343910270955    12.000000000000
         C           -4.955594237727    -5.752147624559     0.351877405599    12.000000000000
         C           -2.486125505952    -5.763439225474     0.356849941999    12.000000000000
         C           -1.254062515205    -5.064775701066     0.345674336013    12.000000000000
         C            1.201008394143    -5.077934039257     0.346855460271    12.000000000000
         C           -0.030340854139    -5.778173954203     0.354698659935    12.000000000000
         C            3.653745921603    -5.089397426479     0.347613460019    12.000000000000
         C            2.425488516150    -5.789828286592     0.356990390571    12.000000000000
         C            6.091961438086    -5.101911614451     0.353967873693    12.000000000000
         C            4.894972264885    -5.805002072022     0.352731677863    12.000000000000
         H           -7.089896567766    -5.575653493303     0.358134000724     1.007825032230
         H            7.031051029475    -5.651312187397     0.357547653457     1.007825032230
         C           -4.923549501924    -7.187474750742     0.351322636695    12.000000000000
         C           -2.485346267963    -7.196381728994     0.348812744259    12.000000000000
         C           -3.751690071504    -7.872600808701     0.349007423184    12.000000000000
         C           -0.037953136713    -7.208118525534     0.349028469406    12.000000000000
         C           -1.277960280127    -7.881558035731     0.347043776645    12.000000000000
         C            2.409440141001    -7.222675663067     0.349891670217    12.000000000000
         C            1.194745757428    -7.894839016627     0.347739379336    12.000000000000
         C            4.847616872773    -7.239915761644     0.352398484877    12.000000000000
         C            3.668467426150    -7.912441644008     0.350050050513    12.000000000000
         H           -5.869944530142    -7.722484249106     0.352866673560     1.007825032230
         H            5.788245445663    -7.784985840379     0.353525604359     1.007825032230
         H           -3.753531119175    -8.959725220301     0.347171508755     1.007825032230
         H           -1.284308585620    -8.969529043562     0.342616392786     1.007825032230
         H            1.189217394970    -8.982814271654     0.343646742645     1.007825032230
         H            3.658542435098    -8.999514285118     0.348395509090     1.007825032230

  Charge       = 0
  Multiplicity = 1
  Basis Set: JUN-CC-PVDZ
    Blend: JUN-CC-PVDZ
  Basis Set: (JUN-CC-PVDZ AUX)
    Blend: JUN-CC-PVDZ-JKFIT

    Orbital Energies [Eh]
    ---------------------

    Doubly Occupied:

       1A    -11.264011     2A    -11.263689     3A    -11.263647
       4A    -11.263331     5A    -11.263304     6A    -11.263263
       7A    -11.263103     8A    -11.263095     9A    -11.263072
      10A    -11.262906    11A    -11.262758    12A    -11.262744
      13A    -11.262270    14A    -11.262264    15A    -11.262197
      16A    -11.262191    17A    -11.262123    18A    -11.262099
      19A    -11.262060    20A    -11.262018    21A    -11.262002
      22A    -11.261876    23A    -11.261863    24A    -11.261730
      25A    -11.261719    26A    -11.261697    27A    -11.261693
      28A    -11.261650    29A    -11.261642    30A    -11.261562
      31A    -11.261540    32A    -11.261537    33A    -11.261514
      34A    -11.261508    35A    -11.261490    36A    -11.261473
      37A    -11.261309    38A    -11.261301    39A    -11.261287
      40A    -11.261279    41A    -11.261270    42A    -11.261267
      43A    -11.261255    44A    -11.261246    45A    -11.261240
      46A    -11.261223    47A    -11.261211    48A    -11.261204
      49A    -11.261058    50A    -11.261031    51A    -11.261027
      52A    -11.260955    53A    -11.260953    54A    -11.260873
      55A    -11.259898    56A    -11.259873    57A    -11.259864
      58A    -11.259845    59A    -11.259833    60A    -11.259814
      61A    -11.259270    62A    -11.259241    63A    -11.259238
      64A    -11.259187    65A    -11.259184    66A    -11.259154
      67A    -11.258899    68A    -11.258874    69A    -11.258863
      70A    -11.258845    71A    -11.258834    72A    -11.258818
      73A    -11.254509    74A    -11.254504    75A    -11.254491
      76A    -11.254486    77A    -11.254480    78A    -11.254478
      79A    -11.253641    80A    -11.253624    81A    -11.253623
      82A    -11.253608    83A    -11.253605    84A    -11.253594
      85A    -11.253557    86A    -11.253537    87A    -11.253537
      88A    -11.253523    89A    -11.253520    90A    -11.253510
      91A    -11.253036    92A    -11.253032    93A    -11.253019
      94A    -11.253014    95A    -11.253008    96A    -11.253006
      97A     -1.253886    98A     -1.238949    99A     -1.238923
     100A     -1.220409   101A     -1.220399   102A     -1.215382
     103A     -1.200988   104A     -1.195549   105A     -1.188097
     106A     -1.188074   107A     -1.173712   108A     -1.173711
     109A     -1.155572   110A     -1.155566   111A     -1.152657
     112A     -1.144672   113A     -1.144669   114A     -1.128509
     115A     -1.114656   116A     -1.113113   117A     -1.112434
     118A     -1.112403   119A     -1.111569   120A     -1.088373
     121A     -1.088358   122A     -1.076913   123A     -1.076911
     124A     -1.067559   125A     -1.067525   126A     -1.064910
     127A     -1.046745   128A     -1.046735   129A     -1.040424
     130A     -1.038688   131A     -1.038684   132A     -1.025181
     133A     -1.021326   134A     -1.021262   135A     -1.007124
     136A     -1.006745   137A     -1.003741   138A     -1.000434
     139A     -1.000380   140A     -0.991030   141A     -0.970931
     142A     -0.970878   143A     -0.955835   144A     -0.955775
     145A     -0.905521   146A     -0.905506   147A     -0.905483
     148A     -0.905460   149A     -0.904260   150A     -0.892294
     151A     -0.892237   152A     -0.890295   153A     -0.890244
     154A     -0.889388   155A     -0.872167   156A     -0.869014
     157A     -0.851483   158A     -0.847795   159A     -0.847783
     160A     -0.845532   161A     -0.842951   162A     -0.834503
     163A     -0.834493   164A     -0.828071   165A     -0.828063
     166A     -0.784495   167A     -0.784486   168A     -0.783599
     169A     -0.783584   170A     -0.782228   171A     -0.782204
     172A     -0.781964   173A     -0.766924   174A     -0.760724
     175A     -0.750514   176A     -0.733434   177A     -0.727017
     178A     -0.726984   179A     -0.725019   180A     -0.724481
     181A     -0.724451   182A     -0.718428   183A     -0.713706
     184A     -0.713699   185A     -0.699524   186A     -0.699501
     187A     -0.686059   188A     -0.685899   189A     -0.685891
     190A     -0.682108   191A     -0.682101   192A     -0.678722
     193A     -0.653571   194A     -0.650814   195A     -0.650781
     196A     -0.649742   197A     -0.649735   198A     -0.649507
     199A     -0.640873   200A     -0.640827   201A     -0.640023
     202A     -0.639101   203A     -0.635962   204A     -0.635929
     205A     -0.629075   206A     -0.617744   207A     -0.615249
     208A     -0.615223   209A     -0.608737   210A     -0.608731
     211A     -0.599154   212A     -0.599109   213A     -0.598681
     214A     -0.598529   215A     -0.598518   216A     -0.597973
     217A     -0.595008   218A     -0.594994   219A     -0.594661
     220A     -0.594157   221A     -0.591892   222A     -0.591889
     223A     -0.587319   224A     -0.577747   225A     -0.577730
     226A     -0.575684   227A     -0.575677   228A     -0.573315
     229A     -0.569547   230A     -0.568078   231A     -0.568051
     232A     -0.566688   233A     -0.566681   234A     -0.560863
     235A     -0.558659   236A     -0.558620   237A     -0.558374
     238A     -0.554303   239A     -0.550544   240A     -0.547423
     241A     -0.544253   242A     -0.534975   243A     -0.534964
     244A     -0.533476   245A     -0.533459   246A     -0.528018
     247A     -0.528000   248A     -0.527720   249A     -0.517102
     250A     -0.517074   251A     -0.515325   252A     -0.515320
     253A     -0.509580   254A     -0.509568   255A     -0.497958
     256A     -0.496389   257A     -0.496349   258A     -0.493767
     259A     -0.493742   260A     -0.489398   261A     -0.481389
     262A     -0.477380   263A     -0.477379   264A     -0.473928
     265A     -0.469361   266A     -0.466450   267A     -0.466449
     268A     -0.458773   269A     -0.446603   270A     -0.446550
     271A     -0.440995   272A     -0.440724   273A     -0.440703
     274A     -0.434646   275A     -0.433863   276A     -0.407336
     277A     -0.407309   278A     -0.386363   279A     -0.386319
     280A     -0.385686   281A     -0.385685   282A     -0.383699
     283A     -0.354276   284A     -0.354258   285A     -0.350613
     286A     -0.338062   287A     -0.335538   288A     -0.335467
     289A     -0.332663   290A     -0.332662   291A     -0.307021
     292A     -0.301901   293A     -0.301836   294A     -0.300792
     295A     -0.286119   296A     -0.256426   297A     -0.253436
     298A     -0.253389   299A     -0.204213   300A     -0.204118

  @DF-RHF Final Energy: -3650.34096848240733

   => Energetics <=

    Nuclear Repulsion Energy =          15611.4211649754306563
    One-Electron Energy =              -36072.1759336126633571
    Two-Electron Energy =               16810.4138001548271859
    Total Energy =                      -3650.3409684824073338
 Dipole X            :         -0.0008273            0.0002112           -0.0006161
 Dipole Y            :        123.2193096         -123.2131634            0.0061462
 Dipole Z            :       -397.6426716          397.6494161            0.0067445
 Magnitude           :                                                    0.0091457

    SAPT Results
  --------------------------------------------------------------------------------------------------------
    Electrostatics                -13.60065899 [mEh]      -8.53454237 [kcal/mol]     -35.70852526 [kJ/mol]
      Elst10,r                    -13.60065899 [mEh]      -8.53454237 [kcal/mol]     -35.70852526 [kJ/mol]

    Exchange                        6.27273085 [mEh]       3.93619803 [kcal/mol]      16.46905257 [kJ/mol]
      Exch10                        6.27273085 [mEh]       3.93619803 [kcal/mol]      16.46905257 [kJ/mol]
      Exch10(S^2)                   6.26033464 [mEh]       3.92841930 [kcal/mol]      16.43650634 [kJ/mol]

    Induction                     -14.69978443 [mEh]      -9.22425399 [kcal/mol]     -38.59427871 [kJ/mol]
      Ind20,r                     -14.41404177 [mEh]      -9.04494776 [kcal/mol]     -37.84406145 [kJ/mol]
      Exch-Ind20,r                  1.53042786 [mEh]       0.96035798 [kcal/mol]       4.01813779 [kJ/mol]
      delta HF,r (2)               -1.81617052 [mEh]      -1.13966421 [kcal/mol]      -4.76835505 [kJ/mol]

    Dispersion                    -15.82745940 [mEh]      -9.93188072 [kcal/mol]     -41.55498893 [kJ/mol]
      Disp20                      -16.39754552 [mEh]     -10.28961516 [kcal/mol]     -43.05174982 [kJ/mol]
      Exch-Disp20                   0.57008612 [mEh]       0.35773444 [kcal/mol]       1.49676090 [kJ/mol]
      Disp20 (SS)                  -8.19877276 [mEh]      -5.14480758 [kcal/mol]     -21.52587491 [kJ/mol]
      Disp20 (OS)                  -8.19877276 [mEh]      -5.14480758 [kcal/mol]     -21.52587491 [kJ/mol]
      Exch-Disp20 (SS)              0.35685842 [mEh]       0.22393204 [kcal/mol]       0.93693165 [kJ/mol]
      Exch-Disp20 (OS)              0.21322770 [mEh]       0.13380240 [kcal/mol]       0.55982925 [kJ/mol]

  Total HF                        -22.02771257 [mEh]     -13.82259833 [kcal/mol]     -57.83375140 [kJ/mol]
  Total SAPT0                     -37.85517197 [mEh]     -23.75447904 [kcal/mol]     -99.38874032 [kJ/mol]

  Special recipe for scaled SAPT0 (see Manual):
    Electrostatics sSAPT0         -13.60065899 [mEh]      -8.53454237 [kcal/mol]     -35.70852526 [kJ/mol]
    Exchange sSAPT0                 6.27273085 [mEh]       3.93619803 [kcal/mol]      16.46905257 [kJ/mol]
    Induction sSAPT0              -14.69067513 [mEh]      -9.21853782 [kcal/mol]     -38.57036225 [kJ/mol]
    Dispersion sSAPT0             -15.82406617 [mEh]      -9.92975144 [kcal/mol]     -41.54608002 [kJ/mol]
  Total sSAPT0                    -37.84266945 [mEh]     -23.74663359 [kcal/mol]     -99.35591495 [kJ/mol]
  --------------------------------------------------------------------------------------------------------

*** Psi4 exiting successfully. Buy a developer a beer!
