                               Psi4 1.9 release

  ==> Input File <==

--------------------------------------------------------------------------
memory 64 GB # how much memory is available ! Depends on the nodes/cores !

molecule dimer {
# monomer A
+1 1    # Charge and multiplicity
C  0.680067 1.417258 -5.615929
C -0.680504 1.419286 -5.615545
N -1.085635 1.420284 -4.297221
C  0.000108 1.423560 -3.515820
C -2.477365 1.469690 -3.829242
N  1.085222 1.420284 -4.297221
H  1.385146 1.409430 -6.433368
H -1.385302 1.419096 -6.433214
H -0.000009 1.425307 -2.434731
C  2.478117 1.403392 -3.832123
H  2.490592 1.430737 -2.741870
H  2.967028 0.489946 -4.179299
H  3.001428 2.278875 -4.223595
H -2.857359 2.491761 -3.909201
H -3.082679 0.799606 -4.442306
H -2.518128 1.142706 -2.789294
--
# monomer B
0 1     # Charge and multiplicity
C   -3.66844126402057      7.80375217008252      0.00190004133558
C   -4.84759871934653      7.13124183134024     -0.00046653359696
C   -4.89495929917518      5.69633040353158     -0.00103944469517
C   -3.65374067877320      4.98073034095895      0.00662099703436
C   -2.40942512149445      7.11398103667468      0.00209438359570
C   -2.42547734410473      5.68112195090346     -0.00491050527438
C   -1.19474401643570      7.78614419430947      0.00356656413763
C   0.03795902893699      7.09942164575698      0.00139585983271
C   0.03033258741920      5.66948955970466     -0.00408752508301
C   -1.20098450790502      4.96927034791531      0.00488220885047
C   1.27795782581485      7.77285944319479      0.00277170839332
C   2.48535808472416      7.08769688523756      0.00049722048857
C   2.48612868491717      5.65477081024076     -0.00644052849921
C   1.25408291964399      4.95607811366431      0.00518741308898
C   3.75171459140595      7.76391215098033      0.00062407186893
C   4.92356605618520      7.07878077698995     -0.00143240883900
C   4.95560727132542      5.64344746336949     -0.00159282164606
C   3.70680153420475      4.94121020833308      0.00349873852374
H   -3.65852113775815      8.89082741913536      0.00358502958574
H   -1.18921332975660      8.87412108735996      0.00753844057883
H   1.28429423888630      8.86083343548850      0.00693053253426
H   3.75354208679975      8.85103527897216      0.00214659618464
H   5.86995870320703      7.61379483465560     -0.00235777588134
H   -5.78823170750226      7.67630221293400     -0.00202638095293
C   -6.09197395869619      4.99326001364347     -0.00291168518608
C   -6.12866148031747      3.58258016879823     -0.00171050815740
C   -3.66457974004527      3.56418217974434     -0.00463560277484
C   -4.89429820469869      2.86108077590057      0.00453338221034
C   -2.43733499489796      2.84761165708481      0.00719617576166
C   -1.20922785759670      3.54788693497833     -0.00648285103018
C   1.24714157216223      3.53468075142962     -0.00729145743546
C   0.01517603956900      2.83311183930540      0.00439272578912
C   2.46764517244071      2.82128997725533      0.00449278391269
C   3.70254947457969      3.52466015442405     -0.00899517692985
C   6.14498038638375      4.92757236613191     -0.00282626685777
C   6.16658835886151      3.51658447594213     -0.00065971342101
C   4.92460995845939      2.80840792535402      0.00587903281610
H   7.08990550964105      5.46688776622306     -0.00658814770723
H   -7.03104175110130      5.54268795285765     -0.00714490013730
C   -7.33969804112295      2.85841153457957     -0.00333767559888
C   -7.36488195805880      1.47032337158330     -0.00157213747140
C   -4.90350460894690      1.44442681216000     -0.00628840166334
C   -6.13225715261081      0.73993935705394      0.00600164231964
C   -3.67687480051673      0.72669714267312      0.00433931473643
C   -2.44565658606518      1.42964113326212     -0.00597039546461
C   -1.22360068130162      0.71532450163492      0.00545886906656
C   0.00763786931376      1.41738314923765      0.00392452278437
C   1.23121980774686      0.70211669058719     -0.01490206287210
C   2.46082110053113      1.40329203612573      0.00460244601878
C   3.68443025419614      0.68719842821222      0.00377365974158
C   4.91870890153864      1.39173456118907     -0.00862816189375
C   7.36980207796101      2.77948220318441     -0.00242013321349
C   7.38016266612146      1.39121750785509     -0.00087345036788
C   6.13979953912259      0.67411862320065      0.00545489144369
H   -8.27919079934664      3.40711804112415     -0.00763522772059
H   8.31511347147953      3.31811809662368     -0.00663070901292
C   -8.59175593758115      0.72483255304480     -0.00123170985383
C   -8.59902460370342     -0.63263980622873      0.00089141472904
C   -6.13981313911873     -0.67413663715361     -0.00609792660607
C   -7.38018411213749     -1.39126618958160      0.00131813493501
C   -4.91868448025621     -1.39175501803000      0.00624257154343
C   -3.68443829568458     -0.68723731573599     -0.00478966852105
C   -2.46081704024768     -1.40334517882457      0.00575341766833
C   -1.23116201232071     -0.70217386488055     -0.00636696112346
C   -0.00756962538737     -1.41741884941102      0.00108956317991
C   1.22364771588843     -0.71527537726392      0.01109518512883
C   2.44567064933149     -1.42964328900682     -0.00065482763106
C   3.67686670284649     -0.72670743155550     -0.00479541202602
C   6.13224884641929     -0.73997883984993     -0.00632338623858
C   4.90351914550401     -1.44445752054090      0.00751768830159
C   8.59901484869081      0.63260386666793     -0.00101133422380
C   8.59174548810050     -0.72485086719319      0.00072504603735
C   7.36486276438985     -1.47033266560598      0.00049486934466
H   -9.52830597181814      1.27684744919284     -0.00270163681798
H   9.54141097460619      1.17457248844457     -0.00206336648518
C   -7.36983790976868     -2.77954514593389      0.00312634335708
C   -4.92459910905015     -2.80843725734101     -0.00460528907921
C   -6.16662249566744     -3.51665219282533      0.00169655107992
C   -3.70251035970491     -3.52468154912026      0.00571878010666
C   -2.46764698511392     -2.82132596280400     -0.00632585824990
C   -0.01513347410770     -2.83314164539971     -0.00604426974092
C   -1.24712184122656     -3.53473217556300      0.00551968366725
C   1.20924506964357     -3.54791467864352      0.00805871345849
C   2.43733602215464     -2.84764173817541     -0.00608104485234
C   4.89430234377080     -2.86112296828604     -0.00526030478103
C   3.66461525504104     -3.56421984553201      0.00761911515957
C   6.12863901474565     -3.58258405771778      0.00096495711699
C   7.33967266469532     -2.85841330737039      0.00248018319869
H   -9.54144911125902     -1.17456346666430      0.00226083090216
H   9.52826186807155     -1.27691907390448      0.00197485379837
H   -8.31516504384864     -3.31814985321231      0.00729857188773
H   8.27915514249207     -3.40714078989363      0.00681973918158
C   -6.14499418870218     -4.92764727278338      0.00302254913999
C   -3.70678334799751     -4.94126171411716     -0.00679841894792
C   -4.95559005800169     -5.64349397349412      0.00116871569699
C   -2.48612132622665     -5.65478557440947      0.00614125209662
C   -1.25405833548005     -4.95612205000132     -0.00503435388927
C   1.20101257386816     -4.96928038819302     -0.00385322963129
C   -0.03033667441341     -5.66952030313900      0.00398997003238
C   3.65375010132847     -4.98074377541453     -0.00309522988330
C   2.42549269587528     -5.68117463552727      0.00628170066869
C   6.09196561781097     -4.99325796338655      0.00325918379042
C   4.89497644461045     -5.69634842095790      0.00202298796027
H   -7.08989238804069     -5.46699984223871      0.00742531082125
H   7.03105520920009     -5.54265853633254      0.00683896355417
C   -4.92354532219813     -7.07882109967734      0.00061394679214
C   -2.48534208823777     -7.08772807792913     -0.00189594564379
C   -3.75168589177895     -7.76394715763627     -0.00170126671874
C   -0.03794895698805     -7.09946487446944     -0.00168022049625
C   -1.27795610040136     -7.77290438466689     -0.00366491325785
C   2.40944432072629     -7.11402201200282     -0.00081701968533
C   1.19474993715296     -7.78618536556242     -0.00296931056689
C   4.84762105249800     -7.13126211057943      0.00168979497423
C   3.66847160587561     -7.80378799294376     -0.00065863938960
H   -5.86994035041618     -7.61383059804164      0.00215798365757
H   5.78824962538815     -7.67633218931421      0.00281691445618
H   -3.75352693944918     -8.85107156923607     -0.00353718114765
H   -1.28430440589466     -8.86087539249706     -0.00809229711623
H   1.18922157469537     -8.87416062058945     -0.00706194725726
H   3.65854661482387     -8.89086063405326     -0.00231318081200

    units angstrom      # Angstroms are the default
    no_reorient         # Geometry fixed, default
    symmetry c1         # C1 symmetry, default
}

set {
    scf_type DF         # Density fitting, faster than exact integrals
    freeze_core True    # Freeze core electrons
    basis jun-cc-pVDZ   # Jun-cc-pVDZ basis set, recommended for sSAPT0 in https://doi.org/10.1063/1.4867135
}

energy('ssapt0')        # Compute sSAPT0 energy, includes also SAPT0
--------------------------------------------------------------------------

  //              Dimer HF             //
    Molecular point group: c1
  Charge       = 1
  Multiplicity = 1
  Basis Set: JUN-CC-PVDZ
    Blend: JUN-CC-PVDZ
  Basis Set: (JUN-CC-PVDZ AUX)
    Blend: JUN-CC-PVDZ-JKFIT
  @DF-RHF Final Energy: -3953.66038631572792
    Total Energy =                      -3953.6603863157288288
 Dipole X            :         -0.0052131            0.0004804           -0.0047327
 Dipole Y            :         -7.2930654            8.7122315            1.4191661
 Dipole Z            :         19.3937711          -24.8359104           -5.4421393
 Magnitude           :                                                    5.6241386
  //            Monomer A HF           //
    Molecular point group: c1
  Multiplicity = 1
  Basis Set: JUN-CC-PVDZ
    Blend: JUN-CC-PVDZ
  Basis Set: (JUN-CC-PVDZ AUX)
    Blend: JUN-CC-PVDZ-JKFIT
  @DF-RHF Final Energy:  -303.29828122582086
    Total Energy =                       -303.2982812258208583
  //            Monomer B HF           //
    Molecular point group: c1

    Geometry (in Angstrom), charge = 0, multiplicity = 1:

       Center              X                  Y                   Z               Mass
    ------------   -----------------  -----------------  -----------------  -----------------
      Gh(C)           0.680062820275     1.308604348936    -5.280468765214    12.000000000000
      Gh(C)          -0.680508179725     1.310632348936    -5.280084765214    12.000000000000
      Gh(N)          -1.085639179725     1.311630348936    -3.961760765214    14.003074004430
      Gh(C)           0.000103820275     1.314906348936    -3.180359765214    12.000000000000
      Gh(C)          -2.477369179725     1.361036348936    -3.493781765214    12.000000000000
      Gh(N)           1.085217820275     1.311630348936    -3.961760765214    14.003074004430
      Gh(H)           1.385141820275     1.300776348936    -6.097907765214     1.007825032230
      Gh(H)          -1.385306179725     1.310442348936    -6.097753765214     1.007825032230
      Gh(H)          -0.000013179725     1.316653348936    -2.099270765214     1.007825032230
      Gh(C)           2.478112820275     1.294738348936    -3.496662765214    12.000000000000
      Gh(H)           2.490587820275     1.322083348936    -2.406409765214     1.007825032230
      Gh(H)           2.967023820275     0.381292348936    -3.843838765214     1.007825032230
      Gh(H)           3.001423820275     2.170221348936    -3.888134765214     1.007825032230
      Gh(H)          -2.857363179725     2.383107348936    -3.573740765214     1.007825032230
      Gh(H)          -3.082683179725     0.690952348936    -4.106845765214     1.007825032230
      Gh(H)          -2.518132179725     1.034052348936    -2.453833765214     1.007825032230
         C           -3.668445443746     7.695098519018     0.337360276121    12.000000000000
         C           -4.847602899072     7.022588180276     0.334993701189    12.000000000000
         C           -4.894963478901     5.587676752467     0.334420790091    12.000000000000
         C           -3.653744858499     4.872076689895     0.342081231820    12.000000000000
         C           -2.409429301220     7.005327385610     0.337554618381    12.000000000000
         C           -2.425481523830     5.572468299839     0.330549729511    12.000000000000
         C           -1.194748196161     7.677490543245     0.339026798923    12.000000000000
         C            0.037954849212     6.990767994693     0.336856094618    12.000000000000
         C            0.030328407694     5.560835908640     0.331372709703    12.000000000000
         C           -1.200988687630     4.860616696851     0.340342443636    12.000000000000
         C            1.277953646089     7.664205792130     0.338231943179    12.000000000000
         C            2.485353904999     6.979043234173     0.335957455274    12.000000000000
         C            2.486124505192     5.546117159176     0.329019706287    12.000000000000
         C            1.254078739919     4.847424462600     0.340647647875    12.000000000000
         C            3.751710411681     7.655258499916     0.336084306655    12.000000000000
         C            4.923561876460     6.970127125926     0.334027825947    12.000000000000
         C            4.955603091600     5.534793812305     0.333867413140    12.000000000000
         C            3.706797354479     4.832556557269     0.338958973309    12.000000000000
         H           -3.658525317484     8.782173768071     0.339045264371     1.007825032230
         H           -1.189217509482     8.765467436296     0.342998675365     1.007825032230
         H            1.284290059161     8.752179784424     0.342390767320     1.007825032230
         H            3.753537907074     8.742381627908     0.337606830970     1.007825032230
         H            5.869954523482     7.505141183591     0.333102458904     1.007825032230
         H           -5.788235887228     7.567648561870     0.333433853833     1.007825032230
         C           -6.091978138422     4.884606362579     0.332548549600    12.000000000000
         C           -6.128665660043     3.473926517734     0.333749726628    12.000000000000
         C           -3.664583919771     3.455528528680     0.330824632011    12.000000000000
         C           -4.894302384424     2.752427124836     0.339993616996    12.000000000000
         C           -2.437339174623     2.738958006020     0.342656410547    12.000000000000
         C           -1.209232037322     3.439233283914     0.328977383756    12.000000000000
         C            1.247137392437     3.426027100365     0.328168777350    12.000000000000
         C            0.015171859844     2.724458188241     0.339852960575    12.000000000000
         C            2.467640992715     2.712636326191     0.339953018698    12.000000000000
         C            3.702545294854     3.416006503360     0.326465057856    12.000000000000
         C            6.144976206658     4.818918715067     0.332633967928    12.000000000000
         C            6.166584179136     3.407930824878     0.334800521365    12.000000000000
         C            4.924605778734     2.699754274290     0.341339267602    12.000000000000
         H            7.089901329916     5.358234115159     0.328872087078     1.007825032230
         H           -7.031045930827     5.434034301793     0.328315334648     1.007825032230
         C           -7.339702220848     2.749757883515     0.332122559187    12.000000000000
         C           -7.364886137784     1.361669720519     0.333888097314    12.000000000000
         C           -4.903508788672     1.335773161096     0.329171833122    12.000000000000
         C           -6.132261332336     0.631285705989     0.341461877105    12.000000000000
         C           -3.676878980242     0.618043491609     0.339799549522    12.000000000000
         C           -2.445660765791     1.320987482198     0.329489839321    12.000000000000
         C           -1.223604861027     0.606670850570     0.340919103852    12.000000000000
         C            0.007633689588     1.308729498173     0.339384757570    12.000000000000
         C            1.231215628021     0.593463039523     0.320558171914    12.000000000000
         C            2.460816920806     1.294638385061     0.340062680805    12.000000000000
         C            3.684426074471     0.578544777148     0.339233894527    12.000000000000
         C            4.918704721813     1.283080910125     0.326832072892    12.000000000000
         C            7.369797898236     2.670828552120     0.333040101572    12.000000000000
         C            7.380158486396     1.282563856791     0.334586784418    12.000000000000
         C            6.139795359397     0.565464972136     0.340915126229    12.000000000000
         H           -8.279194979072     3.298464390060     0.327825007065     1.007825032230
         H            8.315109291754     3.209464445559     0.328829525773     1.007825032230
         C           -8.591760117307     0.616178901980     0.334228524932    12.000000000000
         C           -8.599028783429    -0.741293457293     0.336351649515    12.000000000000
         C           -6.139817318844    -0.782790288218     0.329362308180    12.000000000000
         C           -7.380188291863    -1.499919840646     0.336778369721    12.000000000000
         C           -4.918688659982    -1.500408669094     0.341702806329    12.000000000000
         C           -3.684442475410    -0.795890966800     0.330670566265    12.000000000000
         C           -2.460821219973    -1.511998829889     0.341213652454    12.000000000000
         C           -1.231166192046    -0.810827515945     0.329093273662    12.000000000000
         C           -0.007573805113    -1.526072500475     0.336549797966    12.000000000000
         C            1.223643536163    -0.823929028328     0.346555419915    12.000000000000
         C            2.445666469606    -1.538296940071     0.334805407155    12.000000000000
         C            3.676862523121    -0.835361082620     0.330664822760    12.000000000000
         C            6.132244666694    -0.848632490914     0.329136848547    12.000000000000
         C            4.903514965779    -1.553111171605     0.342977923087    12.000000000000
         C            8.599010668965     0.523950215603     0.334448900562    12.000000000000
         C            8.591741308375    -0.833504518258     0.336185280823    12.000000000000
         C            7.364858584664    -1.578986316670     0.335955104130    12.000000000000
         H           -9.528310151544     1.168193798128     0.332758597968     1.007825032230
         H            9.541406794881     1.065918837380     0.333396868301     1.007825032230
         C           -7.369842089494    -2.888198796998     0.338586578143    12.000000000000
         C           -4.924603288776    -2.917090908405     0.330854945707    12.000000000000
         C           -6.166626675393    -3.625305843890     0.337156785866    12.000000000000
         C           -3.702514539430    -3.633335200185     0.341179014892    12.000000000000
         C           -2.467651164839    -2.929979613868     0.329134376536    12.000000000000
         C           -0.015137653833    -2.941795296464     0.329415965045    12.000000000000
         C           -1.247126020952    -3.643385826627     0.340979918453    12.000000000000
         C            1.209240889918    -3.656568329708     0.343518948244    12.000000000000
         C            2.437331842429    -2.956295389240     0.329379189933    12.000000000000
         C            4.894298164045    -2.969776619350     0.330199930005    12.000000000000
         C            3.664611075316    -3.672873496596     0.343079349945    12.000000000000
         C            6.128634835020    -3.691237708782     0.336425191903    12.000000000000
         C            7.339668484970    -2.967066958435     0.337940417984    12.000000000000
         H           -9.541453290984    -1.283217117729     0.337721065688     1.007825032230
         H            9.528257688346    -1.385572724969     0.337435088584     1.007825032230
         H           -8.315169223574    -3.426803504277     0.342758806673     1.007825032230
         H            8.279150962767    -3.515794440958     0.342279973967     1.007825032230
         C           -6.144998368428    -5.036300923848     0.338482783926    12.000000000000
         C           -3.706787527723    -5.049915365182     0.328661815838    12.000000000000
         C           -4.955594237727    -5.752147624559     0.336628950483    12.000000000000
         C           -2.486125505952    -5.763439225474     0.341601486882    12.000000000000
         C           -1.254062515205    -5.064775701066     0.330425880896    12.000000000000
         C            1.201008394143    -5.077934039257     0.331607005154    12.000000000000
         C           -0.030340854139    -5.778173954203     0.339450204818    12.000000000000
         C            3.653745921603    -5.089397426479     0.332365004902    12.000000000000
         C            2.425488516150    -5.789828286592     0.341741935454    12.000000000000
         C            6.091961438086    -5.101911614451     0.338719418576    12.000000000000
         C            4.894972264885    -5.805002072022     0.337483222746    12.000000000000
         H           -7.089896567766    -5.575653493303     0.342885545607     1.007825032230
         H            7.031051029475    -5.651312187397     0.342299198340     1.007825032230
         C           -4.923549501924    -7.187474750742     0.336074181578    12.000000000000
         C           -2.485346267963    -7.196381728994     0.333564289142    12.000000000000
         C           -3.751690071504    -7.872600808701     0.333758968067    12.000000000000
         C           -0.037953136713    -7.208118525534     0.333780014289    12.000000000000
         C           -1.277960280127    -7.881558035731     0.331795321528    12.000000000000
         C            2.409440141001    -7.222675663067     0.334643215100    12.000000000000
         C            1.194745757428    -7.894839016627     0.332490924219    12.000000000000
         C            4.847616872773    -7.239915761644     0.337150029760    12.000000000000
         C            3.668467426150    -7.912441644008     0.334801595396    12.000000000000
         H           -5.869944530142    -7.722484249106     0.337618218443     1.007825032230
         H            5.788245445663    -7.784985840379     0.338277149242     1.007825032230
         H           -3.753531119175    -8.959725220301     0.331923053638     1.007825032230
         H           -1.284308585620    -8.969529043562     0.327367937669     1.007825032230
         H            1.189217394970    -8.982814271654     0.328398287528     1.007825032230
         H            3.658542435098    -8.999514285118     0.333147053974     1.007825032230

  Charge       = 0
  Multiplicity = 1
  Basis Set: JUN-CC-PVDZ
    Blend: JUN-CC-PVDZ
  Basis Set: (JUN-CC-PVDZ AUX)
    Blend: JUN-CC-PVDZ-JKFIT

    Orbital Energies [Eh]
    ---------------------

    Doubly Occupied:

       1A    -11.264021     2A    -11.263678     3A    -11.263647
       4A    -11.263325     5A    -11.263292     6A    -11.263256
       7A    -11.263095     8A    -11.263086     9A    -11.263066
      10A    -11.262894    11A    -11.262750    12A    -11.262731
      13A    -11.262262    14A    -11.262254    15A    -11.262195
      16A    -11.262185    17A    -11.262112    18A    -11.262089
      19A    -11.262051    20A    -11.262008    21A    -11.261992
      22A    -11.261876    23A    -11.261855    24A    -11.261719
      25A    -11.261710    26A    -11.261689    27A    -11.261683
      28A    -11.261640    29A    -11.261632    30A    -11.261553
      31A    -11.261532    32A    -11.261526    33A    -11.261504
      34A    -11.261497    35A    -11.261480    36A    -11.261468
      37A    -11.261300    38A    -11.261292    39A    -11.261277
      40A    -11.261270    41A    -11.261259    42A    -11.261256
      43A    -11.261245    44A    -11.261236    45A    -11.261230
      46A    -11.261214    47A    -11.261202    48A    -11.261193
      49A    -11.261047    50A    -11.261021    51A    -11.261015
      52A    -11.260945    53A    -11.260943    54A    -11.260861
      55A    -11.259889    56A    -11.259864    57A    -11.259853
      58A    -11.259835    59A    -11.259823    60A    -11.259801
      61A    -11.259260    62A    -11.259231    63A    -11.259229
      64A    -11.259177    65A    -11.259174    66A    -11.259144
      67A    -11.258889    68A    -11.258865    69A    -11.258851
      70A    -11.258836    71A    -11.258825    72A    -11.258805
      73A    -11.254502    74A    -11.254497    75A    -11.254481
      76A    -11.254477    77A    -11.254470    78A    -11.254469
      79A    -11.253633    80A    -11.253613    81A    -11.253612
      82A    -11.253596    83A    -11.253591    84A    -11.253583
      85A    -11.253549    86A    -11.253527    87A    -11.253526
      88A    -11.253512    89A    -11.253506    90A    -11.253498
      91A    -11.253029    92A    -11.253025    93A    -11.253008
      94A    -11.253006    95A    -11.252998    96A    -11.252997
      97A     -1.253864    98A     -1.238930    99A     -1.238906
     100A     -1.220393   101A     -1.220384   102A     -1.215362
     103A     -1.200974   104A     -1.195534   105A     -1.188076
     106A     -1.188056   107A     -1.173698   108A     -1.173697
     109A     -1.155554   110A     -1.155548   111A     -1.152637
     112A     -1.144659   113A     -1.144656   114A     -1.128493
     115A     -1.114638   116A     -1.113099   117A     -1.112415
     118A     -1.112385   119A     -1.111557   120A     -1.088357
     121A     -1.088341   122A     -1.076900   123A     -1.076898
     124A     -1.067543   125A     -1.067507   126A     -1.064891
     127A     -1.046729   128A     -1.046720   129A     -1.040408
     130A     -1.038675   131A     -1.038670   132A     -1.025163
     133A     -1.021304   134A     -1.021242   135A     -1.007109
     136A     -1.006728   137A     -1.003726   138A     -1.000416
     139A     -1.000362   140A     -0.991017   141A     -0.970913
     142A     -0.970861   143A     -0.955821   144A     -0.955761
     145A     -0.905500   146A     -0.905494   147A     -0.905464
     148A     -0.905447   149A     -0.904238   150A     -0.892274
     151A     -0.892217   152A     -0.890276   153A     -0.890225
     154A     -0.889370   155A     -0.872154   156A     -0.869003
     157A     -0.851468   158A     -0.847777   159A     -0.847764
     160A     -0.845513   161A     -0.842933   162A     -0.834488
     163A     -0.834477   164A     -0.828058   165A     -0.828050
     166A     -0.784480   167A     -0.784471   168A     -0.783581
     169A     -0.783568   170A     -0.782211   171A     -0.782188
     172A     -0.781945   173A     -0.766908   174A     -0.760705
     175A     -0.750495   176A     -0.733421   177A     -0.727001
     178A     -0.726968   179A     -0.725002   180A     -0.724465
     181A     -0.724435   182A     -0.718409   183A     -0.713687
     184A     -0.713681   185A     -0.699508   186A     -0.699487
     187A     -0.686040   188A     -0.685885   189A     -0.685877
     190A     -0.682093   191A     -0.682086   192A     -0.678705
     193A     -0.653556   194A     -0.650798   195A     -0.650766
     196A     -0.649723   197A     -0.649717   198A     -0.649493
     199A     -0.640853   200A     -0.640809   201A     -0.640008
     202A     -0.639088   203A     -0.635945   204A     -0.635911
     205A     -0.629059   206A     -0.617735   207A     -0.615235
     208A     -0.615210   209A     -0.608722   210A     -0.608716
     211A     -0.599151   212A     -0.599100   213A     -0.598665
     214A     -0.598511   215A     -0.598500   216A     -0.597954
     217A     -0.594994   218A     -0.594980   219A     -0.594646
     220A     -0.594137   221A     -0.591875   222A     -0.591872
     223A     -0.587301   224A     -0.577735   225A     -0.577718
     226A     -0.575680   227A     -0.575669   228A     -0.573300
     229A     -0.569546   230A     -0.568059   231A     -0.568033
     232A     -0.566672   233A     -0.566665   234A     -0.560851
     235A     -0.558642   236A     -0.558603   237A     -0.558361
     238A     -0.554287   239A     -0.550538   240A     -0.547412
     241A     -0.544245   242A     -0.534969   243A     -0.534957
     244A     -0.533460   245A     -0.533444   246A     -0.528004
     247A     -0.527986   248A     -0.527701   249A     -0.517084
     250A     -0.517056   251A     -0.515317   252A     -0.515311
     253A     -0.509566   254A     -0.509554   255A     -0.497942
     256A     -0.496373   257A     -0.496333   258A     -0.493759
     259A     -0.493733   260A     -0.489394   261A     -0.481375
     262A     -0.477371   263A     -0.477370   264A     -0.473914
     265A     -0.469343   266A     -0.466434   267A     -0.466433
     268A     -0.458763   269A     -0.446582   270A     -0.446529
     271A     -0.440983   272A     -0.440716   273A     -0.440695
     274A     -0.434637   275A     -0.433854   276A     -0.407330
     277A     -0.407298   278A     -0.386353   279A     -0.386307
     280A     -0.385677   281A     -0.385675   282A     -0.383691
     283A     -0.354265   284A     -0.354249   285A     -0.350603
     286A     -0.338045   287A     -0.335522   288A     -0.335455
     289A     -0.332654   290A     -0.332653   291A     -0.307010
     292A     -0.301887   293A     -0.301822   294A     -0.300783
     295A     -0.286106   296A     -0.256418   297A     -0.253421
     298A     -0.253376   299A     -0.204200   300A     -0.204106

  @DF-RHF Final Energy: -3650.34126319514780

   => Energetics <=

    Nuclear Repulsion Energy =          15611.4211649754306563
    One-Electron Energy =              -36072.1843040863095666
    Two-Electron Energy =               16810.4218759157338354
    Total Energy =                      -3650.3412631951468938
 Dipole X            :         -0.0008914            0.0002112           -0.0006802
 Dipole Y            :        123.2195924         -123.2131634            0.0064290
 Dipole Z            :       -380.3535497          380.3601737            0.0066241
 Magnitude           :                                                    0.0092560

    SAPT Results
  --------------------------------------------------------------------------------------------------------
    Electrostatics                -15.36971565 [mEh]      -9.64464218 [kcal/mol]     -40.35318289 [kJ/mol]
      Elst10,r                    -15.36971565 [mEh]      -9.64464218 [kcal/mol]     -40.35318289 [kJ/mol]

    Exchange                       12.12194368 [mEh]       7.60663450 [kcal/mol]      31.82615875 [kJ/mol]
      Exch10                       12.12194368 [mEh]       7.60663450 [kcal/mol]      31.82615875 [kJ/mol]
      Exch10(S^2)                  12.07753406 [mEh]       7.57876704 [kcal/mol]      31.70956130 [kJ/mol]

    Induction                     -17.59412278 [mEh]     -11.04047873 [kcal/mol]     -46.19336301 [kJ/mol]
      Ind20,r                     -17.84193448 [mEh]     -11.19598292 [kcal/mol]     -46.84399253 [kJ/mol]
      Exch-Ind20,r                  3.11201042 [mEh]       1.95281602 [kcal/mol]       8.17058224 [kJ/mol]
      delta HF,r (2)               -2.86419872 [mEh]      -1.79731183 [kcal/mol]      -7.51995272 [kJ/mol]

    Dispersion                    -20.02963204 [mEh]     -12.56878386 [kcal/mol]     -52.58779167 [kJ/mol]
      Disp20                      -21.04451469 [mEh]     -13.20563234 [kcal/mol]     -55.25236571 [kJ/mol]
      Exch-Disp20                   1.01488265 [mEh]       0.63684848 [kcal/mol]       2.66457404 [kJ/mol]
      Disp20 (SS)                 -10.52225735 [mEh]      -6.60281617 [kcal/mol]     -27.62618286 [kJ/mol]
      Disp20 (OS)                 -10.52225735 [mEh]      -6.60281617 [kcal/mol]     -27.62618286 [kJ/mol]
      Exch-Disp20 (SS)              0.62876298 [mEh]       0.39455472 [kcal/mol]       1.65081697 [kJ/mol]
      Exch-Disp20 (OS)              0.38611968 [mEh]       0.24229375 [kcal/mol]       1.01375707 [kJ/mol]

  Total HF                        -20.84189476 [mEh]     -13.07848641 [kcal/mol]     -54.72038715 [kJ/mol]
  Total SAPT0                     -40.87152680 [mEh]     -25.64727027 [kcal/mol]    -107.30817882 [kJ/mol]

  Special recipe for scaled SAPT0 (see Manual):
    Electrostatics sSAPT0         -15.36971565 [mEh]      -9.64464218 [kcal/mol]     -40.35318289 [kJ/mol]
    Exchange sSAPT0                12.12194368 [mEh]       7.60663450 [kcal/mol]      31.82615875 [kJ/mol]
    Induction sSAPT0              -17.55966740 [mEh]     -11.01885765 [kcal/mol]     -46.10290042 [kJ/mol]
    Dispersion sSAPT0             -20.01839552 [mEh]     -12.56173284 [kcal/mol]     -52.55829019 [kJ/mol]
  Total sSAPT0                    -40.82583490 [mEh]     -25.61859817 [kcal/mol]    -107.18821475 [kJ/mol]
  --------------------------------------------------------------------------------------------------------

*** Psi4 exiting successfully. Buy a developer a beer!
