                               Psi4 1.9 release

  ==> Input File <==

--------------------------------------------------------------------------
memory 32 GB # how much memory is available ! Depends on the nodes/cores !

molecule dimer {
# monomer A
-1 1    # Charge and multiplicity
B -1.977592e-04  2.742729e-04 -7.199966
F  1.123153e-16  1.430594e-17 -5.787181
F  1.147860e+00  6.757812e-01 -7.671107
F  1.191806e-02 -1.332011e+00 -7.670905
F -1.159666e+00  6.560735e-01 -7.670826
--
# monomer B
0 1     # Charge and multiplicity
C   1.22531237526482      0.70753866091955      0.00613762728373
C   1.22532433589282     -0.70753852257020     -0.00619318228664
C   -0.00000567409046      1.41496628609039     -0.00672680580738
C   2.45644923379077      1.41832825917820      0.00902448468363
C   0.00001130712078     -1.41497612663474      0.00347275151708
C   -1.22530046906674      0.70754574598412      0.00838914760619
C   2.45643823516184     -1.41832293188077     -0.00843833914343
C   -0.00000085313587      2.83680140328112     -0.00913035594137
C   3.68182717731192      0.70931832800114     -0.00808954934571
C   2.45512052870677      2.83422403348893     -0.00819210630633
C   3.68182158506039     -0.70933346742900      0.00798293467272
C   -1.22531311884624     -0.70752714354401     -0.00512042085974
C   1.22670006104402      3.54346985599427      0.00816696660346
C   0.00000526469929     -2.83678176723568      0.00832091913869
C   -2.45643555300670      1.41831729028492      0.00842454345199
C   2.45512389762097     -2.83422965658853      0.00783102630520
C   -1.22671388474763      3.54346943575023      0.00827029982280
C   4.91451777504333      1.42717324448953     -0.00160886631602
C   3.69315067131765      3.54279566454522     -0.00155906667985
C   -2.45643712022637     -1.41831290883911     -0.00846337726810
C   1.22670532178455     -3.54347386990643     -0.00780316414624
C   -2.45512491866593      2.83421703463423     -0.00818572995999
C   4.91452486062398     -1.42718653794377      0.00136387641845
C   1.22142509354026      4.97013443726031      0.00150231067809
C   4.89300870916237      2.82518837202648     -0.00039219795739
C   -1.22669652864725     -3.54347062507680     -0.00753595973677
C   -3.68181849668397      0.70932533873199     -0.00807686886569
C   3.69314758099218     -3.54280096939050      0.00148176697923
C   -1.22143177215231      4.97012866986289      0.00168580605083
C   6.13477145276790      0.68054831910577     -0.00083909176631
C   3.65678936045204      4.97295361556775     -0.00065042889723
C   -2.45512642789169     -2.83421472106065      0.00758666850712
C   -3.68181869921921     -0.70932533146830      0.00810055625144
C   4.89301309775526     -2.82519973363176      0.00021895393805
C   -0.00000059327114      5.65044773803267      0.00045449734393
C   6.13477559217374     -0.68055448207492      0.00042622874941
C   2.47813196269732      5.65357712333155      0.00063835075260
C   1.22142288457925     -4.97012668293268     -0.00129718634452
C   -3.69316190412301      3.54279732619245     -0.00139355922051
C   -1.22142804110313     -4.97011793159564     -0.00140994817719
C   -4.91452132810043      1.42717581899491     -0.00153192130862
C   3.65678749952045     -4.97295485423912      0.00080007163680
C   -2.47813805026426      5.65357479452875      0.00092287576113
C   -3.69314125872231     -3.54278984697859      0.00136564082345
C   -4.91451200321153     -1.42718062802730      0.00139857359209
C   -0.00000552908399     -5.65043791501335      0.00005899322272
C   -4.89302000425900      2.82518897091939     -0.00040227981744
C   2.47812647313991     -5.65357317188818     -0.00029052915548
C   -3.65679823041642      4.97295655404175     -0.00047374852278
C   -4.89299899901461     -2.82519139505969      0.00006491824035
C   -2.47812801824129     -5.65356579800621     -0.00056571680280
C   -6.13477002348955      0.68054913825639     -0.00086464346868
C   -3.65678835334731     -4.97294365097028      0.00058578382008
C   -6.13476456307132     -0.68055354348201      0.00040575295444
H   5.83528897565761      3.36927626695423      0.00396712770529
H   7.07385965258860      1.22821762089947     -0.00037744837300
H   4.60066374401555      5.51238117445323     -0.00014522814529
H   5.83528386714679     -3.36930568472863     -0.00423551337640
H   -0.00001167146422      6.73853104613662     -0.00389474766392
H   7.07386165167227     -1.22822657074368     -0.00008250934481
H   2.47331421164041      6.74068466339473      0.00017162982210
H   4.60066897122302     -5.51237575717576      0.00039007446835
H   -2.47331820069565      6.74068209160650      0.00047297644710
H   -0.00000978838621     -6.73852780445195      0.00458867820736
H   -5.83530143450167      3.36927132229595      0.00410314985360
H   2.47330840367253     -6.74068500242887      0.00027980126949
H   -4.60067436136587      5.51237839860371      0.00002010017831
H   -5.83527902699321     -3.36928859177951     -0.00451481925734
H   -2.47329986759855     -6.74067870613986     -0.00016951527498
H   -7.07385728692578      1.22822084484047     -0.00046143985387
H   -4.60067330624313     -5.51236229778631      0.00021776644566
H   -7.07385645456741     -1.22822025997701     -0.00017736581114

    units angstrom      # Angstroms are the default
    no_reorient         # Geometry fixed, default
    symmetry c1         # C1 symmetry, default
}

set {
    scf_type DF         # Density fitting, faster than exact integrals
    freeze_core True    # Freeze core electrons
    basis jun-cc-pVDZ   # Jun-cc-pVDZ basis set, recommended for sSAPT0 in https://doi.org/10.1063/1.4867135
}

energy('ssapt0')        # Compute sSAPT0 energy, includes also SAPT0
--------------------------------------------------------------------------

  //              Dimer HF             //
    Molecular point group: c1
  Charge       = -1
  Multiplicity = 1
  Basis Set: JUN-CC-PVDZ
    Blend: JUN-CC-PVDZ
  Basis Set: (JUN-CC-PVDZ AUX)
    Blend: JUN-CC-PVDZ-JKFIT
  @DF-RHF Final Energy: -2478.65819797238828
    Total Energy =                      -2478.6581979723887343
 Dipole X            :         -0.0005161            0.0000481           -0.0004680
 Dipole Y            :          0.0010613           -0.0001453            0.0009160
 Dipole Z            :        -32.8455742           44.1385569           11.2929828
 Magnitude           :                                                   11.2929828
  //            Monomer A HF           //
    Molecular point group: c1
  Multiplicity = 1
  Basis Set: JUN-CC-PVDZ
    Blend: JUN-CC-PVDZ
  Basis Set: (JUN-CC-PVDZ AUX)
    Blend: JUN-CC-PVDZ-JKFIT
  @DF-RHF Final Energy:  -422.77148968744723
    Total Energy =                       -422.7714896874472288
  //            Monomer B HF           //
    Molecular point group: c1

    Geometry (in Angstrom), charge = 0, multiplicity = 1:

       Center              X                  Y                   Z               Mass
    ------------   -----------------  -----------------  -----------------  -----------------
      Gh(B)          -0.000198161052     0.000273808717    -6.368222180093    11.009305360000
      Gh(F)          -0.000000401852    -0.000000464183    -4.955437180093    18.998403162730
      Gh(F)           1.147859598148     0.675780735817    -6.839363180093    18.998403162730
      Gh(F)           0.011917658148    -1.332011464183    -6.839161180093    18.998403162730
      Gh(F)          -1.159666401852     0.656073035817    -6.839082180093    18.998403162730
         C            1.225311973413     0.707538196736     0.837881447191    12.000000000000
         C            1.225323934041    -0.707538986754     0.825550637620    12.000000000000
         C           -0.000006075942     1.414965821907     0.825017014100    12.000000000000
         C            2.456448831939     1.418327794995     0.840768304591    12.000000000000
         C            0.000010905269    -1.414976590818     0.835216571424    12.000000000000
         C           -1.225300870919     0.707545281801     0.840132967513    12.000000000000
         C            2.456437833310    -1.418323396064     0.823305480764    12.000000000000
         C           -0.000001254988     2.836800939098     0.822613463966    12.000000000000
         C            3.681826775460     0.709317863818     0.823654270561    12.000000000000
         C            2.455120126855     2.834223569306     0.823551713601    12.000000000000
         C            3.681821183209    -0.709333931612     0.839726754580    12.000000000000
         C           -1.225313520698    -0.707527607727     0.826623399047    12.000000000000
         C            1.226699659192     3.543469391811     0.839910786511    12.000000000000
         C            0.000004862847    -2.836782231419     0.840064739046    12.000000000000
         C           -2.456435954859     1.418316826102     0.840168363359    12.000000000000
         C            2.455123495769    -2.834230120772     0.839574846212    12.000000000000
         C           -1.226714286599     3.543468971567     0.840014119730    12.000000000000
         C            4.914517373191     1.427172780306     0.830134953591    12.000000000000
         C            3.693150269466     3.542795200362     0.830184753227    12.000000000000
         C           -2.456437522078    -1.418313373022     0.823280442639    12.000000000000
         C            1.226704919933    -3.543474334090     0.823940655761    12.000000000000
         C           -2.455125320518     2.834216570451     0.823558089947    12.000000000000
         C            4.914524458772    -1.427187002127     0.833107696326    12.000000000000
         C            1.221424691688     4.970133973077     0.833246130585    12.000000000000
         C            4.893008307311     2.825187907843     0.831351621950    12.000000000000
         C           -1.226696930499    -3.543471089260     0.824207860170    12.000000000000
         C           -3.681818898536     0.709324874549     0.823666951041    12.000000000000
         C            3.693147179140    -3.542801433574     0.833225586886    12.000000000000
         C           -1.221432174004     4.970128205680     0.833429625958    12.000000000000
         C            6.134771050916     0.680547854922     0.830904728141    12.000000000000
         C            3.656788958600     4.972953151384     0.831093391010    12.000000000000
         C           -2.455126829744    -2.834215185244     0.839330488414    12.000000000000
         C           -3.681819101071    -0.709325795652     0.839844376159    12.000000000000
         C            4.893012695903    -2.825200197815     0.831962773845    12.000000000000
         C           -0.000000995123     5.650447273849     0.832198317251    12.000000000000
         C            6.134775190322    -0.680554946258     0.832170048656    12.000000000000
         C            2.478131560845     5.653576659148     0.832382170660    12.000000000000
         C            1.221422482727    -4.970127147116     0.830446633563    12.000000000000
         C           -3.693162305975     3.542796862009     0.830350260687    12.000000000000
         C           -1.221428442955    -4.970118395779     0.830333871730    12.000000000000
         C           -4.914521729952     1.427175354812     0.830211898598    12.000000000000
         C            3.656787097669    -4.972955318422     0.832543891544    12.000000000000
         C           -2.478138452116     5.653574330345     0.832666695668    12.000000000000
         C           -3.693141660574    -3.542790311162     0.833109460731    12.000000000000
         C           -4.914512405063    -1.427181092211     0.833142393499    12.000000000000
         C           -0.000005930936    -5.650438379197     0.831802813130    12.000000000000
         C           -4.893020406111     2.825188506736     0.831341540090    12.000000000000
         C            2.478126071288    -5.653573636072     0.831453290752    12.000000000000
         C           -3.656798632268     4.972956089858     0.831270071384    12.000000000000
         C           -4.892999400866    -2.825191859243     0.831808738147    12.000000000000
         C           -2.478128420093    -5.653566262190     0.831178103104    12.000000000000
         C           -6.134770425341     0.680548674073     0.830879176438    12.000000000000
         C           -3.656788755199    -4.972944115154     0.832329603727    12.000000000000
         C           -6.134764964923    -0.680554007665     0.832149572862    12.000000000000
         H            5.835288573806     3.369275802771     0.835710947612     1.007825032230
         H            7.073859250737     1.228217156716     0.831366371534     1.007825032230
         H            4.600663342164     5.512380710270     0.831598591762     1.007825032230
         H            5.835283465295    -3.369306148912     0.827508306531     1.007825032230
         H           -0.000012073316     6.738530581953     0.827849072243     1.007825032230
         H            7.073861249820    -1.228227034927     0.831661310562     1.007825032230
         H            2.473313809789     6.740684199211     0.831915449729     1.007825032230
         H            4.600668569371    -5.512376221359     0.832133894375     1.007825032230
         H           -2.473318602548     6.740681627423     0.832216796354     1.007825032230
         H           -0.000010190238    -6.738528268635     0.836332498114     1.007825032230
         H           -5.835301836354     3.369270858113     0.835846969761     1.007825032230
         H            2.473308001821    -6.740685466612     0.832023621177     1.007825032230
         H           -4.600674763218     5.512377934420     0.831763920085     1.007825032230
         H           -5.835279428845    -3.369289055963     0.827229000650     1.007825032230
         H           -2.473300269450    -6.740679170323     0.831574304632     1.007825032230
         H           -7.073857688778     1.228220380657     0.831282380053     1.007825032230
         H           -4.600673708095    -5.512362761970     0.831961586353     1.007825032230
         H           -7.073856856419    -1.228220724160     0.831566454096     1.007825032230

  Charge       = 0
  Multiplicity = 1
  Basis Set: JUN-CC-PVDZ
    Blend: JUN-CC-PVDZ
  Basis Set: (JUN-CC-PVDZ AUX)
    Blend: JUN-CC-PVDZ-JKFIT

    Orbital Energies [Eh]
    ---------------------

    Doubly Occupied:

       1A    -11.260667     2A    -11.260224     3A    -11.260222
       4A    -11.259512     5A    -11.259511     6A    -11.259342
       7A    -11.259133     8A    -11.259056     9A    -11.259054
      10A    -11.258732    11A    -11.258728    12A    -11.258660
      13A    -11.258598    14A    -11.258593    15A    -11.258590
      16A    -11.258561    17A    -11.258555    18A    -11.258539
      19A    -11.258525    20A    -11.258520    21A    -11.258515
      22A    -11.258415    23A    -11.258412    24A    -11.258112
      25A    -11.257454    26A    -11.257392    27A    -11.257391
      28A    -11.257256    29A    -11.257256    30A    -11.257171
      31A    -11.256549    32A    -11.256478    33A    -11.256477
      34A    -11.256368    35A    -11.256368    36A    -11.256320
      37A    -11.252397    38A    -11.252397    39A    -11.252395
      40A    -11.252394    41A    -11.252392    42A    -11.252390
      43A    -11.251531    44A    -11.251528    45A    -11.251527
      46A    -11.251521    47A    -11.251521    48A    -11.251516
      49A    -11.250959    50A    -11.250958    51A    -11.250957
      52A    -11.250954    53A    -11.250953    54A    -11.250952
      55A     -1.244286    56A     -1.220008    57A     -1.220008
      58A     -1.189718    59A     -1.189710    60A     -1.181158
      61A     -1.157719    62A     -1.149151    63A     -1.135697
      64A     -1.135690    65A     -1.113353    66A     -1.113348
      67A     -1.082622    68A     -1.082615    69A     -1.078805
      70A     -1.066136    71A     -1.066132    72A     -1.039575
      73A     -1.024483    74A     -1.021984    75A     -1.021941
      76A     -1.017885    77A     -1.012947    78A     -0.987215
      79A     -0.987169    80A     -0.962045    81A     -0.961995
      82A     -0.894464    83A     -0.894437    84A     -0.888156
      85A     -0.886403    86A     -0.886345    87A     -0.881595
      88A     -0.881547    89A     -0.862070    90A     -0.837550
      91A     -0.818387    92A     -0.816824    93A     -0.812333
      94A     -0.812324    95A     -0.794851    96A     -0.794840
      97A     -0.746833    98A     -0.745058    99A     -0.733624
     100A     -0.733615   101A     -0.732349   102A     -0.732326
     103A     -0.716693   104A     -0.699146   105A     -0.699135
     106A     -0.693771   107A     -0.693755   108A     -0.661397
     109A     -0.653323   110A     -0.651371   111A     -0.650413
     112A     -0.650407   113A     -0.639526   114A     -0.639524
     115A     -0.629908   116A     -0.627719   117A     -0.627703
     118A     -0.606462   119A     -0.605933   120A     -0.601860
     121A     -0.599915   122A     -0.599884   123A     -0.593820
     124A     -0.591445   125A     -0.591434   126A     -0.585418
     127A     -0.576414   128A     -0.576408   129A     -0.567476
     130A     -0.567461   131A     -0.566157   132A     -0.566138
     133A     -0.558933   134A     -0.555018   135A     -0.555012
     136A     -0.538756   137A     -0.538754   138A     -0.538285
     139A     -0.538279   140A     -0.529892   141A     -0.528217
     142A     -0.523046   143A     -0.523040   144A     -0.500666
     145A     -0.495717   146A     -0.493404   147A     -0.487945
     148A     -0.485262   149A     -0.481942   150A     -0.481934
     151A     -0.470433   152A     -0.470415   153A     -0.451243
     154A     -0.451165   155A     -0.439187   156A     -0.439177
     157A     -0.404865   158A     -0.404842   159A     -0.403491
     160A     -0.375541   161A     -0.375538   162A     -0.349245
     163A     -0.337709   164A     -0.336679   165A     -0.336622
     166A     -0.311222   167A     -0.298209   168A     -0.284476
     169A     -0.284422   170A     -0.225046   171A     -0.224980

  @DF-RHF Final Energy: -2055.89170332973299

   => Energetics <=

    Nuclear Repulsion Energy =           6452.5568002797772351
    One-Electron Energy =              -15636.4280711566334503
    Two-Electron Energy =                7127.9795675471232244
    Total Energy =                      -2055.8917033297329908
 Dipole X            :          0.0000520            0.0000419            0.0000939
 Dipole Y            :          0.0000294           -0.0000426           -0.0000132
 Dipole Z            :       -537.5415705          537.5432220            0.0016515
 Magnitude           :                                                    0.0016542

    SAPT Results
  --------------------------------------------------------------------------------------------------------
    Electrostatics                  7.19137893 [mEh]       4.51265841 [kcal/mol]      18.88096279 [kJ/mol]
      Elst10,r                      7.19137893 [mEh]       4.51265841 [kcal/mol]      18.88096279 [kJ/mol]

    Exchange                       -0.00026771 [mEh]      -0.00016799 [kcal/mol]      -0.00070288 [kJ/mol]
      Exch10                       -0.00026771 [mEh]      -0.00016799 [kcal/mol]      -0.00070288 [kJ/mol]
      Exch10(S^2)                  -0.00026771 [mEh]      -0.00016799 [kcal/mol]      -0.00070288 [kJ/mol]

    Induction                      -2.19606643 [mEh]      -1.37805249 [kcal/mol]      -5.76577161 [kJ/mol]
      Ind20,r                      -2.21160405 [mEh]      -1.38780250 [kcal/mol]      -5.80656564 [kJ/mol]
      Exch-Ind20,r                  0.00044607 [mEh]       0.00027991 [kcal/mol]       0.00117115 [kJ/mol]
      delta HF,r (2)                0.01509156 [mEh]       0.00947010 [kcal/mol]       0.03962288 [kJ/mol]

    Dispersion                     -0.37147686 [mEh]      -0.23310525 [kcal/mol]      -0.97531236 [kJ/mol]
      Disp20                       -0.37166580 [mEh]      -0.23322381 [kcal/mol]      -0.97580843 [kJ/mol]
      Exch-Disp20                   0.00018895 [mEh]       0.00011857 [kcal/mol]       0.00049608 [kJ/mol]
      Disp20 (SS)                  -0.18583290 [mEh]      -0.11661191 [kcal/mol]      -0.48790422 [kJ/mol]
      Disp20 (OS)                  -0.18583290 [mEh]      -0.11661191 [kcal/mol]      -0.48790422 [kJ/mol]
      Exch-Disp20 (SS)              0.00014775 [mEh]       0.00009272 [kcal/mol]       0.00038793 [kJ/mol]
      Exch-Disp20 (OS)              0.00004119 [mEh]       0.00002585 [kcal/mol]       0.00010815 [kJ/mol]

  Total HF                          4.99504479 [mEh]       3.13443793 [kcal/mol]      13.11448829 [kJ/mol]
  Total SAPT0                       4.62356793 [mEh]       2.90133268 [kcal/mol]      12.13917594 [kJ/mol]

  Special recipe for scaled SAPT0 (see Manual):
    Electrostatics sSAPT0           7.19137893 [mEh]       4.51265841 [kcal/mol]      18.88096279 [kJ/mol]
    Exchange sSAPT0                -0.00026771 [mEh]      -0.00016799 [kcal/mol]      -0.00070288 [kJ/mol]
    Induction sSAPT0               -2.19606643 [mEh]      -1.37805249 [kcal/mol]      -5.76577161 [kJ/mol]
    Dispersion sSAPT0              -0.37147686 [mEh]      -0.23310525 [kcal/mol]      -0.97531236 [kJ/mol]
  Total sSAPT0                      4.62356793 [mEh]       2.90133268 [kcal/mol]      12.13917594 [kJ/mol]
  --------------------------------------------------------------------------------------------------------

*** Psi4 exiting successfully. Buy a developer a beer!
