                               Psi4 1.9 release

  ==> Input File <==

--------------------------------------------------------------------------
memory 64 GB # how much memory is available ! Depends on the nodes/cores !

molecule dimer {
# monomer A
+1 1    # Charge and multiplicity
C  0.680067 -0.008042 -7.015929
C -0.680504 -0.006014 -7.015545
N -1.085635 -0.005016 -5.697221
C  0.000108 -0.001740 -4.915820
C -2.477365  0.044390 -5.229242
N  1.085222 -0.005016 -5.697221
H  1.385146 -0.015870 -7.833368
H -1.385302 -0.006204 -7.833214
H -0.000009  0.000007 -3.834731
C  2.478117 -0.021908 -5.232123
H  2.490592  0.005437 -4.141870
H  2.967028 -0.935354 -5.579299
H  3.001428  0.853575 -5.623595
H -2.857359  1.066461 -5.309201
H -3.082679 -0.625694 -5.842306
H -2.518128 -0.282594 -4.189294
--
# monomer B
0 1     # Charge and multiplicity
C   -3.66844126402057      7.80375217008252      0.00190004133558
C   -4.84759871934653      7.13124183134024     -0.00046653359696
C   -4.89495929917518      5.69633040353158     -0.00103944469517
C   -3.65374067877320      4.98073034095895      0.00662099703436
C   -2.40942512149445      7.11398103667468      0.00209438359570
C   -2.42547734410473      5.68112195090346     -0.00491050527438
C   -1.19474401643570      7.78614419430947      0.00356656413763
C   0.03795902893699      7.09942164575698      0.00139585983271
C   0.03033258741920      5.66948955970466     -0.00408752508301
C   -1.20098450790502      4.96927034791531      0.00488220885047
C   1.27795782581485      7.77285944319479      0.00277170839332
C   2.48535808472416      7.08769688523756      0.00049722048857
C   2.48612868491717      5.65477081024076     -0.00644052849921
C   1.25408291964399      4.95607811366431      0.00518741308898
C   3.75171459140595      7.76391215098033      0.00062407186893
C   4.92356605618520      7.07878077698995     -0.00143240883900
C   4.95560727132542      5.64344746336949     -0.00159282164606
C   3.70680153420475      4.94121020833308      0.00349873852374
H   -3.65852113775815      8.89082741913536      0.00358502958574
H   -1.18921332975660      8.87412108735996      0.00753844057883
H   1.28429423888630      8.86083343548850      0.00693053253426
H   3.75354208679975      8.85103527897216      0.00214659618464
H   5.86995870320703      7.61379483465560     -0.00235777588134
H   -5.78823170750226      7.67630221293400     -0.00202638095293
C   -6.09197395869619      4.99326001364347     -0.00291168518608
C   -6.12866148031747      3.58258016879823     -0.00171050815740
C   -3.66457974004527      3.56418217974434     -0.00463560277484
C   -4.89429820469869      2.86108077590057      0.00453338221034
C   -2.43733499489796      2.84761165708481      0.00719617576166
C   -1.20922785759670      3.54788693497833     -0.00648285103018
C   1.24714157216223      3.53468075142962     -0.00729145743546
C   0.01517603956900      2.83311183930540      0.00439272578912
C   2.46764517244071      2.82128997725533      0.00449278391269
C   3.70254947457969      3.52466015442405     -0.00899517692985
C   6.14498038638375      4.92757236613191     -0.00282626685777
C   6.16658835886151      3.51658447594213     -0.00065971342101
C   4.92460995845939      2.80840792535402      0.00587903281610
H   7.08990550964105      5.46688776622306     -0.00658814770723
H   -7.03104175110130      5.54268795285765     -0.00714490013730
C   -7.33969804112295      2.85841153457957     -0.00333767559888
C   -7.36488195805880      1.47032337158330     -0.00157213747140
C   -4.90350460894690      1.44442681216000     -0.00628840166334
C   -6.13225715261081      0.73993935705394      0.00600164231964
C   -3.67687480051673      0.72669714267312      0.00433931473643
C   -2.44565658606518      1.42964113326212     -0.00597039546461
C   -1.22360068130162      0.71532450163492      0.00545886906656
C   0.00763786931376      1.41738314923765      0.00392452278437
C   1.23121980774686      0.70211669058719     -0.01490206287210
C   2.46082110053113      1.40329203612573      0.00460244601878
C   3.68443025419614      0.68719842821222      0.00377365974158
C   4.91870890153864      1.39173456118907     -0.00862816189375
C   7.36980207796101      2.77948220318441     -0.00242013321349
C   7.38016266612146      1.39121750785509     -0.00087345036788
C   6.13979953912259      0.67411862320065      0.00545489144369
H   -8.27919079934664      3.40711804112415     -0.00763522772059
H   8.31511347147953      3.31811809662368     -0.00663070901292
C   -8.59175593758115      0.72483255304480     -0.00123170985383
C   -8.59902460370342     -0.63263980622873      0.00089141472904
C   -6.13981313911873     -0.67413663715361     -0.00609792660607
C   -7.38018411213749     -1.39126618958160      0.00131813493501
C   -4.91868448025621     -1.39175501803000      0.00624257154343
C   -3.68443829568458     -0.68723731573599     -0.00478966852105
C   -2.46081704024768     -1.40334517882457      0.00575341766833
C   -1.23116201232071     -0.70217386488055     -0.00636696112346
C   -0.00756962538737     -1.41741884941102      0.00108956317991
C   1.22364771588843     -0.71527537726392      0.01109518512883
C   2.44567064933149     -1.42964328900682     -0.00065482763106
C   3.67686670284649     -0.72670743155550     -0.00479541202602
C   6.13224884641929     -0.73997883984993     -0.00632338623858
C   4.90351914550401     -1.44445752054090      0.00751768830159
C   8.59901484869081      0.63260386666793     -0.00101133422380
C   8.59174548810050     -0.72485086719319      0.00072504603735
C   7.36486276438985     -1.47033266560598      0.00049486934466
H   -9.52830597181814      1.27684744919284     -0.00270163681798
H   9.54141097460619      1.17457248844457     -0.00206336648518
C   -7.36983790976868     -2.77954514593389      0.00312634335708
C   -4.92459910905015     -2.80843725734101     -0.00460528907921
C   -6.16662249566744     -3.51665219282533      0.00169655107992
C   -3.70251035970491     -3.52468154912026      0.00571878010666
C   -2.46764698511392     -2.82132596280400     -0.00632585824990
C   -0.01513347410770     -2.83314164539971     -0.00604426974092
C   -1.24712184122656     -3.53473217556300      0.00551968366725
C   1.20924506964357     -3.54791467864352      0.00805871345849
C   2.43733602215464     -2.84764173817541     -0.00608104485234
C   4.89430234377080     -2.86112296828604     -0.00526030478103
C   3.66461525504104     -3.56421984553201      0.00761911515957
C   6.12863901474565     -3.58258405771778      0.00096495711699
C   7.33967266469532     -2.85841330737039      0.00248018319869
H   -9.54144911125902     -1.17456346666430      0.00226083090216
H   9.52826186807155     -1.27691907390448      0.00197485379837
H   -8.31516504384864     -3.31814985321231      0.00729857188773
H   8.27915514249207     -3.40714078989363      0.00681973918158
C   -6.14499418870218     -4.92764727278338      0.00302254913999
C   -3.70678334799751     -4.94126171411716     -0.00679841894792
C   -4.95559005800169     -5.64349397349412      0.00116871569699
C   -2.48612132622665     -5.65478557440947      0.00614125209662
C   -1.25405833548005     -4.95612205000132     -0.00503435388927
C   1.20101257386816     -4.96928038819302     -0.00385322963129
C   -0.03033667441341     -5.66952030313900      0.00398997003238
C   3.65375010132847     -4.98074377541453     -0.00309522988330
C   2.42549269587528     -5.68117463552727      0.00628170066869
C   6.09196561781097     -4.99325796338655      0.00325918379042
C   4.89497644461045     -5.69634842095790      0.00202298796027
H   -7.08989238804069     -5.46699984223871      0.00742531082125
H   7.03105520920009     -5.54265853633254      0.00683896355417
C   -4.92354532219813     -7.07882109967734      0.00061394679214
C   -2.48534208823777     -7.08772807792913     -0.00189594564379
C   -3.75168589177895     -7.76394715763627     -0.00170126671874
C   -0.03794895698805     -7.09946487446944     -0.00168022049625
C   -1.27795610040136     -7.77290438466689     -0.00366491325785
C   2.40944432072629     -7.11402201200282     -0.00081701968533
C   1.19474993715296     -7.78618536556242     -0.00296931056689
C   4.84762105249800     -7.13126211057943      0.00168979497423
C   3.66847160587561     -7.80378799294376     -0.00065863938960
H   -5.86994035041618     -7.61383059804164      0.00215798365757
H   5.78824962538815     -7.67633218931421      0.00281691445618
H   -3.75352693944918     -8.85107156923607     -0.00353718114765
H   -1.28430440589466     -8.86087539249706     -0.00809229711623
H   1.18922157469537     -8.87416062058945     -0.00706194725726
H   3.65854661482387     -8.89086063405326     -0.00231318081200

    units angstrom      # Angstroms are the default
    no_reorient         # Geometry fixed, default
    symmetry c1         # C1 symmetry, default
}

set {
    scf_type DF         # Density fitting, faster than exact integrals
    freeze_core True    # Freeze core electrons
    basis jun-cc-pVDZ   # Jun-cc-pVDZ basis set, recommended for sSAPT0 in https://doi.org/10.1063/1.4867135
}

energy('ssapt0')        # Compute sSAPT0 energy, includes also SAPT0
--------------------------------------------------------------------------

  //              Dimer HF             //
    Molecular point group: c1
  Charge       = 1
  Multiplicity = 1
  Basis Set: JUN-CC-PVDZ
    Blend: JUN-CC-PVDZ
  Basis Set: (JUN-CC-PVDZ AUX)
    Blend: JUN-CC-PVDZ-JKFIT
  @DF-RHF Final Energy: -3953.65373618765261
    Total Energy =                      -3953.6537361876544310
 Dipole X            :         -0.0026073            0.0004804           -0.0021269
 Dipole Y            :         -0.0502551            0.0561130            0.0058579
 Dipole Z            :         25.0193937          -33.3383771           -8.3189835
 Magnitude           :                                                    8.3189858
  //            Monomer A HF           //
    Molecular point group: c1
  Multiplicity = 1
  Basis Set: JUN-CC-PVDZ
    Blend: JUN-CC-PVDZ
  Basis Set: (JUN-CC-PVDZ AUX)
    Blend: JUN-CC-PVDZ-JKFIT
  @DF-RHF Final Energy:  -303.29752503963215
    Total Energy =                       -303.2975250396321485
  //            Monomer B HF           //
    Molecular point group: c1

    Geometry (in Angstrom), charge = 0, multiplicity = 1:

       Center              X                  Y                   Z               Mass
    ------------   -----------------  -----------------  -----------------  -----------------
      Gh(C)           0.680062820275    -0.008027535675    -6.573729579397    12.000000000000
      Gh(C)          -0.680508179725    -0.005999535675    -6.573345579397    12.000000000000
      Gh(N)          -1.085639179725    -0.005001535675    -5.255021579397    14.003074004430
      Gh(C)           0.000103820275    -0.001725535675    -4.473620579397    12.000000000000
      Gh(C)          -2.477369179725     0.044404464325    -4.787042579397    12.000000000000
      Gh(N)           1.085217820275    -0.005001535675    -5.255021579397    14.003074004430
      Gh(H)           1.385141820275    -0.015855535675    -7.391168579397     1.007825032230
      Gh(H)          -1.385306179725    -0.006189535675    -7.391014579397     1.007825032230
      Gh(H)          -0.000013179725     0.000021464325    -3.392531579397     1.007825032230
      Gh(C)           2.478112820275    -0.021893535675    -4.789923579397    12.000000000000
      Gh(H)           2.490587820275     0.005451464325    -3.699670579397     1.007825032230
      Gh(H)           2.967023820275    -0.935339535675    -5.137099579397     1.007825032230
      Gh(H)           3.001423820275     0.853589464325    -5.181395579397     1.007825032230
      Gh(H)          -2.857363179725     1.066475464325    -4.867001579397     1.007825032230
      Gh(H)          -3.082683179725    -0.625679535675    -5.400106579397     1.007825032230
      Gh(H)          -2.518132179725    -0.282579535675    -3.747094579397     1.007825032230
         C           -3.668445443746     7.803766634408     0.444099461938    12.000000000000
         C           -4.847602899072     7.131256295665     0.441732887006    12.000000000000
         C           -4.894963478901     5.696344867857     0.441159975908    12.000000000000
         C           -3.653744858499     4.980744805284     0.448820417637    12.000000000000
         C           -2.409429301220     7.113995501000     0.444293804199    12.000000000000
         C           -2.425481523830     5.681136415228     0.437288915329    12.000000000000
         C           -1.194748196161     7.786158658634     0.445765984741    12.000000000000
         C            0.037954849212     7.099436110082     0.443595280436    12.000000000000
         C            0.030328407694     5.669504024030     0.438111895520    12.000000000000
         C           -1.200988687630     4.969284812240     0.447081629453    12.000000000000
         C            1.277953646089     7.772873907520     0.444971128996    12.000000000000
         C            2.485353904999     7.087711349563     0.442696641091    12.000000000000
         C            2.486124505192     5.654785274566     0.435758892104    12.000000000000
         C            1.254078739919     4.956092577989     0.447386833692    12.000000000000
         C            3.751710411681     7.763926615305     0.442823492472    12.000000000000
         C            4.923561876460     7.078795241315     0.440767011764    12.000000000000
         C            4.955603091600     5.643461927694     0.440606598957    12.000000000000
         C            3.706797354479     4.941224672658     0.445698159127    12.000000000000
         H           -3.658525317484     8.890841883460     0.445784450189     1.007825032230
         H           -1.189217509482     8.874135551685     0.449737861182     1.007825032230
         H            1.284290059161     8.860847899813     0.449129953137     1.007825032230
         H            3.753537907074     8.851049743297     0.444346016788     1.007825032230
         H            5.869954523482     7.613809298981     0.439841644722     1.007825032230
         H           -5.788235887228     7.676316677259     0.440173039650     1.007825032230
         C           -6.091978138422     4.993274477968     0.439287735417    12.000000000000
         C           -6.128665660043     3.582594633123     0.440488912445    12.000000000000
         C           -3.664583919771     3.564196644069     0.437563817828    12.000000000000
         C           -4.894302384424     2.861095240226     0.446732802813    12.000000000000
         C           -2.437339174623     2.847626121410     0.449395596365    12.000000000000
         C           -1.209232037322     3.547901399303     0.435716569573    12.000000000000
         C            1.247137392437     3.534695215755     0.434907963167    12.000000000000
         C            0.015171859844     2.833126303630     0.446592146392    12.000000000000
         C            2.467640992715     2.821304441580     0.446692204516    12.000000000000
         C            3.702545294854     3.524674618749     0.433204243673    12.000000000000
         C            6.144976206658     4.927586830457     0.439373153745    12.000000000000
         C            6.166584179136     3.516598940267     0.441539707182    12.000000000000
         C            4.924605778734     2.808422389679     0.448078453419    12.000000000000
         H            7.089901329916     5.466902230548     0.435611272896     1.007825032230
         H           -7.031045930827     5.542702417183     0.435054520466     1.007825032230
         C           -7.339702220848     2.858425998905     0.438861745004    12.000000000000
         C           -7.364886137784     1.470337835908     0.440627283131    12.000000000000
         C           -4.903508788672     1.444441276485     0.435911018940    12.000000000000
         C           -6.132261332336     0.739953821379     0.448201062923    12.000000000000
         C           -3.676878980242     0.726711606998     0.446538735339    12.000000000000
         C           -2.445660765791     1.429655597587     0.436229025138    12.000000000000
         C           -1.223604861027     0.715338965960     0.447658289669    12.000000000000
         C            0.007633689588     1.417397613563     0.446123943387    12.000000000000
         C            1.231215628021     0.702131154912     0.427297357731    12.000000000000
         C            2.460816920806     1.403306500451     0.446801866622    12.000000000000
         C            3.684426074471     0.687212892537     0.445973080344    12.000000000000
         C            4.918704721813     1.391749025514     0.433571258709    12.000000000000
         C            7.369797898236     2.779496667509     0.439779287389    12.000000000000
         C            7.380158486396     1.391231972180     0.441325970235    12.000000000000
         C            6.139795359397     0.674133087526     0.447654312047    12.000000000000
         H           -8.279194979072     3.407132505449     0.434564192882     1.007825032230
         H            8.315109291754     3.318132560949     0.435568711590     1.007825032230
         C           -8.591760117307     0.724847017370     0.440967710749    12.000000000000
         C           -8.599028783429    -0.632625341904     0.443090835332    12.000000000000
         C           -6.139817318844    -0.674122172829     0.436101493997    12.000000000000
         C           -7.380188291863    -1.391251725257     0.443517555538    12.000000000000
         C           -4.918688659982    -1.391740553705     0.448441992146    12.000000000000
         C           -3.684442475410    -0.687222851411     0.437409752082    12.000000000000
         C           -2.460821219973    -1.403330714500     0.447952838271    12.000000000000
         C           -1.231166192046    -0.702159400556     0.435832459479    12.000000000000
         C           -0.007573805113    -1.417404385086     0.443288983783    12.000000000000
         C            1.223643536163    -0.715260912939     0.453294605732    12.000000000000
         C            2.445666469606    -1.429628824682     0.441544592972    12.000000000000
         C            3.676862523121    -0.726692967231     0.437404008577    12.000000000000
         C            6.132244666694    -0.739964375525     0.435876034364    12.000000000000
         C            4.903514965779    -1.444443056216     0.449717108904    12.000000000000
         C            8.599010668965     0.632618330993     0.441188086379    12.000000000000
         C            8.591741308375    -0.724836402868     0.442924466640    12.000000000000
         C            7.364858584664    -1.470318201281     0.442694289948    12.000000000000
         H           -9.528310151544     1.276861913518     0.439497783785     1.007825032230
         H            9.541406794881     1.174586952770     0.440136054118     1.007825032230
         C           -7.369842089494    -2.779530681609     0.445325763960    12.000000000000
         C           -4.924603288776    -2.808422793016     0.437594131524    12.000000000000
         C           -6.166626675393    -3.516637728500     0.443895971683    12.000000000000
         C           -3.702514539430    -3.524667084795     0.447918200710    12.000000000000
         C           -2.467651164839    -2.821311498479     0.435873562353    12.000000000000
         C           -0.015137653833    -2.833127181075     0.436155150862    12.000000000000
         C           -1.247126020952    -3.534717711238     0.447719104270    12.000000000000
         C            1.209240889918    -3.547900214319     0.450258134061    12.000000000000
         C            2.437331842429    -2.847627273850     0.436118375751    12.000000000000
         C            4.894298164045    -2.861108503961     0.436939115822    12.000000000000
         C            3.664611075316    -3.564205381207     0.449818535762    12.000000000000
         C            6.128634835020    -3.582569593393     0.443164377720    12.000000000000
         C            7.339668484970    -2.858398843045     0.444679603802    12.000000000000
         H           -9.541453290984    -1.174549002339     0.444460251505     1.007825032230
         H            9.528257688346    -1.276904609579     0.444174274401     1.007825032230
         H           -8.315169223574    -3.318135388887     0.449497992491     1.007825032230
         H            8.279150962767    -3.407126325569     0.449019159784     1.007825032230
         C           -6.144998368428    -4.927632808458     0.445221969743    12.000000000000
         C           -3.706787527723    -4.941247249792     0.435401001655    12.000000000000
         C           -4.955594237727    -5.643479509169     0.443368136300    12.000000000000
         C           -2.486125505952    -5.654771110084     0.448340672700    12.000000000000
         C           -1.254062515205    -4.956107585676     0.437165066714    12.000000000000
         C            1.201008394143    -4.969265923868     0.438346190972    12.000000000000
         C           -0.030340854139    -5.669505838814     0.446189390635    12.000000000000
         C            3.653745921603    -4.980729311090     0.439104190720    12.000000000000
         C            2.425488516150    -5.681160171202     0.448481121272    12.000000000000
         C            6.091961438086    -4.993243499062     0.445458604393    12.000000000000
         C            4.894972264885    -5.696333956633     0.444222408563    12.000000000000
         H           -7.089896567766    -5.466985377914     0.449624731424     1.007825032230
         H            7.031051029475    -5.542644072008     0.449038384157     1.007825032230
         C           -4.923549501924    -7.078806635352     0.442813367395    12.000000000000
         C           -2.485346267963    -7.087713613604     0.440303474959    12.000000000000
         C           -3.751690071504    -7.763932693311     0.440498153884    12.000000000000
         C           -0.037953136713    -7.099450410144     0.440519200107    12.000000000000
         C           -1.277960280127    -7.772889920342     0.438534507345    12.000000000000
         C            2.409440141001    -7.114007547678     0.441382400918    12.000000000000
         C            1.194745757428    -7.786170901237     0.439230110036    12.000000000000
         C            4.847616872773    -7.131247646254     0.443889215577    12.000000000000
         C            3.668467426150    -7.803773528619     0.441540781213    12.000000000000
         H           -5.869944530142    -7.613816133717     0.444357404260     1.007825032230
         H            5.788245445663    -7.676317724989     0.445016335059     1.007825032230
         H           -3.753531119175    -8.851057104911     0.438662239455     1.007825032230
         H           -1.284308585620    -8.860860928172     0.434107123487     1.007825032230
         H            1.189217394970    -8.874146156264     0.435137473346     1.007825032230
         H            3.658542435098    -8.890846169728     0.439886239791     1.007825032230

  Charge       = 0
  Multiplicity = 1
  Basis Set: JUN-CC-PVDZ
    Blend: JUN-CC-PVDZ
  Basis Set: (JUN-CC-PVDZ AUX)
    Blend: JUN-CC-PVDZ-JKFIT

    Orbital Energies [Eh]
    ---------------------

    Doubly Occupied:

       1A    -11.264016     2A    -11.263688     3A    -11.263683
       4A    -11.263325     5A    -11.263319     6A    -11.263287
       7A    -11.263129     8A    -11.263118     9A    -11.263111
      10A    -11.262932    11A    -11.262782    12A    -11.262776
      13A    -11.262295    14A    -11.262291    15A    -11.262233
      16A    -11.262229    17A    -11.262162    18A    -11.262136
      19A    -11.262090    20A    -11.262053    21A    -11.262049
      22A    -11.261914    23A    -11.261908    24A    -11.261779
      25A    -11.261771    26A    -11.261751    27A    -11.261745
      28A    -11.261704    29A    -11.261693    30A    -11.261613
      31A    -11.261589    32A    -11.261584    33A    -11.261559
      34A    -11.261557    35A    -11.261536    36A    -11.261516
      37A    -11.261358    38A    -11.261349    39A    -11.261343
      40A    -11.261339    41A    -11.261329    42A    -11.261322
      43A    -11.261313    44A    -11.261298    45A    -11.261294
      46A    -11.261272    47A    -11.261265    48A    -11.261262
      49A    -11.261098    50A    -11.261068    51A    -11.261061
      52A    -11.260988    53A    -11.260978    54A    -11.260915
      55A    -11.259950    56A    -11.259938    57A    -11.259932
      58A    -11.259906    59A    -11.259901    60A    -11.259886
      61A    -11.259322    62A    -11.259300    63A    -11.259291
      64A    -11.259244    65A    -11.259237    66A    -11.259210
      67A    -11.258953    68A    -11.258936    69A    -11.258932
      70A    -11.258907    71A    -11.258901    72A    -11.258891
      73A    -11.254548    74A    -11.254546    75A    -11.254542
      76A    -11.254538    77A    -11.254537    78A    -11.254528
      79A    -11.253684    80A    -11.253684    81A    -11.253679
      82A    -11.253676    83A    -11.253674    84A    -11.253667
      85A    -11.253600    86A    -11.253599    87A    -11.253594
      88A    -11.253591    89A    -11.253589    90A    -11.253582
      91A    -11.253076    92A    -11.253074    93A    -11.253069
      94A    -11.253066    95A    -11.253065    96A    -11.253056
      97A     -1.254000    98A     -1.239045    99A     -1.239028
     100A     -1.220501   101A     -1.220490   102A     -1.215495
     103A     -1.201071   104A     -1.195636   105A     -1.188191
     106A     -1.188179   107A     -1.173792   108A     -1.173791
     109A     -1.155669   110A     -1.155663   111A     -1.152768
     112A     -1.144750   113A     -1.144747   114A     -1.128602
     115A     -1.114752   116A     -1.113192   117A     -1.112532
     118A     -1.112510   119A     -1.111644   120A     -1.088464
     121A     -1.088448   122A     -1.076989   123A     -1.076988
     124A     -1.067654   125A     -1.067621   126A     -1.065017
     127A     -1.046834   128A     -1.046824   129A     -1.040514
     130A     -1.038763   131A     -1.038760   132A     -1.025280
     133A     -1.021439   134A     -1.021381   135A     -1.007211
     136A     -1.006840   137A     -1.003826   138A     -1.000530
     139A     -1.000476   140A     -0.991101   141A     -0.971026
     142A     -0.970976   143A     -0.955913   144A     -0.955855
     145A     -0.905634   146A     -0.905597   147A     -0.905575
     148A     -0.905532   149A     -0.904384   150A     -0.892408
     151A     -0.892351   152A     -0.890404   153A     -0.890348
     154A     -0.889489   155A     -0.872246   156A     -0.869078
     157A     -0.851568   158A     -0.847901   159A     -0.847886
     160A     -0.845636   161A     -0.843050   162A     -0.834594
     163A     -0.834583   164A     -0.828145   165A     -0.828137
     166A     -0.784582   167A     -0.784572   168A     -0.783698
     169A     -0.783676   170A     -0.782320   171A     -0.782300
     172A     -0.782071   173A     -0.767020   174A     -0.760836
     175A     -0.750614   176A     -0.733511   177A     -0.727106
     178A     -0.727079   179A     -0.725115   180A     -0.724572
     181A     -0.724547   182A     -0.718535   183A     -0.713810
     184A     -0.713804   185A     -0.699608   186A     -0.699588
     187A     -0.686169   188A     -0.685983   189A     -0.685975
     190A     -0.682199   191A     -0.682189   192A     -0.678813
     193A     -0.653656   194A     -0.650903   195A     -0.650871
     196A     -0.649848   197A     -0.649840   198A     -0.649590
     199A     -0.640975   200A     -0.640936   201A     -0.640112
     202A     -0.639183   203A     -0.636057   204A     -0.636027
     205A     -0.629167   206A     -0.617775   207A     -0.615328
     208A     -0.615304   209A     -0.608828   210A     -0.608821
     211A     -0.599146   212A     -0.599122   213A     -0.598775
     214A     -0.598630   215A     -0.598619   216A     -0.598078
     217A     -0.595090   218A     -0.595078   219A     -0.594749
     220A     -0.594272   221A     -0.591986   222A     -0.591983
     223A     -0.587430   224A     -0.577816   225A     -0.577801
     226A     -0.575703   227A     -0.575682   228A     -0.573404
     229A     -0.569602   230A     -0.568182   231A     -0.568156
     232A     -0.566780   233A     -0.566773   234A     -0.560932
     235A     -0.558755   236A     -0.558721   237A     -0.558446
     238A     -0.554394   239A     -0.550584   240A     -0.547492
     241A     -0.544283   242A     -0.535005   243A     -0.534985
     244A     -0.533563   245A     -0.533543   246A     -0.528101
     247A     -0.528084   248A     -0.527828   249A     -0.517200
     250A     -0.517170   251A     -0.515368   252A     -0.515363
     253A     -0.509661   254A     -0.509648   255A     -0.498048
     256A     -0.496481   257A     -0.496444   258A     -0.493811
     259A     -0.493770   260A     -0.489468   261A     -0.481471
     262A     -0.477430   263A     -0.477430   264A     -0.474016
     265A     -0.469465   266A     -0.466548   267A     -0.466546
     268A     -0.458824   269A     -0.446722   270A     -0.446666
     271A     -0.441035   272A     -0.440784   273A     -0.440739
     274A     -0.434699   275A     -0.433921   276A     -0.407381
     277A     -0.407361   278A     -0.386425   279A     -0.386363
     280A     -0.385743   281A     -0.385740   282A     -0.383775
     283A     -0.354336   284A     -0.354315   285A     -0.350676
     286A     -0.338088   287A     -0.335589   288A     -0.335544
     289A     -0.332721   290A     -0.332719   291A     -0.307083
     292A     -0.301948   293A     -0.301888   294A     -0.300855
     295A     -0.286177   296A     -0.256477   297A     -0.253502
     298A     -0.253460   299A     -0.204267   300A     -0.204180

  @DF-RHF Final Energy: -3650.33925861119906

   => Energetics <=

    Nuclear Repulsion Energy =          15611.4211649754306563
    One-Electron Energy =              -36072.1298283376163454
    Two-Electron Energy =               16810.3694047509889060
    Total Energy =                      -3650.3392586111986020
 Dipole X            :         -0.0008395            0.0002112           -0.0006283
 Dipole Y            :          0.0012620           -0.0013774           -0.0001154
 Dipole Z            :       -501.3747632          501.3848706            0.0101073
 Magnitude           :                                                    0.0101275

    SAPT Results
  --------------------------------------------------------------------------------------------------------
    Electrostatics                -10.31264019 [mEh]      -6.47127942 [kcal/mol]     -27.07583309 [kJ/mol]
      Elst10,r                    -10.31264019 [mEh]      -6.47127942 [kcal/mol]     -27.07583309 [kJ/mol]

    Exchange                        0.07791666 [mEh]       0.04889344 [kcal/mol]       0.20457015 [kJ/mol]
      Exch10                        0.07791666 [mEh]       0.04889344 [kcal/mol]       0.20457015 [kJ/mol]
      Exch10(S^2)                   0.07791367 [mEh]       0.04889156 [kcal/mol]       0.20456231 [kJ/mol]

    Induction                      -6.71781329 [mEh]      -4.21549148 [kcal/mol]     -17.63761636 [kJ/mol]
      Ind20,r                      -6.48301621 [mEh]      -4.06815409 [kcal/mol]     -17.02115671 [kJ/mol]
      Exch-Ind20,r                  0.01539491 [mEh]       0.00966045 [kcal/mol]       0.04041933 [kJ/mol]
      delta HF,r (2)               -0.25019199 [mEh]      -0.15699784 [kcal/mol]      -0.65687897 [kJ/mol]

    Dispersion                     -4.77283368 [mEh]      -2.99499835 [kcal/mol]     -12.53107309 [kJ/mol]
      Disp20                       -4.78499031 [mEh]      -3.00262675 [kcal/mol]     -12.56299033 [kJ/mol]
      Exch-Disp20                   0.01215663 [mEh]       0.00762840 [kcal/mol]       0.03191723 [kJ/mol]
      Disp20 (SS)                  -2.39249515 [mEh]      -1.50131338 [kcal/mol]      -6.28149516 [kJ/mol]
      Disp20 (OS)                  -2.39249515 [mEh]      -1.50131338 [kcal/mol]      -6.28149516 [kJ/mol]
      Exch-Disp20 (SS)              0.00836898 [mEh]       0.00525161 [kcal/mol]       0.02197275 [kJ/mol]
      Exch-Disp20 (OS)              0.00378765 [mEh]       0.00237679 [kcal/mol]       0.00994448 [kJ/mol]

  Total HF                        -16.95253682 [mEh]     -10.63787746 [kcal/mol]     -44.50887929 [kJ/mol]
  Total SAPT0                     -21.72537050 [mEh]     -13.63287581 [kcal/mol]     -57.03995238 [kJ/mol]

  Special recipe for scaled SAPT0 (see Manual):
    Electrostatics sSAPT0         -10.31264019 [mEh]      -6.47127942 [kcal/mol]     -27.07583309 [kJ/mol]
    Exchange sSAPT0                 0.07791666 [mEh]       0.04889344 [kcal/mol]       0.20457015 [kJ/mol]
    Induction sSAPT0               -6.71781152 [mEh]      -4.21549037 [kcal/mol]     -17.63761171 [kJ/mol]
    Dispersion sSAPT0              -4.77283228 [mEh]      -2.99499747 [kcal/mol]     -12.53106942 [kJ/mol]
  Total sSAPT0                    -21.72536733 [mEh]     -13.63287382 [kcal/mol]     -57.03994406 [kJ/mol]
  --------------------------------------------------------------------------------------------------------

*** Psi4 exiting successfully. Buy a developer a beer!
