                               Psi4 1.9 release

  ==> Input File <==

--------------------------------------------------------------------------
memory 32 GB # how much memory is available ! Depends on the nodes/cores !

molecule dimer {
# monomer A
+1 1    # Charge and multiplicity
C  0.680067 -0.008042 -5.415929
C -0.680504 -0.006014 -5.415545
N -1.085635 -0.005016 -4.097221
C  0.000108 -0.001740 -3.315820
C -2.477365  0.044390 -3.629242
N  1.085222 -0.005016 -4.097221
H  1.385146 -0.015870 -6.233368
H -1.385302 -0.006204 -6.233214
H -0.000009  0.000007 -2.234731
C  2.478117 -0.021908 -3.632123
H  2.490592  0.005437 -2.541870
H  2.967028 -0.935354 -3.979299
H  3.001428  0.853575 -4.023595
H -2.857359  1.066461 -3.709201
H -3.082679 -0.625694 -4.242306
H -2.518128 -0.282594 -2.589294
--
# monomer B
0 1     # Charge and multiplicity
C   1.22531237526482      0.70753866091955      0.00613762728373
C   1.22532433589282     -0.70753852257020     -0.00619318228664
C   -0.00000567409046      1.41496628609039     -0.00672680580738
C   2.45644923379077      1.41832825917820      0.00902448468363
C   0.00001130712078     -1.41497612663474      0.00347275151708
C   -1.22530046906674      0.70754574598412      0.00838914760619
C   2.45643823516184     -1.41832293188077     -0.00843833914343
C   -0.00000085313587      2.83680140328112     -0.00913035594137
C   3.68182717731192      0.70931832800114     -0.00808954934571
C   2.45512052870677      2.83422403348893     -0.00819210630633
C   3.68182158506039     -0.70933346742900      0.00798293467272
C   -1.22531311884624     -0.70752714354401     -0.00512042085974
C   1.22670006104402      3.54346985599427      0.00816696660346
C   0.00000526469929     -2.83678176723568      0.00832091913869
C   -2.45643555300670      1.41831729028492      0.00842454345199
C   2.45512389762097     -2.83422965658853      0.00783102630520
C   -1.22671388474763      3.54346943575023      0.00827029982280
C   4.91451777504333      1.42717324448953     -0.00160886631602
C   3.69315067131765      3.54279566454522     -0.00155906667985
C   -2.45643712022637     -1.41831290883911     -0.00846337726810
C   1.22670532178455     -3.54347386990643     -0.00780316414624
C   -2.45512491866593      2.83421703463423     -0.00818572995999
C   4.91452486062398     -1.42718653794377      0.00136387641845
C   1.22142509354026      4.97013443726031      0.00150231067809
C   4.89300870916237      2.82518837202648     -0.00039219795739
C   -1.22669652864725     -3.54347062507680     -0.00753595973677
C   -3.68181849668397      0.70932533873199     -0.00807686886569
C   3.69314758099218     -3.54280096939050      0.00148176697923
C   -1.22143177215231      4.97012866986289      0.00168580605083
C   6.13477145276790      0.68054831910577     -0.00083909176631
C   3.65678936045204      4.97295361556775     -0.00065042889723
C   -2.45512642789169     -2.83421472106065      0.00758666850712
C   -3.68181869921921     -0.70932533146830      0.00810055625144
C   4.89301309775526     -2.82519973363176      0.00021895393805
C   -0.00000059327114      5.65044773803267      0.00045449734393
C   6.13477559217374     -0.68055448207492      0.00042622874941
C   2.47813196269732      5.65357712333155      0.00063835075260
C   1.22142288457925     -4.97012668293268     -0.00129718634452
C   -3.69316190412301      3.54279732619245     -0.00139355922051
C   -1.22142804110313     -4.97011793159564     -0.00140994817719
C   -4.91452132810043      1.42717581899491     -0.00153192130862
C   3.65678749952045     -4.97295485423912      0.00080007163680
C   -2.47813805026426      5.65357479452875      0.00092287576113
C   -3.69314125872231     -3.54278984697859      0.00136564082345
C   -4.91451200321153     -1.42718062802730      0.00139857359209
C   -0.00000552908399     -5.65043791501335      0.00005899322272
C   -4.89302000425900      2.82518897091939     -0.00040227981744
C   2.47812647313991     -5.65357317188818     -0.00029052915548
C   -3.65679823041642      4.97295655404175     -0.00047374852278
C   -4.89299899901461     -2.82519139505969      0.00006491824035
C   -2.47812801824129     -5.65356579800621     -0.00056571680280
C   -6.13477002348955      0.68054913825639     -0.00086464346868
C   -3.65678835334731     -4.97294365097028      0.00058578382008
C   -6.13476456307132     -0.68055354348201      0.00040575295444
H   5.83528897565761      3.36927626695423      0.00396712770529
H   7.07385965258860      1.22821762089947     -0.00037744837300
H   4.60066374401555      5.51238117445323     -0.00014522814529
H   5.83528386714679     -3.36930568472863     -0.00423551337640
H   -0.00001167146422      6.73853104613662     -0.00389474766392
H   7.07386165167227     -1.22822657074368     -0.00008250934481
H   2.47331421164041      6.74068466339473      0.00017162982210
H   4.60066897122302     -5.51237575717576      0.00039007446835
H   -2.47331820069565      6.74068209160650      0.00047297644710
H   -0.00000978838621     -6.73852780445195      0.00458867820736
H   -5.83530143450167      3.36927132229595      0.00410314985360
H   2.47330840367253     -6.74068500242887      0.00027980126949
H   -4.60067436136587      5.51237839860371      0.00002010017831
H   -5.83527902699321     -3.36928859177951     -0.00451481925734
H   -2.47329986759855     -6.74067870613986     -0.00016951527498
H   -7.07385728692578      1.22822084484047     -0.00046143985387
H   -4.60067330624313     -5.51236229778631      0.00021776644566
H   -7.07385645456741     -1.22822025997701     -0.00017736581114

    units angstrom      # Angstroms are the default
    no_reorient         # Geometry fixed, default
    symmetry c1         # C1 symmetry, default
}

set {
    scf_type DF         # Density fitting, faster than exact integrals
    freeze_core True    # Freeze core electrons
    basis jun-cc-pVDZ   # Jun-cc-pVDZ basis set, recommended for sSAPT0 in https://doi.org/10.1063/1.4867135
}

energy('ssapt0')        # Compute sSAPT0 energy, includes also SAPT0
--------------------------------------------------------------------------

  //              Dimer HF             //
    Molecular point group: c1
  Charge       = 1
  Multiplicity = 1
  Basis Set: JUN-CC-PVDZ
    Blend: JUN-CC-PVDZ
  Basis Set: (JUN-CC-PVDZ AUX)
    Blend: JUN-CC-PVDZ-JKFIT
  @DF-RHF Final Energy: -2359.21093406255022
    Total Energy =                      -2359.2109340625502227
 Dipole X            :         -0.0027430            0.0006313           -0.0021117
 Dipole Y            :         -0.0540401            0.0560211            0.0019810
 Dipole Z            :         15.2283009          -20.0064651           -4.7781642
 Magnitude           :                                                    4.7781650
  //            Monomer A HF           //
    Molecular point group: c1
  Multiplicity = 1
  Basis Set: JUN-CC-PVDZ
    Blend: JUN-CC-PVDZ
  Basis Set: (JUN-CC-PVDZ AUX)
    Blend: JUN-CC-PVDZ-JKFIT
  @DF-RHF Final Energy:  -303.29823032050274
    Total Energy =                       -303.2982303205027392
  //            Monomer B HF           //
    Molecular point group: c1

    Geometry (in Angstrom), charge = 0, multiplicity = 1:

       Center              X                  Y                   Z               Mass
    ------------   -----------------  -----------------  -----------------  -----------------
      Gh(C)           0.680066520158    -0.008042372515    -4.881717039996    12.000000000000
      Gh(C)          -0.680504479842    -0.006014372515    -4.881333039996    12.000000000000
      Gh(N)          -1.085635479842    -0.005016372515    -3.563009039996    14.003074004430
      Gh(C)           0.000107520158    -0.001740372515    -2.781608039996    12.000000000000
      Gh(C)          -2.477365479842     0.044389627485    -3.095030039996    12.000000000000
      Gh(N)           1.085221520158    -0.005016372515    -3.563009039996    14.003074004430
      Gh(H)           1.385145520158    -0.015870372515    -5.699156039996     1.007825032230
      Gh(H)          -1.385302479842    -0.006204372515    -5.699002039996     1.007825032230
      Gh(H)          -0.000009479842     0.000006627485    -1.700519039996     1.007825032230
      Gh(C)           2.478116520158    -0.021908372515    -3.097911039996    12.000000000000
      Gh(H)           2.490591520158     0.005436627485    -2.007658039996     1.007825032230
      Gh(H)           2.967027520158    -0.935354372515    -3.445087039996     1.007825032230
      Gh(H)           3.001427520158     0.853574627485    -3.489383039996     1.007825032230
      Gh(H)          -2.857359479842     1.066460627485    -3.174989039996     1.007825032230
      Gh(H)          -3.082679479842    -0.625694372515    -3.708094039996     1.007825032230
      Gh(H)          -2.518128479842    -0.282594372515    -2.055082039996     1.007825032230
         C            1.225311895423     0.707538288405     0.540349587288    12.000000000000
         C            1.225323856051    -0.707538895085     0.528018777718    12.000000000000
         C           -0.000006153932     1.414965913575     0.527485154197    12.000000000000
         C            2.456448753949     1.418327886663     0.543236444688    12.000000000000
         C            0.000010827279    -1.414976499150     0.537684711522    12.000000000000
         C           -1.225300948908     0.707545373469     0.542601107611    12.000000000000
         C            2.456437755320    -1.418323304396     0.525773620861    12.000000000000
         C           -0.000001332978     2.836801030766     0.525081604063    12.000000000000
         C            3.681826697470     0.709317955486     0.526122410659    12.000000000000
         C            2.455120048865     2.834223660974     0.526019853698    12.000000000000
         C            3.681821105219    -0.709333839944     0.542194894677    12.000000000000
         C           -1.225313598688    -0.707527516059     0.529091539145    12.000000000000
         C            1.226699581202     3.543469483479     0.542378926608    12.000000000000
         C            0.000004784858    -2.836782139751     0.542532879143    12.000000000000
         C           -2.456436032848     1.418316917770     0.542636503456    12.000000000000
         C            2.455123417779    -2.834230029103     0.542042986310    12.000000000000
         C           -1.226714364589     3.543469063235     0.542482259827    12.000000000000
         C            4.914517295202     1.427172871975     0.532603093688    12.000000000000
         C            3.693150191476     3.542795292030     0.532652893325    12.000000000000
         C           -2.456437600068    -1.418313281354     0.525748582736    12.000000000000
         C            1.226704841943    -3.543474242421     0.526408795858    12.000000000000
         C           -2.455125398508     2.834216662119     0.526026230044    12.000000000000
         C            4.914524380782    -1.427186910459     0.535575836423    12.000000000000
         C            1.221424613699     4.970134064745     0.535714270683    12.000000000000
         C            4.893008229321     2.825187999512     0.533819762047    12.000000000000
         C           -1.226697008489    -3.543470997592     0.526676000268    12.000000000000
         C           -3.681818976526     0.709324966217     0.526135091139    12.000000000000
         C            3.693147101150    -3.542801341905     0.535693726984    12.000000000000
         C           -1.221432251994     4.970128297348     0.535897766055    12.000000000000
         C            6.134770972926     0.680547946591     0.533372868238    12.000000000000
         C            3.656788880610     4.972953243053     0.533561531107    12.000000000000
         C           -2.455126907733    -2.834215093576     0.541798628512    12.000000000000
         C           -3.681819179061    -0.709325703983     0.542312516256    12.000000000000
         C            4.893012617914    -2.825200106147     0.534430913943    12.000000000000
         C           -0.000001073113     5.650447365518     0.534666457348    12.000000000000
         C            6.134775112332    -0.680554854590     0.534638188754    12.000000000000
         C            2.478131482856     5.653576750817     0.534850310757    12.000000000000
         C            1.221422404738    -4.970127055448     0.532914773660    12.000000000000
         C           -3.693162383965     3.542796953677     0.532818400784    12.000000000000
         C           -1.221428520945    -4.970118304111     0.532802011827    12.000000000000
         C           -4.914521807942     1.427175446480     0.532680038696    12.000000000000
         C            3.656787019679    -4.972955226754     0.535012031641    12.000000000000
         C           -2.478138530106     5.653574422014     0.535134835766    12.000000000000
         C           -3.693141738564    -3.542790219494     0.535577600828    12.000000000000
         C           -4.914512483053    -1.427181000542     0.535610533597    12.000000000000
         C           -0.000006008926    -5.650438287528     0.534270953227    12.000000000000
         C           -4.893020484101     2.825188598404     0.533809680187    12.000000000000
         C            2.478125993298    -5.653573544403     0.533921430849    12.000000000000
         C           -3.656798710258     4.972956181527     0.533738211482    12.000000000000
         C           -4.892999478856    -2.825191767575     0.534276878245    12.000000000000
         C           -2.478128498083    -5.653566170521     0.533646243202    12.000000000000
         C           -6.134770503331     0.680548765741     0.533347316536    12.000000000000
         C           -3.656788833189    -4.972944023485     0.534797743825    12.000000000000
         C           -6.134765042913    -0.680553915997     0.534617712959    12.000000000000
         H            5.835288495816     3.369275894439     0.538179087710     1.007825032230
         H            7.073859172747     1.228217248385     0.533834511631     1.007825032230
         H            4.600663264174     5.512380801938     0.534066731859     1.007825032230
         H            5.835283387305    -3.369306057244     0.529976446628     1.007825032230
         H           -0.000012151306     6.738530673622     0.530317212341     1.007825032230
         H            7.073861171831    -1.228226943259     0.534129450660     1.007825032230
         H            2.473313731799     6.740684290880     0.534383589827     1.007825032230
         H            4.600668491381    -5.512376129691     0.534602034473     1.007825032230
         H           -2.473318680537     6.740681719092     0.534684936452     1.007825032230
         H           -0.000010268228    -6.738528176967     0.538800638212     1.007825032230
         H           -5.835301914343     3.369270949781     0.538315109858     1.007825032230
         H            2.473307923831    -6.740685374944     0.534491761274     1.007825032230
         H           -4.600674841208     5.512378026089     0.534232060183     1.007825032230
         H           -5.835279506835    -3.369288964294     0.529697140747     1.007825032230
         H           -2.473300347440    -6.740679078655     0.534042444730     1.007825032230
         H           -7.073857766768     1.228220472326     0.533750520151     1.007825032230
         H           -4.600673786085    -5.512362670301     0.534429726450     1.007825032230
         H           -7.073856934409    -1.228220632492     0.534034594193     1.007825032230

  Charge       = 0
  Multiplicity = 1
  Basis Set: JUN-CC-PVDZ
    Blend: JUN-CC-PVDZ
  Basis Set: (JUN-CC-PVDZ AUX)
    Blend: JUN-CC-PVDZ-JKFIT

    Orbital Energies [Eh]
    ---------------------

    Doubly Occupied:

       1A    -11.260591     2A    -11.260173     3A    -11.260102
       4A    -11.259416     5A    -11.259357     6A    -11.259197
       7A    -11.258967     8A    -11.258913     9A    -11.258867
      10A    -11.258572    11A    -11.258556    12A    -11.258455
      13A    -11.258399    14A    -11.258395    15A    -11.258390
      16A    -11.258360    17A    -11.258348    18A    -11.258332
      19A    -11.258329    20A    -11.258318    21A    -11.258317
      22A    -11.258266    23A    -11.258238    24A    -11.258006
      25A    -11.257260    26A    -11.257220    27A    -11.257174
      28A    -11.257082    29A    -11.257037    30A    -11.256975
      31A    -11.256360    32A    -11.256315    33A    -11.256256
      34A    -11.256191    35A    -11.256147    36A    -11.256119
      37A    -11.252213    38A    -11.252209    39A    -11.252209
      40A    -11.252205    41A    -11.252182    42A    -11.252178
      43A    -11.251306    44A    -11.251303    45A    -11.251295
      46A    -11.251289    47A    -11.251286    48A    -11.251283
      49A    -11.250774    50A    -11.250770    51A    -11.250770
      52A    -11.250766    53A    -11.250743    54A    -11.250739
      55A     -1.243890    56A     -1.219670    57A     -1.219637
      58A     -1.189402    59A     -1.189382    60A     -1.180789
      61A     -1.157426    62A     -1.148838    63A     -1.135347
      64A     -1.135309    65A     -1.113062    66A     -1.113056
      67A     -1.082274    68A     -1.082263    69A     -1.078449
      70A     -1.065857    71A     -1.065847    72A     -1.039252
      73A     -1.024101    74A     -1.021611    75A     -1.021539
      76A     -1.017596    77A     -1.012678    78A     -0.986871
      79A     -0.986806    80A     -0.961752    81A     -0.961691
      82A     -0.894143    83A     -0.894125    84A     -0.887758
      85A     -0.885998    86A     -0.885960    87A     -0.881225
      88A     -0.881185    89A     -0.861759    90A     -0.837294
      91A     -0.818057    92A     -0.816440    93A     -0.811973
      94A     -0.811967    95A     -0.794557    96A     -0.794541
      97A     -0.746450    98A     -0.744693    99A     -0.733252
     100A     -0.733237   101A     -0.732039   102A     -0.732022
     103A     -0.716344   104A     -0.698844   105A     -0.698798
     106A     -0.693451   107A     -0.693392   108A     -0.661094
     109A     -0.652944   110A     -0.650980   111A     -0.650127
     112A     -0.650112   113A     -0.639231   114A     -0.639198
     115A     -0.629557   116A     -0.627358   117A     -0.627350
     118A     -0.606400   119A     -0.605708   120A     -0.601487
     121A     -0.599610   122A     -0.599526   123A     -0.593469
     124A     -0.591051   125A     -0.591008   126A     -0.585165
     127A     -0.576447   128A     -0.576309   129A     -0.567204
     130A     -0.567174   131A     -0.565791   132A     -0.565783
     133A     -0.558553   134A     -0.554717   135A     -0.554695
     136A     -0.538459   137A     -0.538455   138A     -0.538186
     139A     -0.538132   140A     -0.529568   141A     -0.528131
     142A     -0.522742   143A     -0.522694   144A     -0.500368
     145A     -0.495567   146A     -0.493093   147A     -0.487769
     148A     -0.484904   149A     -0.481598   150A     -0.481591
     151A     -0.470298   152A     -0.470242   153A     -0.450826
     154A     -0.450766   155A     -0.438993   156A     -0.438991
     157A     -0.404675   158A     -0.404626   159A     -0.403285
     160A     -0.375347   161A     -0.375343   162A     -0.349050
     163A     -0.337496   164A     -0.336457   165A     -0.336441
     166A     -0.311000   167A     -0.298041   168A     -0.284233
     169A     -0.284190   170A     -0.224812   171A     -0.224753

  @DF-RHF Final Energy: -2055.89517843366684

   => Energetics <=

    Nuclear Repulsion Energy =           6452.5568002797781446
    One-Electron Energy =              -15636.5247389370979363
    Two-Electron Energy =                7128.0727602236520397
    Total Energy =                      -2055.8951784336668425
 Dipole X            :         -0.0004434           -0.0000085           -0.0004519
 Dipole Y            :         -0.0000136            0.0000167            0.0000031
 Dipole Z            :       -345.2493250          345.2524467            0.0031217
 Magnitude           :                                                    0.0031543

    SAPT Results
  --------------------------------------------------------------------------------------------------------
    Electrostatics                -17.32216600 [mEh]     -10.86982327 [kcal/mol]     -45.47934056 [kJ/mol]
      Elst10,r                    -17.32216600 [mEh]     -10.86982327 [kcal/mol]     -45.47934056 [kJ/mol]

    Exchange                       16.86708251 [mEh]      10.58425407 [kcal/mol]      44.28451902 [kJ/mol]
      Exch10                       16.86708251 [mEh]      10.58425407 [kcal/mol]      44.28451902 [kJ/mol]
      Exch10(S^2)                  16.78096415 [mEh]      10.53021399 [kcal/mol]      44.05841531 [kJ/mol]

    Induction                     -17.07022489 [mEh]     -10.71172784 [kcal/mol]     -44.81786928 [kJ/mol]
      Ind20,r                     -17.70915625 [mEh]     -11.11266332 [kcal/mol]     -46.49538334 [kJ/mol]
      Exch-Ind20,r                  4.01144869 [mEh]       2.51722206 [kcal/mol]      10.53205709 [kJ/mol]
      delta HF,r (2)               -3.37251733 [mEh]      -2.11628658 [kcal/mol]      -8.85454303 [kJ/mol]

    Dispersion                    -23.76432691 [mEh]     -14.91234028 [kcal/mol]     -62.39323172 [kJ/mol]
      Disp20                      -25.30030748 [mEh]     -15.87618263 [kcal/mol]     -66.42594814 [kJ/mol]
      Exch-Disp20                   1.53598057 [mEh]       0.96384236 [kcal/mol]       4.03271642 [kJ/mol]
      Disp20 (SS)                 -12.65015374 [mEh]      -7.93809132 [kcal/mol]     -33.21297407 [kJ/mol]
      Disp20 (OS)                 -12.65015374 [mEh]      -7.93809132 [kcal/mol]     -33.21297407 [kJ/mol]
      Exch-Disp20 (SS)              0.91429155 [mEh]       0.57372661 [kcal/mol]       2.40047215 [kJ/mol]
      Exch-Disp20 (OS)              0.62168901 [mEh]       0.39011574 [kcal/mol]       1.63224428 [kJ/mol]

  Total HF                        -17.52530838 [mEh]     -10.99729704 [kcal/mol]     -46.01269081 [kJ/mol]
  Total SAPT0                     -41.28963529 [mEh]     -25.90963732 [kcal/mol]    -108.40592253 [kJ/mol]

  Special recipe for scaled SAPT0 (see Manual):
    Electrostatics sSAPT0         -17.32216600 [mEh]     -10.86982327 [kcal/mol]     -45.47934056 [kJ/mol]
    Exchange sSAPT0                16.86708251 [mEh]      10.58425407 [kcal/mol]      44.28451902 [kJ/mol]
    Induction sSAPT0              -17.00814826 [mEh]     -10.67277416 [kcal/mol]     -44.65488710 [kJ/mol]
    Dispersion sSAPT0             -23.74055782 [mEh]     -14.89742494 [kcal/mol]     -62.33082597 [kJ/mol]
  Total sSAPT0                    -41.20378957 [mEh]     -25.85576831 [kcal/mol]    -108.18053460 [kJ/mol]
  --------------------------------------------------------------------------------------------------------

*** Psi4 exiting successfully. Buy a developer a beer!
