                               Psi4 1.9 release

  ==> Input File <==

--------------------------------------------------------------------------
memory 32 GB # how much memory is available ! Depends on the nodes/cores !

molecule dimer {
# monomer A
-1 1    # Charge and multiplicity
B -1.977592e-04  2.742729e-04 -7.399966
F  1.123153e-16  1.430594e-17 -5.987181
F  1.147860e+00  6.757812e-01 -7.871107
F  1.191806e-02 -1.332011e+00 -7.870905
F -1.159666e+00  6.560735e-01 -7.870826
--
# monomer B
0 1     # Charge and multiplicity
C   1.22531237526482      0.70753866091955      0.00613762728373
C   1.22532433589282     -0.70753852257020     -0.00619318228664
C   -0.00000567409046      1.41496628609039     -0.00672680580738
C   2.45644923379077      1.41832825917820      0.00902448468363
C   0.00001130712078     -1.41497612663474      0.00347275151708
C   -1.22530046906674      0.70754574598412      0.00838914760619
C   2.45643823516184     -1.41832293188077     -0.00843833914343
C   -0.00000085313587      2.83680140328112     -0.00913035594137
C   3.68182717731192      0.70931832800114     -0.00808954934571
C   2.45512052870677      2.83422403348893     -0.00819210630633
C   3.68182158506039     -0.70933346742900      0.00798293467272
C   -1.22531311884624     -0.70752714354401     -0.00512042085974
C   1.22670006104402      3.54346985599427      0.00816696660346
C   0.00000526469929     -2.83678176723568      0.00832091913869
C   -2.45643555300670      1.41831729028492      0.00842454345199
C   2.45512389762097     -2.83422965658853      0.00783102630520
C   -1.22671388474763      3.54346943575023      0.00827029982280
C   4.91451777504333      1.42717324448953     -0.00160886631602
C   3.69315067131765      3.54279566454522     -0.00155906667985
C   -2.45643712022637     -1.41831290883911     -0.00846337726810
C   1.22670532178455     -3.54347386990643     -0.00780316414624
C   -2.45512491866593      2.83421703463423     -0.00818572995999
C   4.91452486062398     -1.42718653794377      0.00136387641845
C   1.22142509354026      4.97013443726031      0.00150231067809
C   4.89300870916237      2.82518837202648     -0.00039219795739
C   -1.22669652864725     -3.54347062507680     -0.00753595973677
C   -3.68181849668397      0.70932533873199     -0.00807686886569
C   3.69314758099218     -3.54280096939050      0.00148176697923
C   -1.22143177215231      4.97012866986289      0.00168580605083
C   6.13477145276790      0.68054831910577     -0.00083909176631
C   3.65678936045204      4.97295361556775     -0.00065042889723
C   -2.45512642789169     -2.83421472106065      0.00758666850712
C   -3.68181869921921     -0.70932533146830      0.00810055625144
C   4.89301309775526     -2.82519973363176      0.00021895393805
C   -0.00000059327114      5.65044773803267      0.00045449734393
C   6.13477559217374     -0.68055448207492      0.00042622874941
C   2.47813196269732      5.65357712333155      0.00063835075260
C   1.22142288457925     -4.97012668293268     -0.00129718634452
C   -3.69316190412301      3.54279732619245     -0.00139355922051
C   -1.22142804110313     -4.97011793159564     -0.00140994817719
C   -4.91452132810043      1.42717581899491     -0.00153192130862
C   3.65678749952045     -4.97295485423912      0.00080007163680
C   -2.47813805026426      5.65357479452875      0.00092287576113
C   -3.69314125872231     -3.54278984697859      0.00136564082345
C   -4.91451200321153     -1.42718062802730      0.00139857359209
C   -0.00000552908399     -5.65043791501335      0.00005899322272
C   -4.89302000425900      2.82518897091939     -0.00040227981744
C   2.47812647313991     -5.65357317188818     -0.00029052915548
C   -3.65679823041642      4.97295655404175     -0.00047374852278
C   -4.89299899901461     -2.82519139505969      0.00006491824035
C   -2.47812801824129     -5.65356579800621     -0.00056571680280
C   -6.13477002348955      0.68054913825639     -0.00086464346868
C   -3.65678835334731     -4.97294365097028      0.00058578382008
C   -6.13476456307132     -0.68055354348201      0.00040575295444
H   5.83528897565761      3.36927626695423      0.00396712770529
H   7.07385965258860      1.22821762089947     -0.00037744837300
H   4.60066374401555      5.51238117445323     -0.00014522814529
H   5.83528386714679     -3.36930568472863     -0.00423551337640
H   -0.00001167146422      6.73853104613662     -0.00389474766392
H   7.07386165167227     -1.22822657074368     -0.00008250934481
H   2.47331421164041      6.74068466339473      0.00017162982210
H   4.60066897122302     -5.51237575717576      0.00039007446835
H   -2.47331820069565      6.74068209160650      0.00047297644710
H   -0.00000978838621     -6.73852780445195      0.00458867820736
H   -5.83530143450167      3.36927132229595      0.00410314985360
H   2.47330840367253     -6.74068500242887      0.00027980126949
H   -4.60067436136587      5.51237839860371      0.00002010017831
H   -5.83527902699321     -3.36928859177951     -0.00451481925734
H   -2.47329986759855     -6.74067870613986     -0.00016951527498
H   -7.07385728692578      1.22822084484047     -0.00046143985387
H   -4.60067330624313     -5.51236229778631      0.00021776644566
H   -7.07385645456741     -1.22822025997701     -0.00017736581114

    units angstrom      # Angstroms are the default
    no_reorient         # Geometry fixed, default
    symmetry c1         # C1 symmetry, default
}

set {
    scf_type DF         # Density fitting, faster than exact integrals
    freeze_core True    # Freeze core electrons
    basis jun-cc-pVDZ   # Jun-cc-pVDZ basis set, recommended for sSAPT0 in https://doi.org/10.1063/1.4867135
}

energy('ssapt0')        # Compute sSAPT0 energy, includes also SAPT0
--------------------------------------------------------------------------

  //              Dimer HF             //
    Molecular point group: c1
  Charge       = -1
  Multiplicity = 1
  Basis Set: JUN-CC-PVDZ
    Blend: JUN-CC-PVDZ
  Basis Set: (JUN-CC-PVDZ AUX)
    Blend: JUN-CC-PVDZ-JKFIT
  @DF-RHF Final Energy: -2478.65824529232850
    Total Energy =                      -2478.6582452923285018
 Dipole X            :         -0.0005207            0.0000481           -0.0004726
 Dipole Y            :          0.0010698           -0.0001453            0.0009245
 Dipole Z            :        -33.7137824           45.3646236           11.6508412
 Magnitude           :                                                   11.6508413
  //            Monomer A HF           //
    Molecular point group: c1
  Multiplicity = 1
  Basis Set: JUN-CC-PVDZ
    Blend: JUN-CC-PVDZ
  Basis Set: (JUN-CC-PVDZ AUX)
    Blend: JUN-CC-PVDZ-JKFIT
  @DF-RHF Final Energy:  -422.77147001538606
    Total Energy =                       -422.7714700153860576
  //            Monomer B HF           //
    Molecular point group: c1

    Geometry (in Angstrom), charge = 0, multiplicity = 1:

       Center              X                  Y                   Z               Mass
    ------------   -----------------  -----------------  -----------------  -----------------
      Gh(B)          -0.000198161052     0.000273808717    -6.545118246518    11.009305360000
      Gh(F)          -0.000000401852    -0.000000464183    -5.132333246518    18.998403162730
      Gh(F)           1.147859598148     0.675780735817    -7.016259246518    18.998403162730
      Gh(F)           0.011917658148    -1.332011464183    -7.016057246518    18.998403162730
      Gh(F)          -1.159666401852     0.656073035817    -7.015978246518    18.998403162730
         C            1.225311973413     0.707538196736     0.860985380766    12.000000000000
         C            1.225323934041    -0.707538986754     0.848654571196    12.000000000000
         C           -0.000006075942     1.414965821907     0.848120947675    12.000000000000
         C            2.456448831939     1.418327794995     0.863872238166    12.000000000000
         C            0.000010905269    -1.414976590818     0.858320504999    12.000000000000
         C           -1.225300870919     0.707545281801     0.863236901089    12.000000000000
         C            2.456437833310    -1.418323396064     0.846409414339    12.000000000000
         C           -0.000001254988     2.836800939098     0.845717397541    12.000000000000
         C            3.681826775460     0.709317863818     0.846758204137    12.000000000000
         C            2.455120126855     2.834223569306     0.846655647176    12.000000000000
         C            3.681821183209    -0.709333931612     0.862830688155    12.000000000000
         C           -1.225313520698    -0.707527607727     0.849727332623    12.000000000000
         C            1.226699659192     3.543469391811     0.863014720086    12.000000000000
         C            0.000004862847    -2.836782231419     0.863168672621    12.000000000000
         C           -2.456435954859     1.418316826102     0.863272296934    12.000000000000
         C            2.455123495769    -2.834230120772     0.862678779788    12.000000000000
         C           -1.226714286599     3.543468971567     0.863118053305    12.000000000000
         C            4.914517373191     1.427172780306     0.853238887166    12.000000000000
         C            3.693150269466     3.542795200362     0.853288686803    12.000000000000
         C           -2.456437522078    -1.418313373022     0.846384376214    12.000000000000
         C            1.226704919933    -3.543474334090     0.847044589336    12.000000000000
         C           -2.455125320518     2.834216570451     0.846662023522    12.000000000000
         C            4.914524458772    -1.427187002127     0.856211629901    12.000000000000
         C            1.221424691688     4.970133973077     0.856350064160    12.000000000000
         C            4.893008307311     2.825187907843     0.854455555525    12.000000000000
         C           -1.226696930499    -3.543471089260     0.847311793746    12.000000000000
         C           -3.681818898536     0.709324874549     0.846770884617    12.000000000000
         C            3.693147179140    -3.542801433574     0.856329520462    12.000000000000
         C           -1.221432174004     4.970128205680     0.856533559533    12.000000000000
         C            6.134771050916     0.680547854922     0.854008661716    12.000000000000
         C            3.656788958600     4.972953151384     0.854197324585    12.000000000000
         C           -2.455126829744    -2.834215185244     0.862434421990    12.000000000000
         C           -3.681819101071    -0.709325795652     0.862948309734    12.000000000000
         C            4.893012695903    -2.825200197815     0.855066707420    12.000000000000
         C           -0.000000995123     5.650447273849     0.855302250826    12.000000000000
         C            6.134775190322    -0.680554946258     0.855273982232    12.000000000000
         C            2.478131560845     5.653576659148     0.855486104235    12.000000000000
         C            1.221422482727    -4.970127147116     0.853550567138    12.000000000000
         C           -3.693162305975     3.542796862009     0.853454194262    12.000000000000
         C           -1.221428442955    -4.970118395779     0.853437805305    12.000000000000
         C           -4.914521729952     1.427175354812     0.853315832174    12.000000000000
         C            3.656787097669    -4.972955318422     0.855647825119    12.000000000000
         C           -2.478138452116     5.653574330345     0.855770629244    12.000000000000
         C           -3.693141660574    -3.542790311162     0.856213394306    12.000000000000
         C           -4.914512405063    -1.427181092211     0.856246327074    12.000000000000
         C           -0.000005930936    -5.650438379197     0.854906746705    12.000000000000
         C           -4.893020406111     2.825188506736     0.854445473665    12.000000000000
         C            2.478126071288    -5.653573636072     0.854557224327    12.000000000000
         C           -3.656798632268     4.972956089858     0.854374004960    12.000000000000
         C           -4.892999400866    -2.825191859243     0.854912671723    12.000000000000
         C           -2.478128420093    -5.653566262190     0.854282036680    12.000000000000
         C           -6.134770425341     0.680548674073     0.853983110014    12.000000000000
         C           -3.656788755199    -4.972944115154     0.855433537302    12.000000000000
         C           -6.134764964923    -0.680554007665     0.855253506437    12.000000000000
         H            5.835288573806     3.369275802771     0.858814881188     1.007825032230
         H            7.073859250737     1.228217156716     0.854470305109     1.007825032230
         H            4.600663342164     5.512380710270     0.854702525337     1.007825032230
         H            5.835283465295    -3.369306148912     0.850612240106     1.007825032230
         H           -0.000012073316     6.738530581953     0.850953005818     1.007825032230
         H            7.073861249820    -1.228227034927     0.854765244138     1.007825032230
         H            2.473313809789     6.740684199211     0.855019383304     1.007825032230
         H            4.600668569371    -5.512376221359     0.855237827951     1.007825032230
         H           -2.473318602548     6.740681627423     0.855320729929     1.007825032230
         H           -0.000010190238    -6.738528268635     0.859436431690     1.007825032230
         H           -5.835301836354     3.369270858113     0.858950903336     1.007825032230
         H            2.473308001821    -6.740685466612     0.855127554752     1.007825032230
         H           -4.600674763218     5.512377934420     0.854867853661     1.007825032230
         H           -5.835279428845    -3.369289055963     0.850332934225     1.007825032230
         H           -2.473300269450    -6.740679170323     0.854678238207     1.007825032230
         H           -7.073857688778     1.228220380657     0.854386313629     1.007825032230
         H           -4.600673708095    -5.512362761970     0.855065519928     1.007825032230
         H           -7.073856856419    -1.228220724160     0.854670387671     1.007825032230

  Charge       = 0
  Multiplicity = 1
  Basis Set: JUN-CC-PVDZ
    Blend: JUN-CC-PVDZ
  Basis Set: (JUN-CC-PVDZ AUX)
    Blend: JUN-CC-PVDZ-JKFIT

    Orbital Energies [Eh]
    ---------------------

    Doubly Occupied:

       1A    -11.260672     2A    -11.260229     3A    -11.260226
       4A    -11.259517     5A    -11.259516     6A    -11.259346
       7A    -11.259138     8A    -11.259060     9A    -11.259059
      10A    -11.258735    11A    -11.258732    12A    -11.258663
      13A    -11.258601    14A    -11.258596    15A    -11.258593
      16A    -11.258564    17A    -11.258558    18A    -11.258542
      19A    -11.258529    20A    -11.258523    21A    -11.258518
      22A    -11.258419    23A    -11.258416    24A    -11.258117
      25A    -11.257458    26A    -11.257396    27A    -11.257395
      28A    -11.257260    29A    -11.257259    30A    -11.257175
      31A    -11.256553    32A    -11.256482    33A    -11.256481
      34A    -11.256372    35A    -11.256371    36A    -11.256324
      37A    -11.252400    38A    -11.252399    39A    -11.252398
      40A    -11.252396    41A    -11.252394    42A    -11.252392
      43A    -11.251534    44A    -11.251531    45A    -11.251530
      46A    -11.251524    47A    -11.251524    48A    -11.251519
      49A    -11.250961    50A    -11.250960    51A    -11.250959
      52A    -11.250957    53A    -11.250955    54A    -11.250954
      55A     -1.244293    56A     -1.220013    57A     -1.220012
      58A     -1.189722    59A     -1.189714    60A     -1.181164
      61A     -1.157722    62A     -1.149154    63A     -1.135703
      64A     -1.135696    65A     -1.113356    66A     -1.113351
      67A     -1.082627    68A     -1.082620    69A     -1.078811
      70A     -1.066139    71A     -1.066136    72A     -1.039579
      73A     -1.024488    74A     -1.021990    75A     -1.021947
      76A     -1.017889    77A     -1.012950    78A     -0.987220
      79A     -0.987174    80A     -0.962049    81A     -0.961999
      82A     -0.894468    83A     -0.894441    84A     -0.888163
      85A     -0.886409    86A     -0.886351    87A     -0.881599
      88A     -0.881552    89A     -0.862073    90A     -0.837552
      91A     -0.818391    92A     -0.816830    93A     -0.812338
      94A     -0.812329    95A     -0.794855    96A     -0.794844
      97A     -0.746838    98A     -0.745063    99A     -0.733630
     100A     -0.733621   101A     -0.732353   102A     -0.732330
     103A     -0.716698   104A     -0.699150   105A     -0.699139
     106A     -0.693775   107A     -0.693760   108A     -0.661400
     109A     -0.653330   110A     -0.651377   111A     -0.650417
     112A     -0.650411   113A     -0.639530   114A     -0.639527
     115A     -0.629913   116A     -0.627724   117A     -0.627708
     118A     -0.606460   119A     -0.605935   120A     -0.601865
     121A     -0.599919   122A     -0.599888   123A     -0.593824
     124A     -0.591451   125A     -0.591441   126A     -0.585420
     127A     -0.576417   128A     -0.576411   129A     -0.567479
     130A     -0.567464   131A     -0.566163   132A     -0.566144
     133A     -0.558939   134A     -0.555022   135A     -0.555016
     136A     -0.538760   137A     -0.538758   138A     -0.538288
     139A     -0.538282   140A     -0.529896   141A     -0.528214
     142A     -0.523051   143A     -0.523044   144A     -0.500669
     145A     -0.495719   146A     -0.493407   147A     -0.487947
     148A     -0.485266   149A     -0.481947   150A     -0.481939
     151A     -0.470436   152A     -0.470418   153A     -0.451249
     154A     -0.451171   155A     -0.439189   156A     -0.439180
     157A     -0.404869   158A     -0.404846   159A     -0.403493
     160A     -0.375543   161A     -0.375541   162A     -0.349248
     163A     -0.337714   164A     -0.336683   165A     -0.336625
     166A     -0.311224   167A     -0.298211   168A     -0.284480
     169A     -0.284426   170A     -0.225049   171A     -0.224983

  @DF-RHF Final Energy: -2055.89166791147636

   => Energetics <=

    Nuclear Repulsion Energy =           6452.5568002797772351
    One-Electron Energy =              -15636.4266573649874772
    Two-Electron Energy =                7127.9781891737338810
    Total Energy =                      -2055.8916679114763610
 Dipole X            :          0.0000527            0.0000419            0.0000946
 Dipole Y            :          0.0000287           -0.0000426           -0.0000138
 Dipole Z            :       -552.4737124          552.4749785            0.0012662
 Magnitude           :                                                    0.0012698

    SAPT Results
  --------------------------------------------------------------------------------------------------------
    Electrostatics                  6.89859114 [mEh]       4.32893130 [kcal/mol]      18.11224855 [kJ/mol]
      Elst10,r                      6.89859114 [mEh]       4.32893130 [kcal/mol]      18.11224855 [kJ/mol]

    Exchange                       -0.00021766 [mEh]      -0.00013658 [kcal/mol]      -0.00057146 [kJ/mol]
      Exch10                       -0.00021766 [mEh]      -0.00013658 [kcal/mol]      -0.00057146 [kJ/mol]
      Exch10(S^2)                  -0.00021766 [mEh]      -0.00013658 [kcal/mol]      -0.00057146 [kJ/mol]

    Induction                      -2.00573895 [mEh]      -1.25862019 [kcal/mol]      -5.26606689 [kJ/mol]
      Ind20,r                      -2.01894884 [mEh]      -1.26690953 [kcal/mol]      -5.30074945 [kJ/mol]
      Exch-Ind20,r                  0.00028466 [mEh]       0.00017863 [kcal/mol]       0.00074738 [kJ/mol]
      delta HF,r (2)                0.01292523 [mEh]       0.00811070 [kcal/mol]       0.03393518 [kJ/mol]

    Dispersion                     -0.32143040 [mEh]      -0.20170062 [kcal/mol]      -0.84391540 [kJ/mol]
      Disp20                       -0.32154787 [mEh]      -0.20177433 [kcal/mol]      -0.84422381 [kJ/mol]
      Exch-Disp20                   0.00011747 [mEh]       0.00007371 [kcal/mol]       0.00030842 [kJ/mol]
      Disp20 (SS)                  -0.16077393 [mEh]      -0.10088717 [kcal/mol]      -0.42211191 [kJ/mol]
      Disp20 (OS)                  -0.16077393 [mEh]      -0.10088717 [kcal/mol]      -0.42211191 [kJ/mol]
      Exch-Disp20 (SS)              0.00009257 [mEh]       0.00005809 [kcal/mol]       0.00024305 [kJ/mol]
      Exch-Disp20 (OS)              0.00002490 [mEh]       0.00001562 [kcal/mol]       0.00006537 [kJ/mol]

  Total HF                          4.89263453 [mEh]       3.07017452 [kcal/mol]      12.84561020 [kJ/mol]
  Total SAPT0                       4.57120413 [mEh]       2.86847390 [kcal/mol]      12.00169480 [kJ/mol]

  Special recipe for scaled SAPT0 (see Manual):
    Electrostatics sSAPT0           6.89859114 [mEh]       4.32893130 [kcal/mol]      18.11224855 [kJ/mol]
    Exchange sSAPT0                -0.00021766 [mEh]      -0.00013658 [kcal/mol]      -0.00057146 [kJ/mol]
    Induction sSAPT0               -2.00573895 [mEh]      -1.25862019 [kcal/mol]      -5.26606689 [kJ/mol]
    Dispersion sSAPT0              -0.32143040 [mEh]      -0.20170062 [kcal/mol]      -0.84391540 [kJ/mol]
  Total sSAPT0                      4.57120413 [mEh]       2.86847390 [kcal/mol]      12.00169480 [kJ/mol]
  --------------------------------------------------------------------------------------------------------

*** Psi4 exiting successfully. Buy a developer a beer!
