                               Psi4 1.9 release

  ==> Input File <==

--------------------------------------------------------------------------
memory 32 GB # how much memory is available ! Depends on the nodes/cores !

molecule dimer {
# monomer A
-1 1    # Charge and multiplicity
B -0.000046  0.000337 5.199994
F -1.153597  0.000048 6.015641
F  1.153661 -0.000581 6.015641
F -0.000019 -1.153637 4.384360
F -0.000019  1.153978 4.384360
--
# monomer B
0 1     # Charge and multiplicity
C   1.22531237526482      0.70753866091955      0.00613762728373
C   1.22532433589282     -0.70753852257020     -0.00619318228664
C   -0.00000567409046      1.41496628609039     -0.00672680580738
C   2.45644923379077      1.41832825917820      0.00902448468363
C   0.00001130712078     -1.41497612663474      0.00347275151708
C   -1.22530046906674      0.70754574598412      0.00838914760619
C   2.45643823516184     -1.41832293188077     -0.00843833914343
C   -0.00000085313587      2.83680140328112     -0.00913035594137
C   3.68182717731192      0.70931832800114     -0.00808954934571
C   2.45512052870677      2.83422403348893     -0.00819210630633
C   3.68182158506039     -0.70933346742900      0.00798293467272
C   -1.22531311884624     -0.70752714354401     -0.00512042085974
C   1.22670006104402      3.54346985599427      0.00816696660346
C   0.00000526469929     -2.83678176723568      0.00832091913869
C   -2.45643555300670      1.41831729028492      0.00842454345199
C   2.45512389762097     -2.83422965658853      0.00783102630520
C   -1.22671388474763      3.54346943575023      0.00827029982280
C   4.91451777504333      1.42717324448953     -0.00160886631602
C   3.69315067131765      3.54279566454522     -0.00155906667985
C   -2.45643712022637     -1.41831290883911     -0.00846337726810
C   1.22670532178455     -3.54347386990643     -0.00780316414624
C   -2.45512491866593      2.83421703463423     -0.00818572995999
C   4.91452486062398     -1.42718653794377      0.00136387641845
C   1.22142509354026      4.97013443726031      0.00150231067809
C   4.89300870916237      2.82518837202648     -0.00039219795739
C   -1.22669652864725     -3.54347062507680     -0.00753595973677
C   -3.68181849668397      0.70932533873199     -0.00807686886569
C   3.69314758099218     -3.54280096939050      0.00148176697923
C   -1.22143177215231      4.97012866986289      0.00168580605083
C   6.13477145276790      0.68054831910577     -0.00083909176631
C   3.65678936045204      4.97295361556775     -0.00065042889723
C   -2.45512642789169     -2.83421472106065      0.00758666850712
C   -3.68181869921921     -0.70932533146830      0.00810055625144
C   4.89301309775526     -2.82519973363176      0.00021895393805
C   -0.00000059327114      5.65044773803267      0.00045449734393
C   6.13477559217374     -0.68055448207492      0.00042622874941
C   2.47813196269732      5.65357712333155      0.00063835075260
C   1.22142288457925     -4.97012668293268     -0.00129718634452
C   -3.69316190412301      3.54279732619245     -0.00139355922051
C   -1.22142804110313     -4.97011793159564     -0.00140994817719
C   -4.91452132810043      1.42717581899491     -0.00153192130862
C   3.65678749952045     -4.97295485423912      0.00080007163680
C   -2.47813805026426      5.65357479452875      0.00092287576113
C   -3.69314125872231     -3.54278984697859      0.00136564082345
C   -4.91451200321153     -1.42718062802730      0.00139857359209
C   -0.00000552908399     -5.65043791501335      0.00005899322272
C   -4.89302000425900      2.82518897091939     -0.00040227981744
C   2.47812647313991     -5.65357317188818     -0.00029052915548
C   -3.65679823041642      4.97295655404175     -0.00047374852278
C   -4.89299899901461     -2.82519139505969      0.00006491824035
C   -2.47812801824129     -5.65356579800621     -0.00056571680280
C   -6.13477002348955      0.68054913825639     -0.00086464346868
C   -3.65678835334731     -4.97294365097028      0.00058578382008
C   -6.13476456307132     -0.68055354348201      0.00040575295444
H   5.83528897565761      3.36927626695423      0.00396712770529
H   7.07385965258860      1.22821762089947     -0.00037744837300
H   4.60066374401555      5.51238117445323     -0.00014522814529
H   5.83528386714679     -3.36930568472863     -0.00423551337640
H   -0.00001167146422      6.73853104613662     -0.00389474766392
H   7.07386165167227     -1.22822657074368     -0.00008250934481
H   2.47331421164041      6.74068466339473      0.00017162982210
H   4.60066897122302     -5.51237575717576      0.00039007446835
H   -2.47331820069565      6.74068209160650      0.00047297644710
H   -0.00000978838621     -6.73852780445195      0.00458867820736
H   -5.83530143450167      3.36927132229595      0.00410314985360
H   2.47330840367253     -6.74068500242887      0.00027980126949
H   -4.60067436136587      5.51237839860371      0.00002010017831
H   -5.83527902699321     -3.36928859177951     -0.00451481925734
H   -2.47329986759855     -6.74067870613986     -0.00016951527498
H   -7.07385728692578      1.22822084484047     -0.00046143985387
H   -4.60067330624313     -5.51236229778631      0.00021776644566
H   -7.07385645456741     -1.22822025997701     -0.00017736581114

    units angstrom      # Angstroms are the default
    no_reorient         # Geometry fixed, default
    symmetry c1         # C1 symmetry, default
}

set {
    scf_type DF         # Density fitting, faster than exact integrals
    freeze_core True    # Freeze core electrons
    basis jun-cc-pVDZ   # Jun-cc-pVDZ basis set, recommended for sSAPT0 in https://doi.org/10.1063/1.4867135
}

energy('ssapt0')        # Compute sSAPT0 energy, includes also SAPT0
--------------------------------------------------------------------------

  //              Dimer HF             //
    Molecular point group: c1
  Charge       = -1
  Multiplicity = 1
  Basis Set: JUN-CC-PVDZ
    Blend: JUN-CC-PVDZ
  Basis Set: (JUN-CC-PVDZ AUX)
    Blend: JUN-CC-PVDZ-JKFIT
  @DF-RHF Final Energy: -2478.65966081652141
    Total Energy =                      -2478.6596608165218640
 Dipole X            :         -0.0002154           -0.0000160           -0.0002314
 Dipole Y            :          0.0012891           -0.0001716            0.0011174
 Dipole Z            :         24.2295508          -31.8775598           -7.6480091
 Magnitude           :                                                    7.6480091
  //            Monomer A HF           //
    Molecular point group: c1
  Multiplicity = 1
  Basis Set: JUN-CC-PVDZ
    Blend: JUN-CC-PVDZ
  Basis Set: (JUN-CC-PVDZ AUX)
    Blend: JUN-CC-PVDZ-JKFIT
  @DF-RHF Final Energy:  -422.77192290856954
    Total Energy =                       -422.7719229085695360
  //            Monomer B HF           //
    Molecular point group: c1

    Geometry (in Angstrom), charge = 0, multiplicity = 1:

       Center              X                  Y                   Z               Mass
    ------------   -----------------  -----------------  -----------------  -----------------
      Gh(B)          -0.000046449334     0.000336519434     4.599293993215    11.009305360000
      Gh(F)          -1.153597449334     0.000047519434     5.414940993215    18.998403162730
      Gh(F)           1.153660550666    -0.000581480566     5.414940993215    18.998403162730
      Gh(F)          -0.000019449334    -1.153637480566     3.783659993215    18.998403162730
      Gh(F)          -0.000019449334     1.153977519434     3.783659993215    18.998403162730
         C            1.225311925931     0.707538180353    -0.594562379501    12.000000000000
         C            1.225323886559    -0.707539003137    -0.606893189071    12.000000000000
         C           -0.000006123424     1.414965805524    -0.607426812592    12.000000000000
         C            2.456448784457     1.418327778612    -0.591675522101    12.000000000000
         C            0.000010857787    -1.414976607201    -0.597227255268    12.000000000000
         C           -1.225300918401     0.707545265418    -0.592310859179    12.000000000000
         C            2.456437785828    -1.418323412447    -0.609138345928    12.000000000000
         C           -0.000001302470     2.836800922715    -0.609830362726    12.000000000000
         C            3.681826727978     0.709317847435    -0.608789556130    12.000000000000
         C            2.455120079373     2.834223552923    -0.608892113091    12.000000000000
         C            3.681821135726    -0.709333947995    -0.592717072112    12.000000000000
         C           -1.225313568180    -0.707527624110    -0.605820427644    12.000000000000
         C            1.226699611710     3.543469375428    -0.592533040181    12.000000000000
         C            0.000004815365    -2.836782247802    -0.592379087646    12.000000000000
         C           -2.456436002341     1.418316809719    -0.592275463333    12.000000000000
         C            2.455123448287    -2.834230137155    -0.592868980480    12.000000000000
         C           -1.226714334082     3.543468955184    -0.592429706962    12.000000000000
         C            4.914517325709     1.427172763923    -0.602308873101    12.000000000000
         C            3.693150221984     3.542795183979    -0.602259073465    12.000000000000
         C           -2.456437569560    -1.418313389406    -0.609163384053    12.000000000000
         C            1.226704872451    -3.543474350473    -0.608503170931    12.000000000000
         C           -2.455125368000     2.834216554068    -0.608885736745    12.000000000000
         C            4.914524411290    -1.427187018510    -0.599336130366    12.000000000000
         C            1.221424644206     4.970133956694    -0.599197696107    12.000000000000
         C            4.893008259828     2.825187891460    -0.601092204742    12.000000000000
         C           -1.226696977981    -3.543471105643    -0.608235966521    12.000000000000
         C           -3.681818946018     0.709324858166    -0.608776875650    12.000000000000
         C            3.693147131658    -3.542801449957    -0.599218239805    12.000000000000
         C           -1.221432221486     4.970128189296    -0.599014200734    12.000000000000
         C            6.134771003434     0.680547838539    -0.601539098551    12.000000000000
         C            3.656788911118     4.972953135001    -0.601350435682    12.000000000000
         C           -2.455126877226    -2.834215201627    -0.593113338278    12.000000000000
         C           -3.681819148553    -0.709325812035    -0.592599450533    12.000000000000
         C            4.893012648421    -2.825200214198    -0.600481052847    12.000000000000
         C           -0.000001042605     5.650447257466    -0.600245509441    12.000000000000
         C            6.134775142840    -0.680554962641    -0.600273778035    12.000000000000
         C            2.478131513363     5.653576642765    -0.600061656032    12.000000000000
         C            1.221422435245    -4.970127163499    -0.601997193129    12.000000000000
         C           -3.693162353457     3.542796845626    -0.602093566005    12.000000000000
         C           -1.221428490437    -4.970118412162    -0.602109954962    12.000000000000
         C           -4.914521777434     1.427175338429    -0.602231928093    12.000000000000
         C            3.656787050187    -4.972955334806    -0.599899935148    12.000000000000
         C           -2.478138499598     5.653574313962    -0.599777131024    12.000000000000
         C           -3.693141708056    -3.542790327545    -0.599334365961    12.000000000000
         C           -4.914512452545    -1.427181108594    -0.599301433193    12.000000000000
         C           -0.000005978418    -5.650438395580    -0.600641013562    12.000000000000
         C           -4.893020453593     2.825188490353    -0.601102286602    12.000000000000
         C            2.478126023806    -5.653573652455    -0.600990535940    12.000000000000
         C           -3.656798679750     4.972956073475    -0.601173755307    12.000000000000
         C           -4.892999448349    -2.825191875626    -0.600635088544    12.000000000000
         C           -2.478128467575    -5.653566278573    -0.601265723588    12.000000000000
         C           -6.134770472823     0.680548657690    -0.601564650253    12.000000000000
         C           -3.656788802681    -4.972944131537    -0.600114222965    12.000000000000
         C           -6.134765012405    -0.680554024048    -0.600294253830    12.000000000000
         H            5.835288526324     3.369275786388    -0.596732879079     1.007825032230
         H            7.073859203255     1.228217140333    -0.601077455158     1.007825032230
         H            4.600663294682     5.512380693887    -0.600845234930     1.007825032230
         H            5.835283417813    -3.369306165295    -0.604935520161     1.007825032230
         H           -0.000012120798     6.738530565570    -0.604594754449     1.007825032230
         H            7.073861202338    -1.228227051310    -0.600782516130     1.007825032230
         H            2.473313762307     6.740684182828    -0.600528376963     1.007825032230
         H            4.600668521889    -5.512376237742    -0.600309932316     1.007825032230
         H           -2.473318650030     6.740681611040    -0.600227030338     1.007825032230
         H           -0.000010237720    -6.738528285018    -0.596111328577     1.007825032230
         H           -5.835301883836     3.369270841730    -0.596596856931     1.007825032230
         H            2.473307954339    -6.740685482995    -0.600420205515     1.007825032230
         H           -4.600674810700     5.512377918037    -0.600679906606     1.007825032230
         H           -5.835279476327    -3.369289072346    -0.605214826042     1.007825032230
         H           -2.473300316932    -6.740679186706    -0.600869522060     1.007825032230
         H           -7.073857736260     1.228220364274    -0.601161446639     1.007825032230
         H           -4.600673755577    -5.512362778353    -0.600482240339     1.007825032230
         H           -7.073856903901    -1.228220740543    -0.600877372596     1.007825032230

  Charge       = 0
  Multiplicity = 1
  Basis Set: JUN-CC-PVDZ
    Blend: JUN-CC-PVDZ
  Basis Set: (JUN-CC-PVDZ AUX)
    Blend: JUN-CC-PVDZ-JKFIT

    Orbital Energies [Eh]
    ---------------------

    Doubly Occupied:

       1A    -11.260633     2A    -11.260209     3A    -11.260165
       4A    -11.259482     5A    -11.259444     6A    -11.259287
       7A    -11.259070     8A    -11.259005     9A    -11.258981
      10A    -11.258677    11A    -11.258662    12A    -11.258590
      13A    -11.258528    14A    -11.258527    15A    -11.258524
      16A    -11.258490    17A    -11.258490    18A    -11.258470
      19A    -11.258462    20A    -11.258456    21A    -11.258447
      22A    -11.258370    23A    -11.258346    24A    -11.258071
      25A    -11.257378    26A    -11.257317    27A    -11.257315
      28A    -11.257183    29A    -11.257179    30A    -11.257097
      31A    -11.256471    32A    -11.256402    33A    -11.256399
      34A    -11.256292    35A    -11.256290    36A    -11.256244
      37A    -11.252341    38A    -11.252340    39A    -11.252338
      40A    -11.252337    41A    -11.252335    42A    -11.252334
      43A    -11.251462    44A    -11.251460    45A    -11.251456
      46A    -11.251453    47A    -11.251446    48A    -11.251443
      49A    -11.250903    50A    -11.250901    51A    -11.250900
      52A    -11.250897    53A    -11.250896    54A    -11.250895
      55A     -1.244145    56A     -1.219910    57A     -1.219891
      58A     -1.189628    59A     -1.189616    60A     -1.181026
      61A     -1.157639    62A     -1.149062    63A     -1.135576
      64A     -1.135568    65A     -1.113273    66A     -1.113266
      67A     -1.082512    68A     -1.082512    69A     -1.078684
      70A     -1.066059    71A     -1.066056    72A     -1.039481
      73A     -1.024362    74A     -1.021847    75A     -1.021813
      76A     -1.017808    77A     -1.012871    78A     -0.987107
      79A     -0.987060    80A     -0.961958    81A     -0.961910
      82A     -0.894372    83A     -0.894346    84A     -0.888020
      85A     -0.886277    86A     -0.886207    87A     -0.881480
      88A     -0.881439    89A     -0.861979    90A     -0.837484
      91A     -0.818293    92A     -0.816699    93A     -0.812222
      94A     -0.812210    95A     -0.794765    96A     -0.794757
      97A     -0.746711    98A     -0.744943    99A     -0.733503
     100A     -0.733486   101A     -0.732261   102A     -0.732240
     103A     -0.716578   104A     -0.699049   105A     -0.699048
     106A     -0.693665   107A     -0.693657   108A     -0.661309
     109A     -0.653189   110A     -0.651240   111A     -0.650330
     112A     -0.650325   113A     -0.639442   114A     -0.639437
     115A     -0.629797   116A     -0.627611   117A     -0.627586
     118A     -0.606495   119A     -0.605875   120A     -0.601747
     121A     -0.599812   122A     -0.599792   123A     -0.593721
     124A     -0.591303   125A     -0.591296   126A     -0.585350
     127A     -0.576445   128A     -0.576370   129A     -0.567399
     130A     -0.567386   131A     -0.566040   132A     -0.566016
     133A     -0.558806   134A     -0.554923   135A     -0.554919
     136A     -0.538673   137A     -0.538669   138A     -0.538233
     139A     -0.538233   140A     -0.529798   141A     -0.528210
     142A     -0.522950   143A     -0.522947   144A     -0.500582
     145A     -0.495659   146A     -0.493314   147A     -0.487888
     148A     -0.485157   149A     -0.481839   150A     -0.481831
     151A     -0.470421   152A     -0.470361   153A     -0.451110
     154A     -0.451027   155A     -0.439128   156A     -0.439120
     157A     -0.404805   158A     -0.404779   159A     -0.403436
     160A     -0.375480   161A     -0.375479   162A     -0.349182
     163A     -0.337648   164A     -0.336632   165A     -0.336546
     166A     -0.311153   167A     -0.298157   168A     -0.284401
     169A     -0.284359   170A     -0.224984   171A     -0.224909

  @DF-RHF Final Energy: -2055.89269338565418

   => Energetics <=

    Nuclear Repulsion Energy =           6452.5568002797781446
    One-Electron Energy =              -15636.4579843238880130
    Two-Electron Energy =                7128.0084906584552300
    Total Energy =                      -2055.8926933856537289
 Dipole X            :          0.0000690            0.0000112            0.0000802
 Dipole Y            :          0.0001960           -0.0000531            0.0001428
 Dipole Z            :        388.2202406         -388.2256487           -0.0054081
 Magnitude           :                                                    0.0054106

    SAPT Results
  --------------------------------------------------------------------------------------------------------
    Electrostatics                 10.75331591 [mEh]       6.74780761 [kcal/mol]      28.23282702 [kJ/mol]
      Elst10,r                     10.75331591 [mEh]       6.74780761 [kcal/mol]      28.23282702 [kJ/mol]

    Exchange                        0.05736644 [mEh]       0.03599799 [kcal/mol]       0.15061558 [kJ/mol]
      Exch10                        0.05736644 [mEh]       0.03599799 [kcal/mol]       0.15061558 [kJ/mol]
      Exch10(S^2)                   0.05736766 [mEh]       0.03599875 [kcal/mol]       0.15061877 [kJ/mol]

    Induction                      -5.85520465 [mEh]      -3.67419639 [kcal/mol]     -15.37283768 [kJ/mol]
      Ind20,r                      -5.92871412 [mEh]      -3.72032428 [kcal/mol]     -15.56583678 [kJ/mol]
      Exch-Ind20,r                  0.01382009 [mEh]       0.00867224 [kcal/mol]       0.03628465 [kJ/mol]
      delta HF,r (2)                0.05968938 [mEh]       0.03745565 [kcal/mol]       0.15671445 [kJ/mol]

    Dispersion                     -1.83745877 [mEh]      -1.15302279 [kcal/mol]      -4.82424734 [kJ/mol]
      Disp20                       -1.85674314 [mEh]      -1.16512391 [kcal/mol]      -4.87487844 [kJ/mol]
      Exch-Disp20                   0.01928437 [mEh]       0.01210112 [kcal/mol]       0.05063110 [kJ/mol]
      Disp20 (SS)                  -0.92837157 [mEh]      -0.58256196 [kcal/mol]      -2.43743922 [kJ/mol]
      Disp20 (OS)                  -0.92837157 [mEh]      -0.58256196 [kcal/mol]      -2.43743922 [kJ/mol]
      Exch-Disp20 (SS)              0.01365128 [mEh]       0.00856631 [kcal/mol]       0.03584143 [kJ/mol]
      Exch-Disp20 (OS)              0.00563309 [mEh]       0.00353482 [kcal/mol]       0.01478967 [kJ/mol]

  Total HF                          4.95547770 [mEh]       3.10960921 [kcal/mol]      13.01060492 [kJ/mol]
  Total SAPT0                       3.11801893 [mEh]       1.95658642 [kcal/mol]       8.18635757 [kJ/mol]

  Special recipe for scaled SAPT0 (see Manual):
    Electrostatics sSAPT0          10.75331591 [mEh]       6.74780761 [kcal/mol]      28.23282702 [kJ/mol]
    Exchange sSAPT0                 0.05736644 [mEh]       0.03599799 [kcal/mol]       0.15061558 [kJ/mol]
    Induction sSAPT0               -5.85520553 [mEh]      -3.67419694 [kcal/mol]     -15.37283999 [kJ/mol]
    Dispersion sSAPT0              -1.83746000 [mEh]      -1.15302356 [kcal/mol]      -4.82425056 [kJ/mol]
  Total sSAPT0                      3.11801682 [mEh]       1.95658510 [kcal/mol]       8.18635205 [kJ/mol]
  --------------------------------------------------------------------------------------------------------

*** Psi4 exiting successfully. Buy a developer a beer!
