                               Psi4 1.9 release

  ==> Input File <==

--------------------------------------------------------------------------
memory 32 GB # how much memory is available ! Depends on the nodes/cores !

molecule dimer {
# monomer A
-1 1    # Charge and multiplicity
B -0.000046  0.000337 3.199994
F -1.153597  0.000048 4.015641
F  1.153661 -0.000581 4.015641
F -0.000019 -1.153637 2.384360
F -0.000019  1.153978 2.384360
--
# monomer B
0 1     # Charge and multiplicity
C   1.22531237526482      0.70753866091955      0.00613762728373
C   1.22532433589282     -0.70753852257020     -0.00619318228664
C   -0.00000567409046      1.41496628609039     -0.00672680580738
C   2.45644923379077      1.41832825917820      0.00902448468363
C   0.00001130712078     -1.41497612663474      0.00347275151708
C   -1.22530046906674      0.70754574598412      0.00838914760619
C   2.45643823516184     -1.41832293188077     -0.00843833914343
C   -0.00000085313587      2.83680140328112     -0.00913035594137
C   3.68182717731192      0.70931832800114     -0.00808954934571
C   2.45512052870677      2.83422403348893     -0.00819210630633
C   3.68182158506039     -0.70933346742900      0.00798293467272
C   -1.22531311884624     -0.70752714354401     -0.00512042085974
C   1.22670006104402      3.54346985599427      0.00816696660346
C   0.00000526469929     -2.83678176723568      0.00832091913869
C   -2.45643555300670      1.41831729028492      0.00842454345199
C   2.45512389762097     -2.83422965658853      0.00783102630520
C   -1.22671388474763      3.54346943575023      0.00827029982280
C   4.91451777504333      1.42717324448953     -0.00160886631602
C   3.69315067131765      3.54279566454522     -0.00155906667985
C   -2.45643712022637     -1.41831290883911     -0.00846337726810
C   1.22670532178455     -3.54347386990643     -0.00780316414624
C   -2.45512491866593      2.83421703463423     -0.00818572995999
C   4.91452486062398     -1.42718653794377      0.00136387641845
C   1.22142509354026      4.97013443726031      0.00150231067809
C   4.89300870916237      2.82518837202648     -0.00039219795739
C   -1.22669652864725     -3.54347062507680     -0.00753595973677
C   -3.68181849668397      0.70932533873199     -0.00807686886569
C   3.69314758099218     -3.54280096939050      0.00148176697923
C   -1.22143177215231      4.97012866986289      0.00168580605083
C   6.13477145276790      0.68054831910577     -0.00083909176631
C   3.65678936045204      4.97295361556775     -0.00065042889723
C   -2.45512642789169     -2.83421472106065      0.00758666850712
C   -3.68181869921921     -0.70932533146830      0.00810055625144
C   4.89301309775526     -2.82519973363176      0.00021895393805
C   -0.00000059327114      5.65044773803267      0.00045449734393
C   6.13477559217374     -0.68055448207492      0.00042622874941
C   2.47813196269732      5.65357712333155      0.00063835075260
C   1.22142288457925     -4.97012668293268     -0.00129718634452
C   -3.69316190412301      3.54279732619245     -0.00139355922051
C   -1.22142804110313     -4.97011793159564     -0.00140994817719
C   -4.91452132810043      1.42717581899491     -0.00153192130862
C   3.65678749952045     -4.97295485423912      0.00080007163680
C   -2.47813805026426      5.65357479452875      0.00092287576113
C   -3.69314125872231     -3.54278984697859      0.00136564082345
C   -4.91451200321153     -1.42718062802730      0.00139857359209
C   -0.00000552908399     -5.65043791501335      0.00005899322272
C   -4.89302000425900      2.82518897091939     -0.00040227981744
C   2.47812647313991     -5.65357317188818     -0.00029052915548
C   -3.65679823041642      4.97295655404175     -0.00047374852278
C   -4.89299899901461     -2.82519139505969      0.00006491824035
C   -2.47812801824129     -5.65356579800621     -0.00056571680280
C   -6.13477002348955      0.68054913825639     -0.00086464346868
C   -3.65678835334731     -4.97294365097028      0.00058578382008
C   -6.13476456307132     -0.68055354348201      0.00040575295444
H   5.83528897565761      3.36927626695423      0.00396712770529
H   7.07385965258860      1.22821762089947     -0.00037744837300
H   4.60066374401555      5.51238117445323     -0.00014522814529
H   5.83528386714679     -3.36930568472863     -0.00423551337640
H   -0.00001167146422      6.73853104613662     -0.00389474766392
H   7.07386165167227     -1.22822657074368     -0.00008250934481
H   2.47331421164041      6.74068466339473      0.00017162982210
H   4.60066897122302     -5.51237575717576      0.00039007446835
H   -2.47331820069565      6.74068209160650      0.00047297644710
H   -0.00000978838621     -6.73852780445195      0.00458867820736
H   -5.83530143450167      3.36927132229595      0.00410314985360
H   2.47330840367253     -6.74068500242887      0.00027980126949
H   -4.60067436136587      5.51237839860371      0.00002010017831
H   -5.83527902699321     -3.36928859177951     -0.00451481925734
H   -2.47329986759855     -6.74067870613986     -0.00016951527498
H   -7.07385728692578      1.22822084484047     -0.00046143985387
H   -4.60067330624313     -5.51236229778631      0.00021776644566
H   -7.07385645456741     -1.22822025997701     -0.00017736581114

    units angstrom      # Angstroms are the default
    no_reorient         # Geometry fixed, default
    symmetry c1         # C1 symmetry, default
}

set {
    scf_type DF         # Density fitting, faster than exact integrals
    freeze_core True    # Freeze core electrons
    basis jun-cc-pVDZ   # Jun-cc-pVDZ basis set, recommended for sSAPT0 in https://doi.org/10.1063/1.4867135
}

energy('ssapt0')        # Compute sSAPT0 energy, includes also SAPT0
--------------------------------------------------------------------------

  //              Dimer HF             //
    Molecular point group: c1
  Charge       = -1
  Multiplicity = 1
  Basis Set: JUN-CC-PVDZ
    Blend: JUN-CC-PVDZ
  Basis Set: (JUN-CC-PVDZ AUX)
    Blend: JUN-CC-PVDZ-JKFIT
  @DF-RHF Final Energy: -2478.63971300870708
    Total Energy =                      -2478.6397130087061669
 Dipole X            :         -0.0001902           -0.0000160           -0.0002062
 Dipole Y            :         -0.0000187           -0.0001716           -0.0001904
 Dipole Z            :         15.8493179          -19.6168928           -3.7675749
 Magnitude           :                                                    3.7675749
  //            Monomer A HF           //
    Molecular point group: c1
  Multiplicity = 1
  Basis Set: JUN-CC-PVDZ
    Blend: JUN-CC-PVDZ
  Basis Set: (JUN-CC-PVDZ AUX)
    Blend: JUN-CC-PVDZ-JKFIT
  @DF-RHF Final Energy:  -422.77443966008411
    Total Energy =                       -422.7744396600841128
  //            Monomer B HF           //
    Molecular point group: c1

    Geometry (in Angstrom), charge = 0, multiplicity = 1:

       Center              X                  Y                   Z               Mass
    ------------   -----------------  -----------------  -----------------  -----------------
      Gh(B)          -0.000046449334     0.000336519434     2.830333328968    11.009305360000
      Gh(F)          -1.153597449334     0.000047519434     3.645980328968    18.998403162730
      Gh(F)           1.153660550666    -0.000581480566     3.645980328968    18.998403162730
      Gh(F)          -0.000019449334    -1.153637480566     2.014699328968    18.998403162730
      Gh(F)          -0.000019449334     1.153977519434     2.014699328968    18.998403162730
         C            1.225311925931     0.707538180353    -0.363523043748    12.000000000000
         C            1.225323886559    -0.707539003137    -0.375853853318    12.000000000000
         C           -0.000006123424     1.414965805524    -0.376387476839    12.000000000000
         C            2.456448784457     1.418327778612    -0.360636186348    12.000000000000
         C            0.000010857787    -1.414976607201    -0.366187919515    12.000000000000
         C           -1.225300918401     0.707545265418    -0.361271523425    12.000000000000
         C            2.456437785828    -1.418323412447    -0.378099010175    12.000000000000
         C           -0.000001302470     2.836800922715    -0.378791026973    12.000000000000
         C            3.681826727978     0.709317847435    -0.377750220377    12.000000000000
         C            2.455120079373     2.834223552923    -0.377852777338    12.000000000000
         C            3.681821135726    -0.709333947995    -0.361677736359    12.000000000000
         C           -1.225313568180    -0.707527624110    -0.374781091891    12.000000000000
         C            1.226699611710     3.543469375428    -0.361493704428    12.000000000000
         C            0.000004815365    -2.836782247802    -0.361339751893    12.000000000000
         C           -2.456436002341     1.418316809719    -0.361236127580    12.000000000000
         C            2.455123448287    -2.834230137155    -0.361829644726    12.000000000000
         C           -1.226714334082     3.543468955184    -0.361390371209    12.000000000000
         C            4.914517325709     1.427172763923    -0.371269537348    12.000000000000
         C            3.693150221984     3.542795183979    -0.371219737711    12.000000000000
         C           -2.456437569560    -1.418313389406    -0.378124048300    12.000000000000
         C            1.226704872451    -3.543474350473    -0.377463835178    12.000000000000
         C           -2.455125368000     2.834216554068    -0.377846400992    12.000000000000
         C            4.914524411290    -1.427187018510    -0.368296794613    12.000000000000
         C            1.221424644206     4.970133956694    -0.368158360354    12.000000000000
         C            4.893008259828     2.825187891460    -0.370052868989    12.000000000000
         C           -1.226696977981    -3.543471105643    -0.377196630768    12.000000000000
         C           -3.681818946018     0.709324858166    -0.377737539897    12.000000000000
         C            3.693147131658    -3.542801449957    -0.368178904052    12.000000000000
         C           -1.221432221486     4.970128189296    -0.367974864981    12.000000000000
         C            6.134771003434     0.680547838539    -0.370499762798    12.000000000000
         C            3.656788911118     4.972953135001    -0.370311099929    12.000000000000
         C           -2.455126877226    -2.834215201627    -0.362074002525    12.000000000000
         C           -3.681819148553    -0.709325812035    -0.361560114780    12.000000000000
         C            4.893012648421    -2.825200214198    -0.369441717094    12.000000000000
         C           -0.000001042605     5.650447257466    -0.369206173688    12.000000000000
         C            6.134775142840    -0.680554962641    -0.369234442282    12.000000000000
         C            2.478131513363     5.653576642765    -0.369022320279    12.000000000000
         C            1.221422435245    -4.970127163499    -0.370957857376    12.000000000000
         C           -3.693162353457     3.542796845626    -0.371054230252    12.000000000000
         C           -1.221428490437    -4.970118412162    -0.371070619209    12.000000000000
         C           -4.914521777434     1.427175338429    -0.371192592340    12.000000000000
         C            3.656787050187    -4.972955334806    -0.368860599395    12.000000000000
         C           -2.478138499598     5.653574313962    -0.368737795271    12.000000000000
         C           -3.693141708056    -3.542790327545    -0.368295030208    12.000000000000
         C           -4.914512452545    -1.427181108594    -0.368262097440    12.000000000000
         C           -0.000005978418    -5.650438395580    -0.369601677809    12.000000000000
         C           -4.893020453593     2.825188490353    -0.370062950849    12.000000000000
         C            2.478126023806    -5.653573652455    -0.369951200187    12.000000000000
         C           -3.656798679750     4.972956073475    -0.370134419554    12.000000000000
         C           -4.892999448349    -2.825191875626    -0.369595752791    12.000000000000
         C           -2.478128467575    -5.653566278573    -0.370226387834    12.000000000000
         C           -6.134770472823     0.680548657690    -0.370525314500    12.000000000000
         C           -3.656788802681    -4.972944131537    -0.369074887212    12.000000000000
         C           -6.134765012405    -0.680554024048    -0.369254918077    12.000000000000
         H            5.835288526324     3.369275786388    -0.365693543326     1.007825032230
         H            7.073859203255     1.228217140333    -0.370038119405     1.007825032230
         H            4.600663294682     5.512380693887    -0.369805899177     1.007825032230
         H            5.835283417813    -3.369306165295    -0.373896184408     1.007825032230
         H           -0.000012120798     6.738530565570    -0.373555418696     1.007825032230
         H            7.073861202338    -1.228227051310    -0.369743180376     1.007825032230
         H            2.473313762307     6.740684182828    -0.369489041210     1.007825032230
         H            4.600668521889    -5.512376237742    -0.369270596563     1.007825032230
         H           -2.473318650030     6.740681611040    -0.369187694585     1.007825032230
         H           -0.000010237720    -6.738528285018    -0.365071992824     1.007825032230
         H           -5.835301883836     3.369270841730    -0.365557521178     1.007825032230
         H            2.473307954339    -6.740685482995    -0.369380869762     1.007825032230
         H           -4.600674810700     5.512377918037    -0.369640570853     1.007825032230
         H           -5.835279476327    -3.369289072346    -0.374175490289     1.007825032230
         H           -2.473300316932    -6.740679186706    -0.369830186307     1.007825032230
         H           -7.073857736260     1.228220364274    -0.370122110886     1.007825032230
         H           -4.600673755577    -5.512362778353    -0.369442904586     1.007825032230
         H           -7.073856903901    -1.228220740543    -0.369838036843     1.007825032230

  Charge       = 0
  Multiplicity = 1
  Basis Set: JUN-CC-PVDZ
    Blend: JUN-CC-PVDZ
  Basis Set: (JUN-CC-PVDZ AUX)
    Blend: JUN-CC-PVDZ-JKFIT

    Orbital Energies [Eh]
    ---------------------

    Doubly Occupied:

       1A    -11.260704     2A    -11.260313     3A    -11.260180
       4A    -11.259511     5A    -11.259425     6A    -11.259266
       7A    -11.259025     8A    -11.258974     9A    -11.258929
      10A    -11.258663    11A    -11.258616    12A    -11.258518
      13A    -11.258465    14A    -11.258462    15A    -11.258460
      16A    -11.258422    17A    -11.258421    18A    -11.258401
      19A    -11.258400    20A    -11.258396    21A    -11.258382
      22A    -11.258345    23A    -11.258307    24A    -11.258099
      25A    -11.257300    26A    -11.257240    27A    -11.257240
      28A    -11.257113    29A    -11.257102    30A    -11.257025
      31A    -11.256392    32A    -11.256324    33A    -11.256321
      34A    -11.256219    35A    -11.256211    36A    -11.256168
      37A    -11.252285    38A    -11.252284    39A    -11.252282
      40A    -11.252280    41A    -11.252280    42A    -11.252277
      43A    -11.251379    44A    -11.251377    45A    -11.251372
      46A    -11.251370    47A    -11.251357    48A    -11.251355
      49A    -11.250847    50A    -11.250845    51A    -11.250843
      52A    -11.250841    53A    -11.250840    54A    -11.250838
      55A     -1.243998    56A     -1.219783    57A     -1.219768
      58A     -1.189519    59A     -1.189510    60A     -1.180889
      61A     -1.157550    62A     -1.148956    63A     -1.135439
      64A     -1.135432    65A     -1.113182    66A     -1.113174
      67A     -1.082389    68A     -1.082387    69A     -1.078557
      70A     -1.065972    71A     -1.065969    72A     -1.039380
      73A     -1.024220    74A     -1.021704    75A     -1.021670
      76A     -1.017722    77A     -1.012789    78A     -0.986985
      79A     -0.986935    80A     -0.961862    81A     -0.961815
      82A     -0.894276    83A     -0.894250    84A     -0.887879
      85A     -0.886127    86A     -0.886066    87A     -0.881359
      88A     -0.881315    89A     -0.861881    90A     -0.837413
      91A     -0.818187    92A     -0.816559    93A     -0.812101
      94A     -0.812090    95A     -0.794674    96A     -0.794666
      97A     -0.746583    98A     -0.744817    99A     -0.733362
     100A     -0.733356   101A     -0.732166   102A     -0.732143
     103A     -0.716459   104A     -0.698954   105A     -0.698948
     106A     -0.693553   107A     -0.693542   108A     -0.661212
     109A     -0.653045   110A     -0.651099   111A     -0.650240
     112A     -0.650237   113A     -0.639347   114A     -0.639345
     115A     -0.629678   116A     -0.627489   117A     -0.627465
     118A     -0.606467   119A     -0.605815   120A     -0.601624
     121A     -0.599710   122A     -0.599686   123A     -0.593611
     124A     -0.591151   125A     -0.591148   126A     -0.585277
     127A     -0.576396   128A     -0.576359   129A     -0.567317
     130A     -0.567303   131A     -0.565910   132A     -0.565887
     133A     -0.558672   134A     -0.554823   135A     -0.554818
     136A     -0.538581   137A     -0.538577   138A     -0.538175
     139A     -0.538169   140A     -0.529697   141A     -0.528189
     142A     -0.522848   143A     -0.522843   144A     -0.500490
     145A     -0.495591   146A     -0.493219   147A     -0.487825
     148A     -0.485043   149A     -0.481727   150A     -0.481719
     151A     -0.470376   152A     -0.470313   153A     -0.450964
     154A     -0.450882   155A     -0.439069   156A     -0.439054
     157A     -0.404728   158A     -0.404687   159A     -0.403356
     160A     -0.375424   161A     -0.375416   162A     -0.349128
     163A     -0.337546   164A     -0.336540   165A     -0.336479
     166A     -0.311060   167A     -0.298114   168A     -0.284301
     169A     -0.284246   170A     -0.224890   171A     -0.224826

  @DF-RHF Final Energy: -2055.89407159275015

   => Energetics <=

    Nuclear Repulsion Energy =           6452.5568002797781446
    One-Electron Energy =              -15636.4901017987722298
    Two-Electron Energy =                7128.0392299262448432
    Total Energy =                      -2055.8940715927501515
 Dipole X            :          0.0000567            0.0000112            0.0000679
 Dipole Y            :          0.0002348           -0.0000531            0.0001817
 Dipole Z            :        238.9086876         -238.9080832            0.0006044
 Magnitude           :                                                    0.0006347

    SAPT Results
  --------------------------------------------------------------------------------------------------------
    Electrostatics                -16.09995518 [mEh]     -10.10287441 [kcal/mol]     -42.27042651 [kJ/mol]
      Elst10,r                    -16.09995518 [mEh]     -10.10287441 [kcal/mol]     -42.27042651 [kJ/mol]

    Exchange                       70.27526021 [mEh]      44.09839155 [kcal/mol]     184.50767026 [kJ/mol]
      Exch10                       70.27526021 [mEh]      44.09839155 [kcal/mol]     184.50767026 [kJ/mol]
      Exch10(S^2)                  69.49091595 [mEh]      43.60620810 [kcal/mol]     182.44837468 [kJ/mol]

    Induction                     -25.37706090 [mEh]     -15.92434613 [kcal/mol]     -66.62746421 [kJ/mol]
      Ind20,r                     -50.00694912 [mEh]     -31.37983433 [kcal/mol]    -131.29322682 [kJ/mol]
      Exch-Ind20,r                 29.75071586 [mEh]      18.66885605 [kcal/mol]      78.11049372 [kJ/mol]
      delta HF,r (2)               -5.12082764 [mEh]      -3.21336786 [kcal/mol]     -13.44473111 [kJ/mol]

    Dispersion                    -20.90298347 [mEh]     -13.11682016 [kcal/mol]     -54.88077554 [kJ/mol]
      Disp20                      -27.50318852 [mEh]     -17.25851136 [kcal/mol]     -72.20961151 [kJ/mol]
      Exch-Disp20                   6.60020505 [mEh]       4.14169120 [kcal/mol]      17.32883597 [kJ/mol]
      Disp20 (SS)                 -13.75159426 [mEh]      -8.62925568 [kcal/mol]     -36.10480576 [kJ/mol]
      Disp20 (OS)                 -13.75159426 [mEh]      -8.62925568 [kcal/mol]     -36.10480576 [kJ/mol]
      Exch-Disp20 (SS)              3.57612047 [mEh]       2.24404948 [kcal/mol]       9.38910301 [kJ/mol]
      Exch-Disp20 (OS)              3.02408458 [mEh]       1.89764172 [kcal/mol]       7.93973297 [kJ/mol]

  Total HF                         28.79824413 [mEh]      18.07117102 [kcal/mol]      75.60977954 [kJ/mol]
  Total SAPT0                       7.89526066 [mEh]       4.95435086 [kcal/mol]      20.72900400 [kJ/mol]

  Special recipe for scaled SAPT0 (see Manual):
    Electrostatics sSAPT0         -16.09995518 [mEh]     -10.10287441 [kcal/mol]     -42.27042651 [kJ/mol]
    Exchange sSAPT0                70.27526021 [mEh]      44.09839155 [kcal/mol]     184.50767026 [kJ/mol]
    Induction sSAPT0              -24.35825834 [mEh]     -15.28503788 [kcal/mol]     -63.95259847 [kJ/mol]
    Dispersion sSAPT0             -20.67696182 [mEh]     -12.97498943 [kcal/mol]     -54.28735579 [kJ/mol]
  Total sSAPT0                      9.14008486 [mEh]       5.73548984 [kcal/mol]      23.99728949 [kJ/mol]
  --------------------------------------------------------------------------------------------------------

*** Psi4 exiting successfully. Buy a developer a beer!
