                               Psi4 1.9 release

  ==> Input File <==

--------------------------------------------------------------------------
memory 80 GB # how much memory is available ! Depends on the nodes/cores !

molecule dimer {
# monomer A
+1 1    # Charge and multiplicity
C  0.680067 -1.215929 2.708042
C -0.680504 -1.215545 2.706014
N -1.085635  0.102779 2.705016
C  0.000108  0.884180 2.701740
C -2.477365  0.570758 2.655610
N  1.085222  0.102779 2.705016
H  1.385146 -2.033368 2.715870
H -1.385302 -2.033214 2.706204
H -0.000009  1.965269 2.699993
C  2.478117  0.567877 2.721908
H  2.490592  1.658130 2.694563
H  2.967028  0.220701 3.635354
H  3.001428  0.176405 1.846425
H -2.857359  0.490799 1.633539
H -3.082679 -0.042306 3.325694
H -2.518128  1.610706 2.982594
--
# monomer B
0 1     # Charge and multiplicity
C   -3.66844126402057      7.80375217008252      0.00190004133558
C   -4.84759871934653      7.13124183134024     -0.00046653359696
C   -4.89495929917518      5.69633040353158     -0.00103944469517
C   -3.65374067877320      4.98073034095895      0.00662099703436
C   -2.40942512149445      7.11398103667468      0.00209438359570
C   -2.42547734410473      5.68112195090346     -0.00491050527438
C   -1.19474401643570      7.78614419430947      0.00356656413763
C   0.03795902893699      7.09942164575698      0.00139585983271
C   0.03033258741920      5.66948955970466     -0.00408752508301
C   -1.20098450790502      4.96927034791531      0.00488220885047
C   1.27795782581485      7.77285944319479      0.00277170839332
C   2.48535808472416      7.08769688523756      0.00049722048857
C   2.48612868491717      5.65477081024076     -0.00644052849921
C   1.25408291964399      4.95607811366431      0.00518741308898
C   3.75171459140595      7.76391215098033      0.00062407186893
C   4.92356605618520      7.07878077698995     -0.00143240883900
C   4.95560727132542      5.64344746336949     -0.00159282164606
C   3.70680153420475      4.94121020833308      0.00349873852374
H   -3.65852113775815      8.89082741913536      0.00358502958574
H   -1.18921332975660      8.87412108735996      0.00753844057883
H   1.28429423888630      8.86083343548850      0.00693053253426
H   3.75354208679975      8.85103527897216      0.00214659618464
H   5.86995870320703      7.61379483465560     -0.00235777588134
H   -5.78823170750226      7.67630221293400     -0.00202638095293
C   -6.09197395869619      4.99326001364347     -0.00291168518608
C   -6.12866148031747      3.58258016879823     -0.00171050815740
C   -3.66457974004527      3.56418217974434     -0.00463560277484
C   -4.89429820469869      2.86108077590057      0.00453338221034
C   -2.43733499489796      2.84761165708481      0.00719617576166
C   -1.20922785759670      3.54788693497833     -0.00648285103018
C   1.24714157216223      3.53468075142962     -0.00729145743546
C   0.01517603956900      2.83311183930540      0.00439272578912
C   2.46764517244071      2.82128997725533      0.00449278391269
C   3.70254947457969      3.52466015442405     -0.00899517692985
C   6.14498038638375      4.92757236613191     -0.00282626685777
C   6.16658835886151      3.51658447594213     -0.00065971342101
C   4.92460995845939      2.80840792535402      0.00587903281610
H   7.08990550964105      5.46688776622306     -0.00658814770723
H   -7.03104175110130      5.54268795285765     -0.00714490013730
C   -7.33969804112295      2.85841153457957     -0.00333767559888
C   -7.36488195805880      1.47032337158330     -0.00157213747140
C   -4.90350460894690      1.44442681216000     -0.00628840166334
C   -6.13225715261081      0.73993935705394      0.00600164231964
C   -3.67687480051673      0.72669714267312      0.00433931473643
C   -2.44565658606518      1.42964113326212     -0.00597039546461
C   -1.22360068130162      0.71532450163492      0.00545886906656
C   0.00763786931376      1.41738314923765      0.00392452278437
C   1.23121980774686      0.70211669058719     -0.01490206287210
C   2.46082110053113      1.40329203612573      0.00460244601878
C   3.68443025419614      0.68719842821222      0.00377365974158
C   4.91870890153864      1.39173456118907     -0.00862816189375
C   7.36980207796101      2.77948220318441     -0.00242013321349
C   7.38016266612146      1.39121750785509     -0.00087345036788
C   6.13979953912259      0.67411862320065      0.00545489144369
H   -8.27919079934664      3.40711804112415     -0.00763522772059
H   8.31511347147953      3.31811809662368     -0.00663070901292
C   -8.59175593758115      0.72483255304480     -0.00123170985383
C   -8.59902460370342     -0.63263980622873      0.00089141472904
C   -6.13981313911873     -0.67413663715361     -0.00609792660607
C   -7.38018411213749     -1.39126618958160      0.00131813493501
C   -4.91868448025621     -1.39175501803000      0.00624257154343
C   -3.68443829568458     -0.68723731573599     -0.00478966852105
C   -2.46081704024768     -1.40334517882457      0.00575341766833
C   -1.23116201232071     -0.70217386488055     -0.00636696112346
C   -0.00756962538737     -1.41741884941102      0.00108956317991
C   1.22364771588843     -0.71527537726392      0.01109518512883
C   2.44567064933149     -1.42964328900682     -0.00065482763106
C   3.67686670284649     -0.72670743155550     -0.00479541202602
C   6.13224884641929     -0.73997883984993     -0.00632338623858
C   4.90351914550401     -1.44445752054090      0.00751768830159
C   8.59901484869081      0.63260386666793     -0.00101133422380
C   8.59174548810050     -0.72485086719319      0.00072504603735
C   7.36486276438985     -1.47033266560598      0.00049486934466
H   -9.52830597181814      1.27684744919284     -0.00270163681798
H   9.54141097460619      1.17457248844457     -0.00206336648518
C   -7.36983790976868     -2.77954514593389      0.00312634335708
C   -4.92459910905015     -2.80843725734101     -0.00460528907921
C   -6.16662249566744     -3.51665219282533      0.00169655107992
C   -3.70251035970491     -3.52468154912026      0.00571878010666
C   -2.46764698511392     -2.82132596280400     -0.00632585824990
C   -0.01513347410770     -2.83314164539971     -0.00604426974092
C   -1.24712184122656     -3.53473217556300      0.00551968366725
C   1.20924506964357     -3.54791467864352      0.00805871345849
C   2.43733602215464     -2.84764173817541     -0.00608104485234
C   4.89430234377080     -2.86112296828604     -0.00526030478103
C   3.66461525504104     -3.56421984553201      0.00761911515957
C   6.12863901474565     -3.58258405771778      0.00096495711699
C   7.33967266469532     -2.85841330737039      0.00248018319869
H   -9.54144911125902     -1.17456346666430      0.00226083090216
H   9.52826186807155     -1.27691907390448      0.00197485379837
H   -8.31516504384864     -3.31814985321231      0.00729857188773
H   8.27915514249207     -3.40714078989363      0.00681973918158
C   -6.14499418870218     -4.92764727278338      0.00302254913999
C   -3.70678334799751     -4.94126171411716     -0.00679841894792
C   -4.95559005800169     -5.64349397349412      0.00116871569699
C   -2.48612132622665     -5.65478557440947      0.00614125209662
C   -1.25405833548005     -4.95612205000132     -0.00503435388927
C   1.20101257386816     -4.96928038819302     -0.00385322963129
C   -0.03033667441341     -5.66952030313900      0.00398997003238
C   3.65375010132847     -4.98074377541453     -0.00309522988330
C   2.42549269587528     -5.68117463552727      0.00628170066869
C   6.09196561781097     -4.99325796338655      0.00325918379042
C   4.89497644461045     -5.69634842095790      0.00202298796027
H   -7.08989238804069     -5.46699984223871      0.00742531082125
H   7.03105520920009     -5.54265853633254      0.00683896355417
C   -4.92354532219813     -7.07882109967734      0.00061394679214
C   -2.48534208823777     -7.08772807792913     -0.00189594564379
C   -3.75168589177895     -7.76394715763627     -0.00170126671874
C   -0.03794895698805     -7.09946487446944     -0.00168022049625
C   -1.27795610040136     -7.77290438466689     -0.00366491325785
C   2.40944432072629     -7.11402201200282     -0.00081701968533
C   1.19474993715296     -7.78618536556242     -0.00296931056689
C   4.84762105249800     -7.13126211057943      0.00168979497423
C   3.66847160587561     -7.80378799294376     -0.00065863938960
H   -5.86994035041618     -7.61383059804164      0.00215798365757
H   5.78824962538815     -7.67633218931421      0.00281691445618
H   -3.75352693944918     -8.85107156923607     -0.00353718114765
H   -1.28430440589466     -8.86087539249706     -0.00809229711623
H   1.18922157469537     -8.87416062058945     -0.00706194725726
H   3.65854661482387     -8.89086063405326     -0.00231318081200

    units angstrom      # Angstroms are the default
    no_reorient         # Geometry fixed, default
    symmetry c1         # C1 symmetry, default
}

set {
    scf_type DF         # Density fitting, faster than exact integrals
    freeze_core True    # Freeze core electrons
    basis jun-cc-pVDZ   # Jun-cc-pVDZ basis set, recommended for sSAPT0 in https://doi.org/10.1063/1.4867135
}

energy('ssapt0')        # Compute sSAPT0 energy, includes also SAPT0
--------------------------------------------------------------------------

  //              Dimer HF             //
    Molecular point group: c1
  Charge       = 1
  Multiplicity = 1
  Basis Set: JUN-CC-PVDZ
    Blend: JUN-CC-PVDZ
  Basis Set: (JUN-CC-PVDZ AUX)
    Blend: JUN-CC-PVDZ-JKFIT
  @DF-RHF Final Energy: -3953.55296734085277
    Total Energy =                      -3953.5529673408527742
 Dipole X            :         -0.0077953            0.0004804           -0.0073149
 Dipole Y            :         -1.6872898            1.8866171            0.1993273
 Dipole Z            :        -13.6209159           16.3411257            2.7202098
 Magnitude           :                                                    2.7275129
  //            Monomer A HF           //
    Molecular point group: c1
  Multiplicity = 1
  Basis Set: JUN-CC-PVDZ
    Blend: JUN-CC-PVDZ
  Basis Set: (JUN-CC-PVDZ AUX)
    Blend: JUN-CC-PVDZ-JKFIT
  @DF-RHF Final Energy:  -303.30051294843111
    Total Energy =                       -303.3005129484311055
  //            Monomer B HF           //
    Molecular point group: c1

    Geometry (in Angstrom), charge = 0, multiplicity = 1:

       Center              X                  Y                   Z               Mass
    ------------   -----------------  -----------------  -----------------  -----------------
      Gh(C)           0.680062820275    -1.215917226251     2.502184744868    12.000000000000
      Gh(C)          -0.680508179725    -1.215533226251     2.500156744868    12.000000000000
      Gh(N)          -1.085639179725     0.102790773749     2.499158744868    14.003074004430
      Gh(C)           0.000103820275     0.884191773749     2.495882744868    12.000000000000
      Gh(C)          -2.477369179725     0.570769773749     2.449752744868    12.000000000000
      Gh(N)           1.085217820275     0.102790773749     2.499158744868    14.003074004430
      Gh(H)           1.385141820275    -2.033356226251     2.510012744868     1.007825032230
      Gh(H)          -1.385306179725    -2.033202226251     2.500346744868     1.007825032230
      Gh(H)          -0.000013179725     1.965280773749     2.494135744868     1.007825032230
      Gh(C)           2.478112820275     0.567888773749     2.516050744868    12.000000000000
      Gh(H)           2.490587820275     1.658141773750     2.488705744868     1.007825032230
      Gh(H)           2.967023820275     0.220712773749     3.429496744868     1.007825032230
      Gh(H)           3.001423820275     0.176416773749     1.640567744868     1.007825032230
      Gh(H)          -2.857363179725     0.490810773749     1.427681744868     1.007825032230
      Gh(H)          -3.082683179725    -0.042294226251     3.119836744868     1.007825032230
      Gh(H)          -2.518132179725     1.610717773749     2.776736744868     1.007825032230
         C           -3.668445443746     7.803763943832    -0.203957213797    12.000000000000
         C           -4.847602899072     7.131253605090    -0.206323788729    12.000000000000
         C           -4.894963478901     5.696342177281    -0.206896699827    12.000000000000
         C           -3.653744858499     4.980742114708    -0.199236258098    12.000000000000
         C           -2.409429301220     7.113992810424    -0.203762871537    12.000000000000
         C           -2.425481523830     5.681133724653    -0.210767760407    12.000000000000
         C           -1.194748196161     7.786155968059    -0.202290690995    12.000000000000
         C            0.037954849212     7.099433419506    -0.204461395300    12.000000000000
         C            0.030328407694     5.669501333454    -0.209944780215    12.000000000000
         C           -1.200988687630     4.969282121665    -0.200975046282    12.000000000000
         C            1.277953646089     7.772871216944    -0.203085546739    12.000000000000
         C            2.485353904999     7.087708658987    -0.205360034644    12.000000000000
         C            2.486124505192     5.654782583990    -0.212297783631    12.000000000000
         C            1.254078739919     4.956089887414    -0.200669842043    12.000000000000
         C            3.751710411681     7.763923924730    -0.205233183263    12.000000000000
         C            4.923561876460     7.078792550739    -0.207289663971    12.000000000000
         C            4.955603091600     5.643459237119    -0.207450076778    12.000000000000
         C            3.706797354479     4.941221982083    -0.202358516608    12.000000000000
         H           -3.658525317484     8.890839192885    -0.202272225546     1.007825032230
         H           -1.189217509482     8.874132861109    -0.198318814553     1.007825032230
         H            1.284290059161     8.860845209238    -0.198926722598     1.007825032230
         H            3.753537907074     8.851047052722    -0.203710658948     1.007825032230
         H            5.869954523482     7.613806608405    -0.208215031014     1.007825032230
         H           -5.788235887228     7.676313986684    -0.207883636085     1.007825032230
         C           -6.091978138422     4.993271787393    -0.208768940318    12.000000000000
         C           -6.128665660043     3.582591942548    -0.207567763290    12.000000000000
         C           -3.664583919771     3.564193953494    -0.210492857907    12.000000000000
         C           -4.894302384424     2.861092549650    -0.201323872922    12.000000000000
         C           -2.437339174623     2.847623430834    -0.198661079371    12.000000000000
         C           -1.209232037322     3.547898708728    -0.212340106162    12.000000000000
         C            1.247137392437     3.534692525179    -0.213148712568    12.000000000000
         C            0.015171859844     2.833123613055    -0.201464529343    12.000000000000
         C            2.467640992715     2.821301751005    -0.201364471220    12.000000000000
         C            3.702545294854     3.524671928174    -0.214852432062    12.000000000000
         C            6.144976206658     4.927584139881    -0.208683521990    12.000000000000
         C            6.166584179136     3.516596249692    -0.206516968553    12.000000000000
         C            4.924605778734     2.808419699104    -0.199978222316    12.000000000000
         H            7.089901329916     5.466899539973    -0.212445402839     1.007825032230
         H           -7.031045930827     5.542699726607    -0.213002155270     1.007825032230
         C           -7.339702220848     2.858423308329    -0.209194930731    12.000000000000
         C           -7.364886137784     1.470335145333    -0.207429392604    12.000000000000
         C           -4.903508788672     1.444438585909    -0.212145656796    12.000000000000
         C           -6.132261332336     0.739951130803    -0.199855612813    12.000000000000
         C           -3.676878980242     0.726708916423    -0.201517940396    12.000000000000
         C           -2.445660765791     1.429652907012    -0.211827650597    12.000000000000
         C           -1.223604861027     0.715336275384    -0.200398386066    12.000000000000
         C            0.007633689588     1.417394922987    -0.201932732348    12.000000000000
         C            1.231215628021     0.702128464337    -0.220759318004    12.000000000000
         C            2.460816920806     1.403303809875    -0.201254809113    12.000000000000
         C            3.684426074471     0.687210201962    -0.202083595391    12.000000000000
         C            4.918704721813     1.391746334939    -0.214485417026    12.000000000000
         C            7.369797898236     2.779493976934    -0.208277388346    12.000000000000
         C            7.380158486396     1.391229281605    -0.206730705500    12.000000000000
         C            6.139795359397     0.674130396950    -0.200402363689    12.000000000000
         H           -8.279194979072     3.407129814874    -0.213492482853     1.007825032230
         H            8.315109291754     3.318129870373    -0.212487964145     1.007825032230
         C           -8.591760117307     0.724844326794    -0.207088964986    12.000000000000
         C           -8.599028783429    -0.632628032479    -0.204965840403    12.000000000000
         C           -6.139817318844    -0.674124863404    -0.211955181738    12.000000000000
         C           -7.380188291863    -1.391254415832    -0.204539120197    12.000000000000
         C           -4.918688659982    -1.391743244281    -0.199614683589    12.000000000000
         C           -3.684442475410    -0.687225541986    -0.210646923653    12.000000000000
         C           -2.460821219973    -1.403333405075    -0.200103837464    12.000000000000
         C           -1.231166192046    -0.702162091131    -0.212224216256    12.000000000000
         C           -0.007573805113    -1.417407075662    -0.204767691952    12.000000000000
         C            1.223643536163    -0.715263603514    -0.194762070003    12.000000000000
         C            2.445666469606    -1.429631515257    -0.206512082763    12.000000000000
         C            3.676862523121    -0.726695657806    -0.210652667158    12.000000000000
         C            6.132244666694    -0.739967066100    -0.212180641371    12.000000000000
         C            4.903514965779    -1.444445746791    -0.198339566831    12.000000000000
         C            8.599010668965     0.632615640417    -0.206868589356    12.000000000000
         C            8.591741308375    -0.724839093444    -0.205132209095    12.000000000000
         C            7.364858584664    -1.470320891856    -0.205362385788    12.000000000000
         H           -9.528310151544     1.276859222942    -0.208558891950     1.007825032230
         H            9.541406794881     1.174584262194    -0.207920621617     1.007825032230
         C           -7.369842089494    -2.779533372184    -0.202730911775    12.000000000000
         C           -4.924603288776    -2.808425483592    -0.210462544211    12.000000000000
         C           -6.166626675393    -3.516640419076    -0.204160704052    12.000000000000
         C           -3.702514539430    -3.524669775371    -0.200138475026    12.000000000000
         C           -2.467651164839    -2.821314189055    -0.212183113382    12.000000000000
         C           -0.015137653833    -2.833129871650    -0.211901524873    12.000000000000
         C           -1.247126020952    -3.534720401814    -0.200337571465    12.000000000000
         C            1.209240889918    -3.547902904894    -0.197798541674    12.000000000000
         C            2.437331842429    -2.847629964426    -0.211938299985    12.000000000000
         C            4.894298164045    -2.861111194537    -0.211117559913    12.000000000000
         C            3.664611075316    -3.564208071783    -0.198238139973    12.000000000000
         C            6.128634835020    -3.582572283968    -0.204892298015    12.000000000000
         C            7.339668484970    -2.858401533621    -0.203377071934    12.000000000000
         H           -9.541453290984    -1.174551692915    -0.203596424230     1.007825032230
         H            9.528257688346    -1.276907300155    -0.203882401334     1.007825032230
         H           -8.315169223574    -3.318138079463    -0.198558683244     1.007825032230
         H            8.279150962767    -3.407129016144    -0.199037515951     1.007825032230
         C           -6.144998368428    -4.927635499034    -0.202834705992    12.000000000000
         C           -3.706787527723    -4.941249940368    -0.212655674080    12.000000000000
         C           -4.955594237727    -5.643482199745    -0.204688539435    12.000000000000
         C           -2.486125505952    -5.654773800660    -0.199716003036    12.000000000000
         C           -1.254062515205    -4.956110276252    -0.210891609021    12.000000000000
         C            1.201008394143    -4.969268614444    -0.209710484764    12.000000000000
         C           -0.030340854139    -5.669508529390    -0.201867285100    12.000000000000
         C            3.653745921603    -4.980732001665    -0.208952485016    12.000000000000
         C            2.425488516150    -5.681162861778    -0.199575554464    12.000000000000
         C            6.091961438086    -4.993246189637    -0.202598071342    12.000000000000
         C            4.894972264885    -5.696336647208    -0.203834267172    12.000000000000
         H           -7.089896567766    -5.466988068489    -0.198431944311     1.007825032230
         H            7.031051029475    -5.542646762583    -0.199018291578     1.007825032230
         C           -4.923549501924    -7.078809325928    -0.205243308340    12.000000000000
         C           -2.485346267963    -7.087716304180    -0.207753200776    12.000000000000
         C           -3.751690071504    -7.763935383887    -0.207558521851    12.000000000000
         C           -0.037953136713    -7.099453100720    -0.207537475628    12.000000000000
         C           -1.277960280127    -7.772892610917    -0.209522168390    12.000000000000
         C            2.409440141001    -7.114010238253    -0.206674274818    12.000000000000
         C            1.194745757428    -7.786173591813    -0.208826565699    12.000000000000
         C            4.847616872773    -7.131250336830    -0.204167460158    12.000000000000
         C            3.668467426150    -7.803776219194    -0.206515894522    12.000000000000
         H           -5.869944530142    -7.613818824292    -0.203699271475     1.007825032230
         H            5.788245445663    -7.676320415565    -0.203040340676     1.007825032230
         H           -3.753531119175    -8.851059795487    -0.209394436280     1.007825032230
         H           -1.284308585620    -8.860863618748    -0.213949552248     1.007825032230
         H            1.189217394970    -8.874148846840    -0.212919202389     1.007825032230
         H            3.658542435098    -8.890848860304    -0.208170435944     1.007825032230

  Charge       = 0
  Multiplicity = 1
  Basis Set: JUN-CC-PVDZ
    Blend: JUN-CC-PVDZ
  Basis Set: (JUN-CC-PVDZ AUX)
    Blend: JUN-CC-PVDZ-JKFIT

    Orbital Energies [Eh]
    ---------------------

    Doubly Occupied:

       1A    -11.264093     2A    -11.263737     3A    -11.263712
       4A    -11.263318     5A    -11.263295     6A    -11.263238
       7A    -11.263120     8A    -11.263106     9A    -11.263056
      10A    -11.262835    11A    -11.262731    12A    -11.262689
      13A    -11.262223    14A    -11.262214    15A    -11.262171
      16A    -11.262168    17A    -11.262030    18A    -11.262020
      19A    -11.261994    20A    -11.261930    21A    -11.261921
      22A    -11.261833    23A    -11.261831    24A    -11.261667
      25A    -11.261658    26A    -11.261628    27A    -11.261620
      28A    -11.261582    29A    -11.261572    30A    -11.261496
      31A    -11.261469    32A    -11.261448    33A    -11.261442
      34A    -11.261429    35A    -11.261419    36A    -11.261398
      37A    -11.261236    38A    -11.261226    39A    -11.261210
      40A    -11.261204    41A    -11.261193    42A    -11.261190
      43A    -11.261183    44A    -11.261165    45A    -11.261157
      46A    -11.261137    47A    -11.261123    48A    -11.261111
      49A    -11.260979    50A    -11.260956    51A    -11.260930
      52A    -11.260889    53A    -11.260881    54A    -11.260812
      55A    -11.259793    56A    -11.259767    57A    -11.259760
      58A    -11.259738    59A    -11.259724    60A    -11.259709
      61A    -11.259151    62A    -11.259123    63A    -11.259114
      64A    -11.259068    65A    -11.259060    66A    -11.259032
      67A    -11.258791    68A    -11.258764    69A    -11.258756
      70A    -11.258734    71A    -11.258722    72A    -11.258709
      73A    -11.254454    74A    -11.254446    75A    -11.254432
      76A    -11.254427    77A    -11.254426    78A    -11.254424
      79A    -11.253559    80A    -11.253536    81A    -11.253535
      82A    -11.253528    83A    -11.253525    84A    -11.253520
      85A    -11.253475    86A    -11.253447    87A    -11.253446
      88A    -11.253443    89A    -11.253440    90A    -11.253435
      91A    -11.252981    92A    -11.252973    93A    -11.252959
      94A    -11.252955    95A    -11.252954    96A    -11.252952
      97A     -1.253713    98A     -1.238801    99A     -1.238768
     100A     -1.220282   101A     -1.220267   102A     -1.215247
     103A     -1.200878   104A     -1.195431   105A     -1.187949
     106A     -1.187929   107A     -1.173608   108A     -1.173606
     109A     -1.155425   110A     -1.155419   111A     -1.152521
     112A     -1.144576   113A     -1.144574   114A     -1.128372
     115A     -1.114504   116A     -1.113019   117A     -1.112295
     118A     -1.112266   119A     -1.111479   120A     -1.088239
     121A     -1.088218   122A     -1.076822   123A     -1.076821
     124A     -1.067427   125A     -1.067386   126A     -1.064774
     127A     -1.046623   128A     -1.046610   129A     -1.040298
     130A     -1.038598   131A     -1.038591   132A     -1.025031
     133A     -1.021168   134A     -1.021105   135A     -1.007016
     136A     -1.006605   137A     -1.003629   138A     -1.000292
     139A     -1.000232   140A     -0.990944   141A     -0.970801
     142A     -0.970751   143A     -0.955732   144A     -0.955671
     145A     -0.905419   146A     -0.905374   147A     -0.905355
     148A     -0.905325   149A     -0.904091   150A     -0.892126
     151A     -0.892067   152A     -0.890148   153A     -0.890098
     154A     -0.889252   155A     -0.872071   156A     -0.868943
     157A     -0.851374   158A     -0.847651   159A     -0.847642
     160A     -0.845380   161A     -0.842805   162A     -0.834382
     163A     -0.834372   164A     -0.827983   165A     -0.827972
     166A     -0.784382   167A     -0.784371   168A     -0.783470
     169A     -0.783458   170A     -0.782094   171A     -0.782074
     172A     -0.781826   173A     -0.766805   174A     -0.760566
     175A     -0.750373   176A     -0.733336   177A     -0.726895
     178A     -0.726857   179A     -0.724885   180A     -0.724363
     181A     -0.724329   182A     -0.718270   183A     -0.713565
     184A     -0.713559   185A     -0.699408   186A     -0.699385
     187A     -0.685905   188A     -0.685791   189A     -0.685781
     190A     -0.681997   191A     -0.681989   192A     -0.678602
     193A     -0.653459   194A     -0.650697   195A     -0.650662
     196A     -0.649594   197A     -0.649590   198A     -0.649408
     199A     -0.640721   200A     -0.640677   201A     -0.639915
     202A     -0.639003   203A     -0.635829   204A     -0.635794
     205A     -0.628951   206A     -0.617722   207A     -0.615150
     208A     -0.615125   209A     -0.608626   210A     -0.608619
     211A     -0.599079   212A     -0.599046   213A     -0.598559
     214A     -0.598385   215A     -0.598368   216A     -0.597829
     217A     -0.594907   218A     -0.594891   219A     -0.594543
     220A     -0.593995   221A     -0.591763   222A     -0.591758
     223A     -0.587154   224A     -0.577668   225A     -0.577650
     226A     -0.575619   227A     -0.575612   228A     -0.573203
     229A     -0.569514   230A     -0.567937   231A     -0.567915
     232A     -0.566566   233A     -0.566557   234A     -0.560782
     235A     -0.558523   236A     -0.558477   237A     -0.558290
     238A     -0.554181   239A     -0.550478   240A     -0.547342
     241A     -0.544167   242A     -0.534943   243A     -0.534930
     244A     -0.533368   245A     -0.533352   246A     -0.527917
     247A     -0.527898   248A     -0.527560   249A     -0.516967
     250A     -0.516941   251A     -0.515248   252A     -0.515245
     253A     -0.509477   254A     -0.509466   255A     -0.497844
     256A     -0.496274   257A     -0.496228   258A     -0.493712
     259A     -0.493691   260A     -0.489368   261A     -0.481286
     262A     -0.477309   263A     -0.477305   264A     -0.473816
     265A     -0.469222   266A     -0.466324   267A     -0.466322
     268A     -0.458698   269A     -0.446437   270A     -0.446387
     271A     -0.440933   272A     -0.440691   273A     -0.440651
     274A     -0.434575   275A     -0.433796   276A     -0.407267
     277A     -0.407237   278A     -0.386251   279A     -0.386209
     280A     -0.385626   281A     -0.385621   282A     -0.383613
     283A     -0.354195   284A     -0.354169   285A     -0.350514
     286A     -0.337973   287A     -0.335471   288A     -0.335436
     289A     -0.332592   290A     -0.332584   291A     -0.306881
     292A     -0.301804   293A     -0.301747   294A     -0.300706
     295A     -0.286026   296A     -0.256372   297A     -0.253341
     298A     -0.253289   299A     -0.204120   300A     -0.204037

  @DF-RHF Final Energy: -3650.34359233916757

   => Energetics <=

    Nuclear Repulsion Energy =          15611.4211649754324753
    One-Electron Energy =              -36072.2403218704130268
    Two-Electron Energy =               16810.4755645558143442
    Total Energy =                      -3650.3435923391662072
 Dipole X            :         -0.0001092            0.0002112            0.0001020
 Dipole Y            :          0.0010425           -0.0044281           -0.0033856
 Dipole Z            :        233.4061836         -233.4049080            0.0012756
 Magnitude           :                                                    0.0036193

    SAPT Results
  --------------------------------------------------------------------------------------------------------
    Electrostatics                -87.96928524 [mEh]     -55.20155989 [kcal/mol]    -230.96332659 [kJ/mol]
      Elst10,r                    -87.96928524 [mEh]     -55.20155989 [kcal/mol]    -230.96332659 [kJ/mol]

    Exchange                      222.58167309 [mEh]     139.67210855 [kcal/mol]     584.38810218 [kJ/mol]
      Exch10                      222.58167309 [mEh]     139.67210855 [kcal/mol]     584.38810218 [kJ/mol]
      Exch10(S^2)                 217.36580085 [mEh]     136.39909931 [kcal/mol]     570.69383151 [kJ/mol]

    Induction                     -43.47444110 [mEh]     -27.28062366 [kcal/mol]    -114.14212938 [kJ/mol]
      Ind20,r                    -118.86960427 [mEh]     -74.59180282 [kcal/mol]    -312.09210301 [kJ/mol]
      Exch-Ind20,r                 87.96212234 [mEh]      55.19706510 [kcal/mol]     230.94452038 [kJ/mol]
      delta HF,r (2)              -12.56695917 [mEh]      -7.88588594 [kcal/mol]     -32.99454675 [kJ/mol]

    Dispersion                    -97.21713777 [mEh]     -61.00467496 [kcal/mol]    -255.24356005 [kJ/mol]
      Disp20                     -115.60837262 [mEh]     -72.54534907 [kcal/mol]    -303.52974049 [kJ/mol]
      Exch-Disp20                  18.39123485 [mEh]      11.54067410 [kcal/mol]      48.28618044 [kJ/mol]
      Disp20 (SS)                 -57.80418631 [mEh]     -36.27267453 [kcal/mol]    -151.76487025 [kJ/mol]
      Disp20 (OS)                 -57.80418631 [mEh]     -36.27267453 [kcal/mol]    -151.76487025 [kJ/mol]
      Exch-Disp20 (SS)             10.95774421 [mEh]       6.87608830 [kcal/mol]      28.76955345 [kJ/mol]
      Exch-Disp20 (OS)              7.43349064 [mEh]       4.66458580 [kcal/mol]      19.51662699 [kJ/mol]

  Total HF                         91.13794675 [mEh]      57.18992500 [kcal/mol]     239.28264621 [kJ/mol]
  Total SAPT0                      -6.07919102 [mEh]      -3.81474996 [kcal/mol]     -15.96091383 [kJ/mol]

  Special recipe for scaled SAPT0 (see Manual):
    Electrostatics sSAPT0         -87.96928524 [mEh]     -55.20155989 [kcal/mol]    -230.96332659 [kJ/mol]
    Exchange sSAPT0               222.58167309 [mEh]     139.67210855 [kcal/mol]     584.38810218 [kJ/mol]
    Induction sSAPT0              -36.98910833 [mEh]     -23.21101591 [kcal/mol]     -97.11489055 [kJ/mol]
    Dispersion sSAPT0             -95.86117597 [mEh]     -60.15379609 [kcal/mol]    -251.68348283 [kJ/mol]
  Total sSAPT0                      1.76210354 [mEh]       1.10573667 [kcal/mol]       4.62640221 [kJ/mol]
  --------------------------------------------------------------------------------------------------------

*** Psi4 exiting successfully. Buy a developer a beer!
