                               Psi4 1.9 release

  ==> Input File <==

--------------------------------------------------------------------------
memory 32 GB # how much memory is available ! Depends on the nodes/cores !

molecule dimer {
# monomer A
-1 1    # Charge and multiplicity
B -1.977592e-04  2.742729e-04 6.600034
F  1.123153e-16  1.430594e-17 8.012819
F  1.147860e+00  6.757812e-01 6.128893
F  1.191806e-02 -1.332011e+00 6.129095
F -1.159666e+00  6.560735e-01 6.129174
--
# monomer B
0 1     # Charge and multiplicity
C   1.22531237526482      0.70753866091955      0.00613762728373
C   1.22532433589282     -0.70753852257020     -0.00619318228664
C   -0.00000567409046      1.41496628609039     -0.00672680580738
C   2.45644923379077      1.41832825917820      0.00902448468363
C   0.00001130712078     -1.41497612663474      0.00347275151708
C   -1.22530046906674      0.70754574598412      0.00838914760619
C   2.45643823516184     -1.41832293188077     -0.00843833914343
C   -0.00000085313587      2.83680140328112     -0.00913035594137
C   3.68182717731192      0.70931832800114     -0.00808954934571
C   2.45512052870677      2.83422403348893     -0.00819210630633
C   3.68182158506039     -0.70933346742900      0.00798293467272
C   -1.22531311884624     -0.70752714354401     -0.00512042085974
C   1.22670006104402      3.54346985599427      0.00816696660346
C   0.00000526469929     -2.83678176723568      0.00832091913869
C   -2.45643555300670      1.41831729028492      0.00842454345199
C   2.45512389762097     -2.83422965658853      0.00783102630520
C   -1.22671388474763      3.54346943575023      0.00827029982280
C   4.91451777504333      1.42717324448953     -0.00160886631602
C   3.69315067131765      3.54279566454522     -0.00155906667985
C   -2.45643712022637     -1.41831290883911     -0.00846337726810
C   1.22670532178455     -3.54347386990643     -0.00780316414624
C   -2.45512491866593      2.83421703463423     -0.00818572995999
C   4.91452486062398     -1.42718653794377      0.00136387641845
C   1.22142509354026      4.97013443726031      0.00150231067809
C   4.89300870916237      2.82518837202648     -0.00039219795739
C   -1.22669652864725     -3.54347062507680     -0.00753595973677
C   -3.68181849668397      0.70932533873199     -0.00807686886569
C   3.69314758099218     -3.54280096939050      0.00148176697923
C   -1.22143177215231      4.97012866986289      0.00168580605083
C   6.13477145276790      0.68054831910577     -0.00083909176631
C   3.65678936045204      4.97295361556775     -0.00065042889723
C   -2.45512642789169     -2.83421472106065      0.00758666850712
C   -3.68181869921921     -0.70932533146830      0.00810055625144
C   4.89301309775526     -2.82519973363176      0.00021895393805
C   -0.00000059327114      5.65044773803267      0.00045449734393
C   6.13477559217374     -0.68055448207492      0.00042622874941
C   2.47813196269732      5.65357712333155      0.00063835075260
C   1.22142288457925     -4.97012668293268     -0.00129718634452
C   -3.69316190412301      3.54279732619245     -0.00139355922051
C   -1.22142804110313     -4.97011793159564     -0.00140994817719
C   -4.91452132810043      1.42717581899491     -0.00153192130862
C   3.65678749952045     -4.97295485423912      0.00080007163680
C   -2.47813805026426      5.65357479452875      0.00092287576113
C   -3.69314125872231     -3.54278984697859      0.00136564082345
C   -4.91451200321153     -1.42718062802730      0.00139857359209
C   -0.00000552908399     -5.65043791501335      0.00005899322272
C   -4.89302000425900      2.82518897091939     -0.00040227981744
C   2.47812647313991     -5.65357317188818     -0.00029052915548
C   -3.65679823041642      4.97295655404175     -0.00047374852278
C   -4.89299899901461     -2.82519139505969      0.00006491824035
C   -2.47812801824129     -5.65356579800621     -0.00056571680280
C   -6.13477002348955      0.68054913825639     -0.00086464346868
C   -3.65678835334731     -4.97294365097028      0.00058578382008
C   -6.13476456307132     -0.68055354348201      0.00040575295444
H   5.83528897565761      3.36927626695423      0.00396712770529
H   7.07385965258860      1.22821762089947     -0.00037744837300
H   4.60066374401555      5.51238117445323     -0.00014522814529
H   5.83528386714679     -3.36930568472863     -0.00423551337640
H   -0.00001167146422      6.73853104613662     -0.00389474766392
H   7.07386165167227     -1.22822657074368     -0.00008250934481
H   2.47331421164041      6.74068466339473      0.00017162982210
H   4.60066897122302     -5.51237575717576      0.00039007446835
H   -2.47331820069565      6.74068209160650      0.00047297644710
H   -0.00000978838621     -6.73852780445195      0.00458867820736
H   -5.83530143450167      3.36927132229595      0.00410314985360
H   2.47330840367253     -6.74068500242887      0.00027980126949
H   -4.60067436136587      5.51237839860371      0.00002010017831
H   -5.83527902699321     -3.36928859177951     -0.00451481925734
H   -2.47329986759855     -6.74067870613986     -0.00016951527498
H   -7.07385728692578      1.22822084484047     -0.00046143985387
H   -4.60067330624313     -5.51236229778631      0.00021776644566
H   -7.07385645456741     -1.22822025997701     -0.00017736581114

    units angstrom      # Angstroms are the default
    no_reorient         # Geometry fixed, default
    symmetry c1         # C1 symmetry, default
}

set {
    scf_type DF         # Density fitting, faster than exact integrals
    freeze_core True    # Freeze core electrons
    basis jun-cc-pVDZ   # Jun-cc-pVDZ basis set, recommended for sSAPT0 in https://doi.org/10.1063/1.4867135
}

energy('ssapt0')        # Compute sSAPT0 energy, includes also SAPT0
--------------------------------------------------------------------------

  //              Dimer HF             //
    Molecular point group: c1
  Charge       = -1
  Multiplicity = 1
  Basis Set: JUN-CC-PVDZ
    Blend: JUN-CC-PVDZ
  Basis Set: (JUN-CC-PVDZ AUX)
    Blend: JUN-CC-PVDZ-JKFIT
  @DF-RHF Final Energy: -2478.65782639776990
    Total Energy =                      -2478.6578263977698953
 Dipole X            :         -0.0005558            0.0000481           -0.0005078
 Dipole Y            :          0.0010755           -0.0001453            0.0009302
 Dipole Z            :         30.2427110          -40.4600458          -10.2173348
 Magnitude           :                                                   10.2173348
  //            Monomer A HF           //
    Molecular point group: c1
  Multiplicity = 1
  Basis Set: JUN-CC-PVDZ
    Blend: JUN-CC-PVDZ
  Basis Set: (JUN-CC-PVDZ AUX)
    Blend: JUN-CC-PVDZ-JKFIT
  @DF-RHF Final Energy:  -422.77147561541159
    Total Energy =                       -422.7714756154115889
  //            Monomer B HF           //
    Molecular point group: c1

    Geometry (in Angstrom), charge = 0, multiplicity = 1:

       Center              X                  Y                   Z               Mass
    ------------   -----------------  -----------------  -----------------  -----------------
      Gh(B)          -0.000198161052     0.000273808717     5.837606403211    11.009305360000
      Gh(F)          -0.000000401852    -0.000000464183     7.250391403211    18.998403162730
      Gh(F)           1.147859598148     0.675780735817     5.366465403211    18.998403162730
      Gh(F)           0.011917658148    -1.332011464183     5.366667403211    18.998403162730
      Gh(F)          -1.159666401852     0.656073035817     5.366746403211    18.998403162730
         C            1.225311973413     0.707538196736    -0.756289969505    12.000000000000
         C            1.225323934041    -0.707538986754    -0.768620779076    12.000000000000
         C           -0.000006075942     1.414965821907    -0.769154402596    12.000000000000
         C            2.456448831939     1.418327794995    -0.753403112105    12.000000000000
         C            0.000010905269    -1.414976590818    -0.758954845272    12.000000000000
         C           -1.225300870919     0.707545281801    -0.754038449183    12.000000000000
         C            2.456437833310    -1.418323396064    -0.770865935933    12.000000000000
         C           -0.000001254988     2.836800939098    -0.771557952730    12.000000000000
         C            3.681826775460     0.709317863818    -0.770517146135    12.000000000000
         C            2.455120126855     2.834223569306    -0.770619703095    12.000000000000
         C            3.681821183209    -0.709333931612    -0.754444662116    12.000000000000
         C           -1.225313520698    -0.707527607727    -0.767548017649    12.000000000000
         C            1.226699659192     3.543469391811    -0.754260630186    12.000000000000
         C            0.000004862847    -2.836782231419    -0.754106677650    12.000000000000
         C           -2.456435954859     1.418316826102    -0.754003053337    12.000000000000
         C            2.455123495769    -2.834230120772    -0.754596570484    12.000000000000
         C           -1.226714286599     3.543468971567    -0.754157296966    12.000000000000
         C            4.914517373191     1.427172780306    -0.764036463105    12.000000000000
         C            3.693150269466     3.542795200362    -0.763986663469    12.000000000000
         C           -2.456437522078    -1.418313373022    -0.770890974057    12.000000000000
         C            1.226704919933    -3.543474334090    -0.770230760935    12.000000000000
         C           -2.455125320518     2.834216570451    -0.770613326749    12.000000000000
         C            4.914524458772    -1.427187002127    -0.761063720371    12.000000000000
         C            1.221424691688     4.970133973077    -0.760925286111    12.000000000000
         C            4.893008307311     2.825187907843    -0.762819794746    12.000000000000
         C           -1.226696930499    -3.543471089260    -0.769963556526    12.000000000000
         C           -3.681818898536     0.709324874549    -0.770504465655    12.000000000000
         C            3.693147179140    -3.542801433574    -0.760945829810    12.000000000000
         C           -1.221432174004     4.970128205680    -0.760741790738    12.000000000000
         C            6.134771050916     0.680547854922    -0.763266688555    12.000000000000
         C            3.656788958600     4.972953151384    -0.763078025686    12.000000000000
         C           -2.455126829744    -2.834215185244    -0.754840928282    12.000000000000
         C           -3.681819101071    -0.709325795652    -0.754327040538    12.000000000000
         C            4.893012695903    -2.825200197815    -0.762208642851    12.000000000000
         C           -0.000000995123     5.650447273849    -0.761973099445    12.000000000000
         C            6.134775190322    -0.680554946258    -0.762001368040    12.000000000000
         C            2.478131560845     5.653576659148    -0.761789246036    12.000000000000
         C            1.221422482727    -4.970127147116    -0.763724783134    12.000000000000
         C           -3.693162305975     3.542796862009    -0.763821156010    12.000000000000
         C           -1.221428442955    -4.970118395779    -0.763837544966    12.000000000000
         C           -4.914521729952     1.427175354812    -0.763959518098    12.000000000000
         C            3.656787097669    -4.972955318422    -0.761627525152    12.000000000000
         C           -2.478138452116     5.653574330345    -0.761504721028    12.000000000000
         C           -3.693141660574    -3.542790311162    -0.761061955966    12.000000000000
         C           -4.914512405063    -1.427181092211    -0.761029023197    12.000000000000
         C           -0.000005930936    -5.650438379197    -0.762368603566    12.000000000000
         C           -4.893020406111     2.825188506736    -0.762829876607    12.000000000000
         C            2.478126071288    -5.653573636072    -0.762718125945    12.000000000000
         C           -3.656798632268     4.972956089858    -0.762901345312    12.000000000000
         C           -4.892999400866    -2.825191859243    -0.762362678549    12.000000000000
         C           -2.478128420093    -5.653566262190    -0.762993313592    12.000000000000
         C           -6.134770425341     0.680548674073    -0.763292240258    12.000000000000
         C           -3.656788755199    -4.972944115154    -0.761841812969    12.000000000000
         C           -6.134764964923    -0.680554007665    -0.762021843835    12.000000000000
         H            5.835288573806     3.369275802771    -0.758460469084     1.007825032230
         H            7.073859250737     1.228217156716    -0.762805045162     1.007825032230
         H            4.600663342164     5.512380710270    -0.762572824934     1.007825032230
         H            5.835283465295    -3.369306148912    -0.766663110165     1.007825032230
         H           -0.000012073316     6.738530581953    -0.766322344453     1.007825032230
         H            7.073861249820    -1.228227034927    -0.762510106134     1.007825032230
         H            2.473313809789     6.740684199211    -0.762255966967     1.007825032230
         H            4.600668569371    -5.512376221359    -0.762037522321     1.007825032230
         H           -2.473318602548     6.740681627423    -0.761954620342     1.007825032230
         H           -0.000010190238    -6.738528268635    -0.757838918582     1.007825032230
         H           -5.835301836354     3.369270858113    -0.758324446935     1.007825032230
         H            2.473308001821    -6.740685466612    -0.762147795520     1.007825032230
         H           -4.600674763218     5.512377934420    -0.762407496611     1.007825032230
         H           -5.835279428845    -3.369289055963    -0.766942416046     1.007825032230
         H           -2.473300269450    -6.740679170323    -0.762597112064     1.007825032230
         H           -7.073857688778     1.228220380657    -0.762889036643     1.007825032230
         H           -4.600673708095    -5.512362761970    -0.762209830343     1.007825032230
         H           -7.073856856419    -1.228220724160    -0.762604962600     1.007825032230

  Charge       = 0
  Multiplicity = 1
  Basis Set: JUN-CC-PVDZ
    Blend: JUN-CC-PVDZ
  Basis Set: (JUN-CC-PVDZ AUX)
    Blend: JUN-CC-PVDZ-JKFIT

    Orbital Energies [Eh]
    ---------------------

    Doubly Occupied:

       1A    -11.260671     2A    -11.260228     3A    -11.260226
       4A    -11.259516     5A    -11.259516     6A    -11.259346
       7A    -11.259137     8A    -11.259059     9A    -11.259058
      10A    -11.258733    11A    -11.258730    12A    -11.258660
      13A    -11.258598    14A    -11.258593    15A    -11.258590
      16A    -11.258561    17A    -11.258556    18A    -11.258539
      19A    -11.258526    20A    -11.258521    21A    -11.258516
      22A    -11.258418    23A    -11.258414    24A    -11.258116
      25A    -11.257455    26A    -11.257394    27A    -11.257393
      28A    -11.257258    29A    -11.257257    30A    -11.257173
      31A    -11.256551    32A    -11.256480    33A    -11.256479
      34A    -11.256370    35A    -11.256369    36A    -11.256322
      37A    -11.252397    38A    -11.252397    39A    -11.252395
      40A    -11.252394    41A    -11.252392    42A    -11.252390
      43A    -11.251530    44A    -11.251528    45A    -11.251527
      46A    -11.251521    47A    -11.251520    48A    -11.251516
      49A    -11.250959    50A    -11.250958    51A    -11.250956
      52A    -11.250954    53A    -11.250953    54A    -11.250951
      55A     -1.244289    56A     -1.220009    57A     -1.220008
      58A     -1.189718    59A     -1.189711    60A     -1.181159
      61A     -1.157719    62A     -1.149150    63A     -1.135699
      64A     -1.135693    65A     -1.113352    66A     -1.113347
      67A     -1.082624    68A     -1.082617    69A     -1.078806
      70A     -1.066135    71A     -1.066132    72A     -1.039574
      73A     -1.024483    74A     -1.021985    75A     -1.021942
      76A     -1.017884    77A     -1.012946    78A     -0.987214
      79A     -0.987168    80A     -0.962045    81A     -0.961995
      82A     -0.894464    83A     -0.894437    84A     -0.888158
      85A     -0.886405    86A     -0.886347    87A     -0.881594
      88A     -0.881546    89A     -0.862069    90A     -0.837549
      91A     -0.818385    92A     -0.816824    93A     -0.812333
      94A     -0.812324    95A     -0.794850    96A     -0.794840
      97A     -0.746832    98A     -0.745059    99A     -0.733625
     100A     -0.733616   101A     -0.732349   102A     -0.732325
     103A     -0.716694   104A     -0.699145   105A     -0.699134
     106A     -0.693770   107A     -0.693755   108A     -0.661395
     109A     -0.653326   110A     -0.651371   111A     -0.650413
     112A     -0.650407   113A     -0.639525   114A     -0.639523
     115A     -0.629908   116A     -0.627719   117A     -0.627703
     118A     -0.606469   119A     -0.605932   120A     -0.601859
     121A     -0.599914   122A     -0.599883   123A     -0.593818
     124A     -0.591446   125A     -0.591435   126A     -0.585417
     127A     -0.576417   128A     -0.576411   129A     -0.567475
     130A     -0.567461   131A     -0.566159   132A     -0.566139
     133A     -0.558934   134A     -0.555018   135A     -0.555012
     136A     -0.538756   137A     -0.538754   138A     -0.538286
     139A     -0.538280   140A     -0.529891   141A     -0.528206
     142A     -0.523046   143A     -0.523040   144A     -0.500664
     145A     -0.495716   146A     -0.493403   147A     -0.487945
     148A     -0.485261   149A     -0.481942   150A     -0.481934
     151A     -0.470434   152A     -0.470416   153A     -0.451243
     154A     -0.451165   155A     -0.439186   156A     -0.439177
     157A     -0.404866   158A     -0.404843   159A     -0.403487
     160A     -0.375541   161A     -0.375538   162A     -0.349244
     163A     -0.337711   164A     -0.336678   165A     -0.336621
     166A     -0.311221   167A     -0.298209   168A     -0.284477
     169A     -0.284423   170A     -0.225045   171A     -0.224980

  @DF-RHF Final Energy: -2055.89173443940354

   => Energetics <=

    Nuclear Repulsion Energy =           6452.5568002797772351
    One-Electron Energy =              -15636.4279868297253415
    Two-Electron Energy =                7127.9794521105441163
    Total Energy =                      -2055.8917344394039901
 Dipole X            :          0.0000496            0.0000419            0.0000915
 Dipole Y            :          0.0000257           -0.0000426           -0.0000169
 Dipole Z            :        492.7461215         -492.7479801           -0.0018586
 Magnitude           :                                                    0.0018609

    SAPT Results
  --------------------------------------------------------------------------------------------------------
    Electrostatics                  8.12254524 [mEh]       5.09697409 [kcal/mol]      21.32573959 [kJ/mol]
      Elst10,r                      8.12254524 [mEh]       5.09697409 [kcal/mol]      21.32573959 [kJ/mol]

    Exchange                       -0.00017621 [mEh]      -0.00011058 [kcal/mol]      -0.00046265 [kJ/mol]
      Exch10                       -0.00017621 [mEh]      -0.00011058 [kcal/mol]      -0.00046265 [kJ/mol]
      Exch10(S^2)                  -0.00017621 [mEh]      -0.00011058 [kcal/mol]      -0.00046265 [kJ/mol]

    Induction                      -2.73871198 [mEh]      -1.71856771 [kcal/mol]      -7.19048732 [kJ/mol]
      Ind20,r                      -2.75821513 [mEh]      -1.73080613 [kcal/mol]      -7.24169283 [kJ/mol]
      Exch-Ind20,r                  0.00015496 [mEh]       0.00009724 [kcal/mol]       0.00040684 [kJ/mol]
      delta HF,r (2)                0.01934819 [mEh]       0.01214117 [kcal/mol]       0.05079867 [kJ/mol]

    Dispersion                     -0.50501659 [mEh]      -0.31690269 [kcal/mol]      -1.32592087 [kJ/mol]
      Disp20                       -0.50519287 [mEh]      -0.31701331 [kcal/mol]      -1.32638371 [kJ/mol]
      Exch-Disp20                   0.00017629 [mEh]       0.00011062 [kcal/mol]       0.00046284 [kJ/mol]
      Disp20 (SS)                  -0.25259644 [mEh]      -0.15850666 [kcal/mol]      -0.66319185 [kJ/mol]
      Disp20 (OS)                  -0.25259644 [mEh]      -0.15850666 [kcal/mol]      -0.66319185 [kJ/mol]
      Exch-Disp20 (SS)              0.00013654 [mEh]       0.00008568 [kcal/mol]       0.00035848 [kJ/mol]
      Exch-Disp20 (OS)              0.00003975 [mEh]       0.00002494 [kcal/mol]       0.00010436 [kJ/mol]

  Total HF                          5.38365705 [mEh]       3.37829580 [kcal/mol]      14.13478962 [kJ/mol]
  Total SAPT0                       4.87864046 [mEh]       3.06139311 [kcal/mol]      12.80886875 [kJ/mol]

  Special recipe for scaled SAPT0 (see Manual):
    Electrostatics sSAPT0           8.12254524 [mEh]       5.09697409 [kcal/mol]      21.32573959 [kJ/mol]
    Exchange sSAPT0                -0.00017621 [mEh]      -0.00011058 [kcal/mol]      -0.00046265 [kJ/mol]
    Induction sSAPT0               -2.73871198 [mEh]      -1.71856771 [kcal/mol]      -7.19048732 [kJ/mol]
    Dispersion sSAPT0              -0.50501659 [mEh]      -0.31690269 [kcal/mol]      -1.32592087 [kJ/mol]
  Total sSAPT0                      4.87864046 [mEh]       3.06139311 [kcal/mol]      12.80886875 [kJ/mol]
  --------------------------------------------------------------------------------------------------------

*** Psi4 exiting successfully. Buy a developer a beer!
