                               Psi4 1.9 release

  ==> Input File <==

--------------------------------------------------------------------------
memory 48 GB # how much memory is available ! Depends on the nodes/cores !

molecule dimer {
# monomer A
+1 1    # Charge and multiplicity
C  0.680067 1.417258 -5.315929
C -0.680504 1.419286 -5.315545
N -1.085635 1.420284 -3.997221
C  0.000108 1.423560 -3.215820
C -2.477365 1.469690 -3.529242
N  1.085222 1.420284 -3.997221
H  1.385146 1.409430 -6.133368
H -1.385302 1.419096 -6.133214
H -0.000009 1.425307 -2.134731
C  2.478117 1.403392 -3.532123
H  2.490592 1.430737 -2.441870
H  2.967028 0.489946 -3.879299
H  3.001428 2.278875 -3.923595
H -2.857359 2.491761 -3.609201
H -3.082679 0.799606 -4.142306
H -2.518128 1.142706 -2.489294
--
# monomer B
0 1     # Charge and multiplicity
C   1.22531237526482      0.70753866091955      0.00613762728373
C   1.22532433589282     -0.70753852257020     -0.00619318228664
C   -0.00000567409046      1.41496628609039     -0.00672680580738
C   2.45644923379077      1.41832825917820      0.00902448468363
C   0.00001130712078     -1.41497612663474      0.00347275151708
C   -1.22530046906674      0.70754574598412      0.00838914760619
C   2.45643823516184     -1.41832293188077     -0.00843833914343
C   -0.00000085313587      2.83680140328112     -0.00913035594137
C   3.68182717731192      0.70931832800114     -0.00808954934571
C   2.45512052870677      2.83422403348893     -0.00819210630633
C   3.68182158506039     -0.70933346742900      0.00798293467272
C   -1.22531311884624     -0.70752714354401     -0.00512042085974
C   1.22670006104402      3.54346985599427      0.00816696660346
C   0.00000526469929     -2.83678176723568      0.00832091913869
C   -2.45643555300670      1.41831729028492      0.00842454345199
C   2.45512389762097     -2.83422965658853      0.00783102630520
C   -1.22671388474763      3.54346943575023      0.00827029982280
C   4.91451777504333      1.42717324448953     -0.00160886631602
C   3.69315067131765      3.54279566454522     -0.00155906667985
C   -2.45643712022637     -1.41831290883911     -0.00846337726810
C   1.22670532178455     -3.54347386990643     -0.00780316414624
C   -2.45512491866593      2.83421703463423     -0.00818572995999
C   4.91452486062398     -1.42718653794377      0.00136387641845
C   1.22142509354026      4.97013443726031      0.00150231067809
C   4.89300870916237      2.82518837202648     -0.00039219795739
C   -1.22669652864725     -3.54347062507680     -0.00753595973677
C   -3.68181849668397      0.70932533873199     -0.00807686886569
C   3.69314758099218     -3.54280096939050      0.00148176697923
C   -1.22143177215231      4.97012866986289      0.00168580605083
C   6.13477145276790      0.68054831910577     -0.00083909176631
C   3.65678936045204      4.97295361556775     -0.00065042889723
C   -2.45512642789169     -2.83421472106065      0.00758666850712
C   -3.68181869921921     -0.70932533146830      0.00810055625144
C   4.89301309775526     -2.82519973363176      0.00021895393805
C   -0.00000059327114      5.65044773803267      0.00045449734393
C   6.13477559217374     -0.68055448207492      0.00042622874941
C   2.47813196269732      5.65357712333155      0.00063835075260
C   1.22142288457925     -4.97012668293268     -0.00129718634452
C   -3.69316190412301      3.54279732619245     -0.00139355922051
C   -1.22142804110313     -4.97011793159564     -0.00140994817719
C   -4.91452132810043      1.42717581899491     -0.00153192130862
C   3.65678749952045     -4.97295485423912      0.00080007163680
C   -2.47813805026426      5.65357479452875      0.00092287576113
C   -3.69314125872231     -3.54278984697859      0.00136564082345
C   -4.91451200321153     -1.42718062802730      0.00139857359209
C   -0.00000552908399     -5.65043791501335      0.00005899322272
C   -4.89302000425900      2.82518897091939     -0.00040227981744
C   2.47812647313991     -5.65357317188818     -0.00029052915548
C   -3.65679823041642      4.97295655404175     -0.00047374852278
C   -4.89299899901461     -2.82519139505969      0.00006491824035
C   -2.47812801824129     -5.65356579800621     -0.00056571680280
C   -6.13477002348955      0.68054913825639     -0.00086464346868
C   -3.65678835334731     -4.97294365097028      0.00058578382008
C   -6.13476456307132     -0.68055354348201      0.00040575295444
H   5.83528897565761      3.36927626695423      0.00396712770529
H   7.07385965258860      1.22821762089947     -0.00037744837300
H   4.60066374401555      5.51238117445323     -0.00014522814529
H   5.83528386714679     -3.36930568472863     -0.00423551337640
H   -0.00001167146422      6.73853104613662     -0.00389474766392
H   7.07386165167227     -1.22822657074368     -0.00008250934481
H   2.47331421164041      6.74068466339473      0.00017162982210
H   4.60066897122302     -5.51237575717576      0.00039007446835
H   -2.47331820069565      6.74068209160650      0.00047297644710
H   -0.00000978838621     -6.73852780445195      0.00458867820736
H   -5.83530143450167      3.36927132229595      0.00410314985360
H   2.47330840367253     -6.74068500242887      0.00027980126949
H   -4.60067436136587      5.51237839860371      0.00002010017831
H   -5.83527902699321     -3.36928859177951     -0.00451481925734
H   -2.47329986759855     -6.74067870613986     -0.00016951527498
H   -7.07385728692578      1.22822084484047     -0.00046143985387
H   -4.60067330624313     -5.51236229778631      0.00021776644566
H   -7.07385645456741     -1.22822025997701     -0.00017736581114

    units angstrom      # Angstroms are the default
    no_reorient         # Geometry fixed, default
    symmetry c1         # C1 symmetry, default
}

set {
    scf_type DF         # Density fitting, faster than exact integrals
    freeze_core True    # Freeze core electrons
    basis jun-cc-pVDZ   # Jun-cc-pVDZ basis set, recommended for sSAPT0 in https://doi.org/10.1063/1.4867135
}

energy('ssapt0')        # Compute sSAPT0 energy, includes also SAPT0
--------------------------------------------------------------------------

  //              Dimer HF             //
    Molecular point group: c1
  Charge       = 1
  Multiplicity = 1
  Basis Set: JUN-CC-PVDZ
    Blend: JUN-CC-PVDZ
  Basis Set: (JUN-CC-PVDZ AUX)
    Blend: JUN-CC-PVDZ-JKFIT
  @DF-RHF Final Energy: -2359.20492871346778
    Total Energy =                      -2359.2049287134668702
 Dipole X            :         -0.0009640            0.0006313           -0.0003327
 Dipole Y            :         -6.1570886            7.4856329            1.3285444
 Dipole Z            :         14.9446776          -19.4851985           -4.5405209
 Magnitude           :                                                    4.7308943
  //            Monomer A HF           //
    Molecular point group: c1
  Multiplicity = 1
  Basis Set: JUN-CC-PVDZ
    Blend: JUN-CC-PVDZ
  Basis Set: (JUN-CC-PVDZ AUX)
    Blend: JUN-CC-PVDZ-JKFIT
  @DF-RHF Final Energy:  -303.29837607292109
    Total Energy =                       -303.2983760729210871
  //            Monomer B HF           //
    Molecular point group: c1

    Geometry (in Angstrom), charge = 0, multiplicity = 1:

       Center              X                  Y                   Z               Mass
    ------------   -----------------  -----------------  -----------------  -----------------
      Gh(C)           0.680066520158     1.235968212970    -4.794436426406    12.000000000000
      Gh(C)          -0.680504479842     1.237996212970    -4.794052426406    12.000000000000
      Gh(N)          -1.085635479842     1.238994212970    -3.475728426406    14.003074004430
      Gh(C)           0.000107520158     1.242270212970    -2.694327426406    12.000000000000
      Gh(C)          -2.477365479842     1.288400212970    -3.007749426406    12.000000000000
      Gh(N)           1.085221520158     1.238994212970    -3.475728426406    14.003074004430
      Gh(H)           1.385145520158     1.228140212970    -5.611875426406     1.007825032230
      Gh(H)          -1.385302479842     1.237806212970    -5.611721426406     1.007825032230
      Gh(H)          -0.000009479842     1.244017212970    -1.613238426406     1.007825032230
      Gh(C)           2.478116520158     1.222102212970    -3.010630426406    12.000000000000
      Gh(H)           2.490591520158     1.249447212970    -1.920377426406     1.007825032230
      Gh(H)           2.967027520158     0.308656212970    -3.357806426406     1.007825032230
      Gh(H)           3.001427520158     2.097585212970    -3.402102426406     1.007825032230
      Gh(H)          -2.857359479842     2.310471212970    -3.087708426406     1.007825032230
      Gh(H)          -3.082679479842     0.618316212970    -3.620813426406     1.007825032230
      Gh(H)          -2.518128479842     0.961416212970    -1.967801426406     1.007825032230
         C            1.225311895423     0.526248873889     0.527630200877    12.000000000000
         C            1.225323856051    -0.888828309601     0.515299391307    12.000000000000
         C           -0.000006153932     1.233676499060     0.514765767786    12.000000000000
         C            2.456448753949     1.237038472148     0.530517058277    12.000000000000
         C            0.000010827279    -1.596265913665     0.524965325111    12.000000000000
         C           -1.225300948908     0.526255958954     0.529881721200    12.000000000000
         C            2.456437755320    -1.599612718911     0.513054234450    12.000000000000
         C           -0.000001332978     2.655511616251     0.512362217652    12.000000000000
         C            3.681826697470     0.528028540971     0.513403024248    12.000000000000
         C            2.455120048865     2.652934246459     0.513300467287    12.000000000000
         C            3.681821105219    -0.890623254459     0.529475508266    12.000000000000
         C           -1.225313598688    -0.888816930574     0.516372152734    12.000000000000
         C            1.226699581202     3.362180068964     0.529659540197    12.000000000000
         C            0.000004784858    -3.018071554266     0.529813492732    12.000000000000
         C           -2.456436032848     1.237027503255     0.529917117046    12.000000000000
         C            2.455123417779    -3.015519443619     0.529323599899    12.000000000000
         C           -1.226714364589     3.362179648720     0.529762873416    12.000000000000
         C            4.914517295202     1.245883457459     0.519883707278    12.000000000000
         C            3.693150191476     3.361505877515     0.519933506914    12.000000000000
         C           -2.456437600068    -1.599602695869     0.513029196325    12.000000000000
         C            1.226704841943    -3.724763656937     0.513689409447    12.000000000000
         C           -2.455125398508     2.652927247604     0.513306843634    12.000000000000
         C            4.914524380782    -1.608476324974     0.522856450012    12.000000000000
         C            1.221424613699     4.788844650230     0.522994884272    12.000000000000
         C            4.893008229321     2.643898584996     0.521100375636    12.000000000000
         C           -1.226697008489    -3.724760412107     0.513956613857    12.000000000000
         C           -3.681818976526     0.528035551702     0.513415704728    12.000000000000
         C            3.693147101150    -3.724090756421     0.522974340573    12.000000000000
         C           -1.221432251994     4.788838882833     0.523178379644    12.000000000000
         C            6.134770972926     0.499258532075     0.520653481827    12.000000000000
         C            3.656788880610     4.791663828537     0.520842144696    12.000000000000
         C           -2.455126907733    -3.015504508091     0.529079242101    12.000000000000
         C           -3.681819179061    -0.890615118499     0.529593129845    12.000000000000
         C            4.893012617914    -3.006489520662     0.521711527532    12.000000000000
         C           -0.000001073113     5.469157951002     0.521947070937    12.000000000000
         C            6.134775112332    -0.861844269105     0.521918802343    12.000000000000
         C            2.478131482856     5.472287336301     0.522130924346    12.000000000000
         C            1.221422404738    -5.151416469963     0.520195387249    12.000000000000
         C           -3.693162383965     3.361507539162     0.520099014373    12.000000000000
         C           -1.221428520945    -5.151407718626     0.520082625416    12.000000000000
         C           -4.914521807942     1.245886031965     0.519960652285    12.000000000000
         C            3.656787019679    -5.154244641269     0.522292645230    12.000000000000
         C           -2.478138530106     5.472285007498     0.522415449355    12.000000000000
         C           -3.693141738564    -3.724079634009     0.522858214417    12.000000000000
         C           -4.914512483053    -1.608470415058     0.522891147186    12.000000000000
         C           -0.000006008926    -5.831727702044     0.521551566816    12.000000000000
         C           -4.893020484101     2.643899183889     0.521090293776    12.000000000000
         C            2.478125993298    -5.834862958919     0.521202044438    12.000000000000
         C           -3.656798710258     4.791666767011     0.521018825071    12.000000000000
         C           -4.892999478856    -3.006481182090     0.521557491834    12.000000000000
         C           -2.478128498083    -5.834855585037     0.520926856791    12.000000000000
         C           -6.134770503331     0.499259351226     0.520627930125    12.000000000000
         C           -3.656788833189    -5.154233438001     0.522078357414    12.000000000000
         C           -6.134765042913    -0.861843330512     0.521898326548    12.000000000000
         H            5.835288495816     3.187986479924     0.525459701299     1.007825032230
         H            7.073859172747     1.046927833869     0.521115125221     1.007825032230
         H            4.600663264174     5.331091387423     0.521347345448     1.007825032230
         H            5.835283387305    -3.550595471759     0.517257060217     1.007825032230
         H           -0.000012151306     6.557241259106     0.517597825930     1.007825032230
         H            7.073861171831    -1.409516357774     0.521410064249     1.007825032230
         H            2.473313731799     6.559394876364     0.521664203416     1.007825032230
         H            4.600668491381    -5.693665544206     0.521882648062     1.007825032230
         H           -2.473318680537     6.559392304576     0.521965550041     1.007825032230
         H           -0.000010268228    -6.919817591482     0.526081251801     1.007825032230
         H           -5.835301914343     3.187981535266     0.525595723447     1.007825032230
         H            2.473307923831    -6.921974789459     0.521772374863     1.007825032230
         H           -4.600674841208     5.331088611573     0.521512673772     1.007825032230
         H           -5.835279506835    -3.550578378810     0.516977754336     1.007825032230
         H           -2.473300347440    -6.921968493170     0.521323058319     1.007825032230
         H           -7.073857766768     1.046931057810     0.521031133740     1.007825032230
         H           -4.600673786085    -5.693652084817     0.521710340039     1.007825032230
         H           -7.073856934409    -1.409510047007     0.521315207782     1.007825032230

  Charge       = 0
  Multiplicity = 1
  Basis Set: JUN-CC-PVDZ
    Blend: JUN-CC-PVDZ
  Basis Set: (JUN-CC-PVDZ AUX)
    Blend: JUN-CC-PVDZ-JKFIT

    Orbital Energies [Eh]
    ---------------------

    Doubly Occupied:

       1A    -11.260608     2A    -11.260113     3A    -11.260085
       4A    -11.259440     5A    -11.259372     6A    -11.259177
       7A    -11.259010     8A    -11.258920     9A    -11.258865
      10A    -11.258581    11A    -11.258535    12A    -11.258456
      13A    -11.258400    14A    -11.258394    15A    -11.258388
      16A    -11.258359    17A    -11.258353    18A    -11.258339
      19A    -11.258332    20A    -11.258317    21A    -11.258309
      22A    -11.258266    23A    -11.258234    24A    -11.257956
      25A    -11.257266    26A    -11.257217    27A    -11.257185
      28A    -11.257078    29A    -11.257069    30A    -11.256979
      31A    -11.256362    32A    -11.256300    33A    -11.256282
      34A    -11.256185    35A    -11.256184    36A    -11.256113
      37A    -11.252220    38A    -11.252217    39A    -11.252186
      40A    -11.252177    41A    -11.252158    42A    -11.252150
      43A    -11.251332    44A    -11.251320    45A    -11.251307
      46A    -11.251294    47A    -11.251291    48A    -11.251252
      49A    -11.250781    50A    -11.250777    51A    -11.250747
      52A    -11.250737    53A    -11.250719    54A    -11.250711
      55A     -1.243880    56A     -1.219651    57A     -1.219641
      58A     -1.189387    59A     -1.189377    60A     -1.180768
      61A     -1.157412    62A     -1.148827    63A     -1.135325
      64A     -1.135306    65A     -1.113049    66A     -1.113043
      67A     -1.082262    68A     -1.082252    69A     -1.078429
      70A     -1.065840    71A     -1.065833    72A     -1.039239
      73A     -1.024093    74A     -1.021585    75A     -1.021533
      76A     -1.017581    77A     -1.012658    78A     -0.986857
      79A     -0.986800    80A     -0.961731    81A     -0.961678
      82A     -0.894131    83A     -0.894110    84A     -0.887742
      85A     -0.885988    86A     -0.885947    87A     -0.881216
      88A     -0.881170    89A     -0.861743    90A     -0.837273
      91A     -0.818045    92A     -0.816430    93A     -0.811956
      94A     -0.811951    95A     -0.794536    96A     -0.794526
      97A     -0.746434    98A     -0.744675    99A     -0.733238
     100A     -0.733225   101A     -0.732025   102A     -0.732003
     103A     -0.716320   104A     -0.698818   105A     -0.698789
     106A     -0.693423   107A     -0.693387   108A     -0.661075
     109A     -0.652930   110A     -0.650971   111A     -0.650102
     112A     -0.650095   113A     -0.639206   114A     -0.639189
     115A     -0.629539   116A     -0.627340   117A     -0.627331
     118A     -0.606421   119A     -0.605685   120A     -0.601474
     121A     -0.599585   122A     -0.599528   123A     -0.593452
     124A     -0.591027   125A     -0.590999   126A     -0.585142
     127A     -0.576436   128A     -0.576332   129A     -0.567179
     130A     -0.567157   131A     -0.565774   132A     -0.565762
     133A     -0.558540   134A     -0.554693   135A     -0.554687
     136A     -0.538439   137A     -0.538435   138A     -0.538174
     139A     -0.538156   140A     -0.529546   141A     -0.528118
     142A     -0.522714   143A     -0.522688   144A     -0.500350
     145A     -0.495549   146A     -0.493077   147A     -0.487780
     148A     -0.484891   149A     -0.481577   150A     -0.481575
     151A     -0.470281   152A     -0.470265   153A     -0.450819
     154A     -0.450749   155A     -0.439006   156A     -0.438982
     157A     -0.404669   158A     -0.404651   159A     -0.403284
     160A     -0.375341   161A     -0.375338   162A     -0.349035
     163A     -0.337500   164A     -0.336438   165A     -0.336397
     166A     -0.311014   167A     -0.298011   168A     -0.284244
     169A     -0.284186   170A     -0.224810   171A     -0.224750

  @DF-RHF Final Energy: -2055.89542883358808

   => Energetics <=

    Nuclear Repulsion Energy =           6452.5568002797781446
    One-Electron Energy =              -15636.5283477696957561
    Two-Electron Energy =                7128.0761186563286174
    Total Energy =                      -2055.8954288335880847
 Dipole X            :          0.0004819           -0.0000085            0.0004734
 Dipole Y            :        117.1723616         -117.1648546            0.0075070
 Dipole Z            :       -337.0301456          337.0320811            0.0019355
 Magnitude           :                                                    0.0077670

    SAPT Results
  --------------------------------------------------------------------------------------------------------
    Electrostatics                -21.54298659 [mEh]     -13.51842818 [kcal/mol]     -56.56110350 [kJ/mol]
      Elst10,r                    -21.54298659 [mEh]     -13.51842818 [kcal/mol]     -56.56110350 [kJ/mol]

    Exchange                       31.91132810 [mEh]      20.02466070 [kcal/mol]      83.78318038 [kJ/mol]
      Exch10                       31.91132810 [mEh]      20.02466070 [kcal/mol]      83.78318038 [kJ/mol]
      Exch10(S^2)                  31.62062219 [mEh]      19.84223999 [kcal/mol]      83.01993211 [kJ/mol]

    Induction                     -21.49214847 [mEh]     -13.48652678 [kcal/mol]     -56.42762803 [kJ/mol]
      Ind20,r                     -24.52914857 [mEh]     -15.39227311 [kcal/mol]     -64.40127070 [kJ/mol]
      Exch-Ind20,r                  8.88652867 [mEh]       5.57638093 [kcal/mol]      23.33157780 [kJ/mol]
      delta HF,r (2)               -5.84952856 [mEh]      -3.67063459 [kcal/mol]     -15.35793513 [kJ/mol]

    Dispersion                    -27.50455981 [mEh]     -17.25937185 [kcal/mol]     -72.21321183 [kJ/mol]
      Disp20                      -29.82414062 [mEh]     -18.71493078 [kcal/mol]     -78.30327040 [kJ/mol]
      Exch-Disp20                   2.31958081 [mEh]       1.45555893 [kcal/mol]       6.09005857 [kJ/mol]
      Disp20 (SS)                 -14.91207031 [mEh]      -9.35746539 [kcal/mol]     -39.15163520 [kJ/mol]
      Disp20 (OS)                 -14.91207031 [mEh]      -9.35746539 [kcal/mol]     -39.15163520 [kJ/mol]
      Exch-Disp20 (SS)              1.41550748 [mEh]       0.88824435 [kcal/mol]       3.71641437 [kJ/mol]
      Exch-Disp20 (OS)              0.90407333 [mEh]       0.56731458 [kcal/mol]       2.37364420 [kJ/mol]

  Total HF                        -11.12380696 [mEh]      -6.98029425 [kcal/mol]     -29.20555115 [kJ/mol]
  Total SAPT0                     -38.62836677 [mEh]     -24.23966610 [kcal/mol]    -101.41876297 [kJ/mol]

  Special recipe for scaled SAPT0 (see Manual):
    Electrostatics sSAPT0         -21.54298659 [mEh]     -13.51842818 [kcal/mol]     -56.56110350 [kJ/mol]
    Exchange sSAPT0                31.91132810 [mEh]      20.02466070 [kcal/mol]      83.78318038 [kJ/mol]
    Induction sSAPT0              -21.24479190 [mEh]     -13.33130819 [kcal/mol]     -55.77819345 [kJ/mol]
    Dispersion sSAPT0             -27.43999426 [mEh]     -17.21885636 [kcal/mol]     -72.04369502 [kJ/mol]
  Total sSAPT0                    -38.31644465 [mEh]     -24.04393202 [kcal/mol]    -100.59981158 [kJ/mol]
  --------------------------------------------------------------------------------------------------------

*** Psi4 exiting successfully. Buy a developer a beer!
