                               Psi4 1.9 release

  ==> Input File <==

--------------------------------------------------------------------------
memory 32 GB # how much memory is available ! Depends on the nodes/cores !

molecule dimer {
# monomer A
+1 1    # Charge and multiplicity
C  0.680067 1.417258 -8.215929
C -0.680504 1.419286 -8.215545
N -1.085635 1.420284 -6.897221
C  0.000108 1.423560 -6.115820
C -2.477365 1.469690 -6.429242
N  1.085222 1.420284 -6.897221
H  1.385146 1.409430 -9.033368
H -1.385302 1.419096 -9.033214
H -0.000009 1.425307 -5.034731
C  2.478117 1.403392 -6.432123
H  2.490592 1.430737 -5.341870
H  2.967028 0.489946 -6.779299
H  3.001428 2.278875 -6.823595
H -2.857359 2.491761 -6.509201
H -3.082679 0.799606 -7.042306
H -2.518128 1.142706 -5.389294
--
# monomer B
0 1     # Charge and multiplicity
C   1.22531237526482      0.70753866091955      0.00613762728373
C   1.22532433589282     -0.70753852257020     -0.00619318228664
C   -0.00000567409046      1.41496628609039     -0.00672680580738
C   2.45644923379077      1.41832825917820      0.00902448468363
C   0.00001130712078     -1.41497612663474      0.00347275151708
C   -1.22530046906674      0.70754574598412      0.00838914760619
C   2.45643823516184     -1.41832293188077     -0.00843833914343
C   -0.00000085313587      2.83680140328112     -0.00913035594137
C   3.68182717731192      0.70931832800114     -0.00808954934571
C   2.45512052870677      2.83422403348893     -0.00819210630633
C   3.68182158506039     -0.70933346742900      0.00798293467272
C   -1.22531311884624     -0.70752714354401     -0.00512042085974
C   1.22670006104402      3.54346985599427      0.00816696660346
C   0.00000526469929     -2.83678176723568      0.00832091913869
C   -2.45643555300670      1.41831729028492      0.00842454345199
C   2.45512389762097     -2.83422965658853      0.00783102630520
C   -1.22671388474763      3.54346943575023      0.00827029982280
C   4.91451777504333      1.42717324448953     -0.00160886631602
C   3.69315067131765      3.54279566454522     -0.00155906667985
C   -2.45643712022637     -1.41831290883911     -0.00846337726810
C   1.22670532178455     -3.54347386990643     -0.00780316414624
C   -2.45512491866593      2.83421703463423     -0.00818572995999
C   4.91452486062398     -1.42718653794377      0.00136387641845
C   1.22142509354026      4.97013443726031      0.00150231067809
C   4.89300870916237      2.82518837202648     -0.00039219795739
C   -1.22669652864725     -3.54347062507680     -0.00753595973677
C   -3.68181849668397      0.70932533873199     -0.00807686886569
C   3.69314758099218     -3.54280096939050      0.00148176697923
C   -1.22143177215231      4.97012866986289      0.00168580605083
C   6.13477145276790      0.68054831910577     -0.00083909176631
C   3.65678936045204      4.97295361556775     -0.00065042889723
C   -2.45512642789169     -2.83421472106065      0.00758666850712
C   -3.68181869921921     -0.70932533146830      0.00810055625144
C   4.89301309775526     -2.82519973363176      0.00021895393805
C   -0.00000059327114      5.65044773803267      0.00045449734393
C   6.13477559217374     -0.68055448207492      0.00042622874941
C   2.47813196269732      5.65357712333155      0.00063835075260
C   1.22142288457925     -4.97012668293268     -0.00129718634452
C   -3.69316190412301      3.54279732619245     -0.00139355922051
C   -1.22142804110313     -4.97011793159564     -0.00140994817719
C   -4.91452132810043      1.42717581899491     -0.00153192130862
C   3.65678749952045     -4.97295485423912      0.00080007163680
C   -2.47813805026426      5.65357479452875      0.00092287576113
C   -3.69314125872231     -3.54278984697859      0.00136564082345
C   -4.91451200321153     -1.42718062802730      0.00139857359209
C   -0.00000552908399     -5.65043791501335      0.00005899322272
C   -4.89302000425900      2.82518897091939     -0.00040227981744
C   2.47812647313991     -5.65357317188818     -0.00029052915548
C   -3.65679823041642      4.97295655404175     -0.00047374852278
C   -4.89299899901461     -2.82519139505969      0.00006491824035
C   -2.47812801824129     -5.65356579800621     -0.00056571680280
C   -6.13477002348955      0.68054913825639     -0.00086464346868
C   -3.65678835334731     -4.97294365097028      0.00058578382008
C   -6.13476456307132     -0.68055354348201      0.00040575295444
H   5.83528897565761      3.36927626695423      0.00396712770529
H   7.07385965258860      1.22821762089947     -0.00037744837300
H   4.60066374401555      5.51238117445323     -0.00014522814529
H   5.83528386714679     -3.36930568472863     -0.00423551337640
H   -0.00001167146422      6.73853104613662     -0.00389474766392
H   7.07386165167227     -1.22822657074368     -0.00008250934481
H   2.47331421164041      6.74068466339473      0.00017162982210
H   4.60066897122302     -5.51237575717576      0.00039007446835
H   -2.47331820069565      6.74068209160650      0.00047297644710
H   -0.00000978838621     -6.73852780445195      0.00458867820736
H   -5.83530143450167      3.36927132229595      0.00410314985360
H   2.47330840367253     -6.74068500242887      0.00027980126949
H   -4.60067436136587      5.51237839860371      0.00002010017831
H   -5.83527902699321     -3.36928859177951     -0.00451481925734
H   -2.47329986759855     -6.74067870613986     -0.00016951527498
H   -7.07385728692578      1.22822084484047     -0.00046143985387
H   -4.60067330624313     -5.51236229778631      0.00021776644566
H   -7.07385645456741     -1.22822025997701     -0.00017736581114

    units angstrom      # Angstroms are the default
    no_reorient         # Geometry fixed, default
    symmetry c1         # C1 symmetry, default
}

set {
    scf_type DF         # Density fitting, faster than exact integrals
    freeze_core True    # Freeze core electrons
    basis jun-cc-pVDZ   # Jun-cc-pVDZ basis set, recommended for sSAPT0 in https://doi.org/10.1063/1.4867135
}

energy('ssapt0')        # Compute sSAPT0 energy, includes also SAPT0
--------------------------------------------------------------------------

  //              Dimer HF             //
    Molecular point group: c1
  Charge       = 1
  Multiplicity = 1
  Basis Set: JUN-CC-PVDZ
    Blend: JUN-CC-PVDZ
  Basis Set: (JUN-CC-PVDZ AUX)
    Blend: JUN-CC-PVDZ-JKFIT
  @DF-RHF Final Energy: -2359.19983471563501
    Total Energy =                      -2359.1998347156350064
 Dipole X            :         -0.0016365            0.0006313           -0.0010052
 Dipole Y            :         -5.6206389            7.4856329            1.8649940
 Dipole Z            :         24.4095214          -34.6019279          -10.1924064
 Magnitude           :                                                   10.3616289
  //            Monomer A HF           //
    Molecular point group: c1
  Multiplicity = 1
  Basis Set: JUN-CC-PVDZ
    Blend: JUN-CC-PVDZ
  Basis Set: (JUN-CC-PVDZ AUX)
    Blend: JUN-CC-PVDZ-JKFIT
  @DF-RHF Final Energy:  -303.29726597794422
    Total Energy =                       -303.2972659779442210
  //            Monomer B HF           //
    Molecular point group: c1

    Geometry (in Angstrom), charge = 0, multiplicity = 1:

       Center              X                  Y                   Z               Mass
    ------------   -----------------  -----------------  -----------------  -----------------
      Gh(C)           0.680066520158     1.235968212970    -7.325574220489    12.000000000000
      Gh(C)          -0.680504479842     1.237996212970    -7.325190220489    12.000000000000
      Gh(N)          -1.085635479842     1.238994212970    -6.006866220489    14.003074004430
      Gh(C)           0.000107520158     1.242270212970    -5.225465220489    12.000000000000
      Gh(C)          -2.477365479842     1.288400212970    -5.538887220489    12.000000000000
      Gh(N)           1.085221520158     1.238994212970    -6.006866220489    14.003074004430
      Gh(H)           1.385145520158     1.228140212970    -8.143013220489     1.007825032230
      Gh(H)          -1.385302479842     1.237806212970    -8.142859220489     1.007825032230
      Gh(H)          -0.000009479842     1.244017212970    -4.144376220489     1.007825032230
      Gh(C)           2.478116520158     1.222102212970    -5.541768220489    12.000000000000
      Gh(H)           2.490591520158     1.249447212970    -4.451515220489     1.007825032230
      Gh(H)           2.967027520158     0.308656212970    -5.888944220489     1.007825032230
      Gh(H)           3.001427520158     2.097585212970    -5.933240220489     1.007825032230
      Gh(H)          -2.857359479842     2.310471212970    -5.618846220489     1.007825032230
      Gh(H)          -3.082679479842     0.618316212970    -6.151951220489     1.007825032230
      Gh(H)          -2.518128479842     0.961416212970    -4.498939220489     1.007825032230
         C            1.225311895423     0.526248873889     0.896492406795    12.000000000000
         C            1.225323856051    -0.888828309601     0.884161597225    12.000000000000
         C           -0.000006153932     1.233676499060     0.883627973704    12.000000000000
         C            2.456448753949     1.237038472148     0.899379264195    12.000000000000
         C            0.000010827279    -1.596265913665     0.893827531028    12.000000000000
         C           -1.225300948908     0.526255958954     0.898743927117    12.000000000000
         C            2.456437755320    -1.599612718911     0.881916440368    12.000000000000
         C           -0.000001332978     2.655511616251     0.881224423570    12.000000000000
         C            3.681826697470     0.528028540971     0.882265230166    12.000000000000
         C            2.455120048865     2.652934246459     0.882162673205    12.000000000000
         C            3.681821105219    -0.890623254459     0.898337714184    12.000000000000
         C           -1.225313598688    -0.888816930574     0.885234358652    12.000000000000
         C            1.226699581202     3.362180068964     0.898521746115    12.000000000000
         C            0.000004784858    -3.018071554266     0.898675698650    12.000000000000
         C           -2.456436032848     1.237027503255     0.898779322963    12.000000000000
         C            2.455123417779    -3.015519443619     0.898185805816    12.000000000000
         C           -1.226714364589     3.362179648720     0.898625079334    12.000000000000
         C            4.914517295202     1.245883457459     0.888745913195    12.000000000000
         C            3.693150191476     3.361505877515     0.888795712831    12.000000000000
         C           -2.456437600068    -1.599602695869     0.881891402243    12.000000000000
         C            1.226704841943    -3.724763656937     0.882551615365    12.000000000000
         C           -2.455125398508     2.652927247604     0.882169049551    12.000000000000
         C            4.914524380782    -1.608476324974     0.891718655930    12.000000000000
         C            1.221424613699     4.788844650230     0.891857090189    12.000000000000
         C            4.893008229321     2.643898584996     0.889962581554    12.000000000000
         C           -1.226697008489    -3.724760412107     0.882818819775    12.000000000000
         C           -3.681818976526     0.528035551702     0.882277910646    12.000000000000
         C            3.693147101150    -3.724090756421     0.891836546491    12.000000000000
         C           -1.221432251994     4.788838882833     0.892040585562    12.000000000000
         C            6.134770972926     0.499258532075     0.889515687745    12.000000000000
         C            3.656788880610     4.791663828537     0.889704350614    12.000000000000
         C           -2.455126907733    -3.015504508091     0.897941448018    12.000000000000
         C           -3.681819179061    -0.890615118499     0.898455335763    12.000000000000
         C            4.893012617914    -3.006489520662     0.890573733449    12.000000000000
         C           -0.000001073113     5.469157951002     0.890809276855    12.000000000000
         C            6.134775112332    -0.861844269105     0.890781008261    12.000000000000
         C            2.478131482856     5.472287336301     0.890993130264    12.000000000000
         C            1.221422404738    -5.151416469963     0.889057593167    12.000000000000
         C           -3.693162383965     3.361507539162     0.888961220291    12.000000000000
         C           -1.221428520945    -5.151407718626     0.888944831334    12.000000000000
         C           -4.914521807942     1.245886031965     0.888822858203    12.000000000000
         C            3.656787019679    -5.154244641269     0.891154851148    12.000000000000
         C           -2.478138530106     5.472285007498     0.891277655272    12.000000000000
         C           -3.693141738564    -3.724079634009     0.891720420335    12.000000000000
         C           -4.914512483053    -1.608470415058     0.891753353103    12.000000000000
         C           -0.000006008926    -5.831727702044     0.890413772734    12.000000000000
         C           -4.893020484101     2.643899183889     0.889952499694    12.000000000000
         C            2.478125993298    -5.834862958919     0.890064250356    12.000000000000
         C           -3.656798710258     4.791666767011     0.889881030989    12.000000000000
         C           -4.892999478856    -3.006481182090     0.890419697752    12.000000000000
         C           -2.478128498083    -5.834855585037     0.889789062708    12.000000000000
         C           -6.134770503331     0.499259351226     0.889490136043    12.000000000000
         C           -3.656788833189    -5.154233438001     0.890940563331    12.000000000000
         C           -6.134765042913    -0.861843330512     0.890760532466    12.000000000000
         H            5.835288495816     3.187986479924     0.894321907217     1.007825032230
         H            7.073859172747     1.046927833869     0.889977331138     1.007825032230
         H            4.600663264174     5.331091387423     0.890209551366     1.007825032230
         H            5.835283387305    -3.550595471759     0.886119266135     1.007825032230
         H           -0.000012151306     6.557241259106     0.886460031847     1.007825032230
         H            7.073861171831    -1.409516357774     0.890272270166     1.007825032230
         H            2.473313731799     6.559394876364     0.890526409333     1.007825032230
         H            4.600668491381    -5.693665544206     0.890744853980     1.007825032230
         H           -2.473318680537     6.559392304576     0.890827755958     1.007825032230
         H           -0.000010268228    -6.919817591482     0.894943457719     1.007825032230
         H           -5.835301914343     3.187981535266     0.894457929365     1.007825032230
         H            2.473307923831    -6.921974789459     0.890634580781     1.007825032230
         H           -4.600674841208     5.331088611573     0.890374879690     1.007825032230
         H           -5.835279506835    -3.550578378810     0.885839960254     1.007825032230
         H           -2.473300347440    -6.921968493170     0.890185264236     1.007825032230
         H           -7.073857766768     1.046931057810     0.889893339657     1.007825032230
         H           -4.600673786085    -5.693652084817     0.890572545957     1.007825032230
         H           -7.073856934409    -1.409510047007     0.890177413700     1.007825032230

  Charge       = 0
  Multiplicity = 1
  Basis Set: JUN-CC-PVDZ
    Blend: JUN-CC-PVDZ
  Basis Set: (JUN-CC-PVDZ AUX)
    Blend: JUN-CC-PVDZ-JKFIT

    Orbital Energies [Eh]
    ---------------------

    Doubly Occupied:

       1A    -11.260636     2A    -11.260193     3A    -11.260192
       4A    -11.259483     5A    -11.259482     6A    -11.259312
       7A    -11.259103     8A    -11.259027     9A    -11.259024
      10A    -11.258700    11A    -11.258698    12A    -11.258629
      13A    -11.258566    14A    -11.258563    15A    -11.258558
      16A    -11.258530    17A    -11.258524    18A    -11.258507
      19A    -11.258495    20A    -11.258488    21A    -11.258484
      22A    -11.258384    23A    -11.258381    24A    -11.258081
      25A    -11.257423    26A    -11.257362    27A    -11.257359
      28A    -11.257225    29A    -11.257225    30A    -11.257140
      31A    -11.256518    32A    -11.256447    33A    -11.256446
      34A    -11.256338    35A    -11.256336    36A    -11.256289
      37A    -11.252375    38A    -11.252373    39A    -11.252365
      40A    -11.252364    41A    -11.252362    42A    -11.252360
      43A    -11.251504    44A    -11.251497    45A    -11.251494
      46A    -11.251489    47A    -11.251486    48A    -11.251480
      49A    -11.250937    50A    -11.250934    51A    -11.250927
      52A    -11.250925    53A    -11.250923    54A    -11.250921
      55A     -1.244233    56A     -1.219962    57A     -1.219962
      58A     -1.189676    59A     -1.189668    60A     -1.181108
      61A     -1.157680    62A     -1.149108    63A     -1.135651
      64A     -1.135642    65A     -1.113313    66A     -1.113308
      67A     -1.082576    68A     -1.082568    69A     -1.078755
      70A     -1.066096    71A     -1.066093    72A     -1.039530
      73A     -1.024432    74A     -1.021933    75A     -1.021888
      76A     -1.017844    77A     -1.012907    78A     -0.987167
      79A     -0.987120    80A     -0.962003    81A     -0.961953
      82A     -0.894420    83A     -0.894394    84A     -0.888102
      85A     -0.886350    86A     -0.886293    87A     -0.881544
      88A     -0.881497    89A     -0.862026    90A     -0.837513
      91A     -0.818340    92A     -0.816773    93A     -0.812283
      94A     -0.812275    95A     -0.794810    96A     -0.794799
      97A     -0.746778    98A     -0.745008    99A     -0.733573
     100A     -0.733566   101A     -0.732306   102A     -0.732283
     103A     -0.716645   104A     -0.699103   105A     -0.699089
     106A     -0.693725   107A     -0.693706   108A     -0.661354
     109A     -0.653274   110A     -0.651318   111A     -0.650373
     112A     -0.650367   113A     -0.639482   114A     -0.639479
     115A     -0.629858   116A     -0.627670   117A     -0.627653
     118A     -0.606475   119A     -0.605901   120A     -0.601808
     121A     -0.599871   122A     -0.599837   123A     -0.593769
     124A     -0.591390   125A     -0.591377   126A     -0.585381
     127A     -0.576429   128A     -0.576409   129A     -0.567436
     130A     -0.567421   131A     -0.566108   132A     -0.566090
     133A     -0.558882   134A     -0.554975   135A     -0.554970
     136A     -0.538714   137A     -0.538711   138A     -0.538268
     139A     -0.538262   140A     -0.529845   141A     -0.528196
     142A     -0.523003   143A     -0.522993   144A     -0.500623
     145A     -0.495693   146A     -0.493360   147A     -0.487921
     148A     -0.485211   149A     -0.481894   150A     -0.481886
     151A     -0.470407   152A     -0.470397   153A     -0.451187
     154A     -0.451110   155A     -0.439160   156A     -0.439151
     157A     -0.404837   158A     -0.404814   159A     -0.403460
     160A     -0.375514   161A     -0.375510   162A     -0.349216
     163A     -0.337678   164A     -0.336645   165A     -0.336590
     166A     -0.311191   167A     -0.298182   168A     -0.284442
     169A     -0.284391   170A     -0.225014   171A     -0.224949

  @DF-RHF Final Energy: -2055.89211882394511

   => Energetics <=

    Nuclear Repulsion Energy =           6452.5568002797781446
    One-Electron Energy =              -15636.4417576042123983
    Two-Electron Energy =                7127.9928385004877782
    Total Energy =                      -2055.8921188239455660
 Dipole X            :          0.0001297           -0.0000085            0.0001212
 Dipole Y            :        117.1663291         -117.1648546            0.0014745
 Dipole Z            :       -575.4168544          575.4226842            0.0058298
 Magnitude           :                                                    0.0060146

    SAPT Results
  --------------------------------------------------------------------------------------------------------
    Electrostatics                 -7.68908241 [mEh]      -4.82497206 [kcal/mol]     -20.18768308 [kJ/mol]
      Elst10,r                     -7.68908241 [mEh]      -4.82497206 [kcal/mol]     -20.18768308 [kJ/mol]

    Exchange                        0.00057799 [mEh]       0.00036269 [kcal/mol]       0.00151751 [kJ/mol]
      Exch10                        0.00057799 [mEh]       0.00036269 [kcal/mol]       0.00151751 [kJ/mol]
      Exch10(S^2)                   0.00057799 [mEh]       0.00036269 [kcal/mol]       0.00151751 [kJ/mol]

    Induction                      -2.76140933 [mEh]      -1.73281051 [kcal/mol]      -7.25007919 [kJ/mol]
      Ind20,r                      -2.69838969 [mEh]      -1.69326509 [kcal/mol]      -7.08462115 [kJ/mol]
      Exch-Ind20,r                  0.00087458 [mEh]       0.00054880 [kcal/mol]       0.00229620 [kJ/mol]
      delta HF,r (2)               -0.06389421 [mEh]      -0.04009422 [kcal/mol]      -0.16775424 [kJ/mol]

    Dispersion                     -1.53065363 [mEh]      -0.96049966 [kcal/mol]      -4.01873056 [kJ/mol]
      Disp20                       -1.53098974 [mEh]      -0.96071056 [kcal/mol]      -4.01961300 [kJ/mol]
      Exch-Disp20                   0.00033610 [mEh]       0.00021091 [kcal/mol]       0.00088244 [kJ/mol]
      Disp20 (SS)                  -0.76549487 [mEh]      -0.48035528 [kcal/mol]      -2.00980650 [kJ/mol]
      Disp20 (OS)                  -0.76549487 [mEh]      -0.48035528 [kcal/mol]      -2.00980650 [kJ/mol]
      Exch-Disp20 (SS)              0.00024892 [mEh]       0.00015620 [kcal/mol]       0.00065353 [kJ/mol]
      Exch-Disp20 (OS)              0.00008719 [mEh]       0.00005471 [kcal/mol]       0.00022891 [kJ/mol]

  Total HF                        -10.44991375 [mEh]      -6.55741988 [kcal/mol]     -27.43624476 [kJ/mol]
  Total SAPT0                     -11.98056738 [mEh]      -7.51791953 [kcal/mol]     -31.45497532 [kJ/mol]

  Special recipe for scaled SAPT0 (see Manual):
    Electrostatics sSAPT0          -7.68908241 [mEh]      -4.82497206 [kcal/mol]     -20.18768308 [kJ/mol]
    Exchange sSAPT0                 0.00057799 [mEh]       0.00036269 [kcal/mol]       0.00151751 [kJ/mol]
    Induction sSAPT0               -2.76140933 [mEh]      -1.73281051 [kcal/mol]      -7.25007919 [kJ/mol]
    Dispersion sSAPT0              -1.53065363 [mEh]      -0.96049966 [kcal/mol]      -4.01873056 [kJ/mol]
  Total sSAPT0                    -11.98056738 [mEh]      -7.51791953 [kcal/mol]     -31.45497532 [kJ/mol]
  --------------------------------------------------------------------------------------------------------

*** Psi4 exiting successfully. Buy a developer a beer!
