                               Psi4 1.9 release

  ==> Input File <==

--------------------------------------------------------------------------
memory 64 GB # how much memory is available ! Depends on the nodes/cores !

molecule dimer {
# monomer A
+1 1    # Charge and multiplicity
C  0.680067 -0.008042 -8.015929
C -0.680504 -0.006014 -8.015545
N -1.085635 -0.005016 -6.697221
C  0.000108 -0.001740 -5.915820
C -2.477365  0.044390 -6.229242
N  1.085222 -0.005016 -6.697221
H  1.385146 -0.015870 -8.833368
H -1.385302 -0.006204 -8.833214
H -0.000009  0.000007 -4.834731
C  2.478117 -0.021908 -6.232123
H  2.490592  0.005437 -5.141870
H  2.967028 -0.935354 -6.579299
H  3.001428  0.853575 -6.623595
H -2.857359  1.066461 -6.309201
H -3.082679 -0.625694 -6.842306
H -2.518128 -0.282594 -5.189294
--
# monomer B
0 1     # Charge and multiplicity
C   -3.66844126402057      7.80375217008252      0.00190004133558
C   -4.84759871934653      7.13124183134024     -0.00046653359696
C   -4.89495929917518      5.69633040353158     -0.00103944469517
C   -3.65374067877320      4.98073034095895      0.00662099703436
C   -2.40942512149445      7.11398103667468      0.00209438359570
C   -2.42547734410473      5.68112195090346     -0.00491050527438
C   -1.19474401643570      7.78614419430947      0.00356656413763
C   0.03795902893699      7.09942164575698      0.00139585983271
C   0.03033258741920      5.66948955970466     -0.00408752508301
C   -1.20098450790502      4.96927034791531      0.00488220885047
C   1.27795782581485      7.77285944319479      0.00277170839332
C   2.48535808472416      7.08769688523756      0.00049722048857
C   2.48612868491717      5.65477081024076     -0.00644052849921
C   1.25408291964399      4.95607811366431      0.00518741308898
C   3.75171459140595      7.76391215098033      0.00062407186893
C   4.92356605618520      7.07878077698995     -0.00143240883900
C   4.95560727132542      5.64344746336949     -0.00159282164606
C   3.70680153420475      4.94121020833308      0.00349873852374
H   -3.65852113775815      8.89082741913536      0.00358502958574
H   -1.18921332975660      8.87412108735996      0.00753844057883
H   1.28429423888630      8.86083343548850      0.00693053253426
H   3.75354208679975      8.85103527897216      0.00214659618464
H   5.86995870320703      7.61379483465560     -0.00235777588134
H   -5.78823170750226      7.67630221293400     -0.00202638095293
C   -6.09197395869619      4.99326001364347     -0.00291168518608
C   -6.12866148031747      3.58258016879823     -0.00171050815740
C   -3.66457974004527      3.56418217974434     -0.00463560277484
C   -4.89429820469869      2.86108077590057      0.00453338221034
C   -2.43733499489796      2.84761165708481      0.00719617576166
C   -1.20922785759670      3.54788693497833     -0.00648285103018
C   1.24714157216223      3.53468075142962     -0.00729145743546
C   0.01517603956900      2.83311183930540      0.00439272578912
C   2.46764517244071      2.82128997725533      0.00449278391269
C   3.70254947457969      3.52466015442405     -0.00899517692985
C   6.14498038638375      4.92757236613191     -0.00282626685777
C   6.16658835886151      3.51658447594213     -0.00065971342101
C   4.92460995845939      2.80840792535402      0.00587903281610
H   7.08990550964105      5.46688776622306     -0.00658814770723
H   -7.03104175110130      5.54268795285765     -0.00714490013730
C   -7.33969804112295      2.85841153457957     -0.00333767559888
C   -7.36488195805880      1.47032337158330     -0.00157213747140
C   -4.90350460894690      1.44442681216000     -0.00628840166334
C   -6.13225715261081      0.73993935705394      0.00600164231964
C   -3.67687480051673      0.72669714267312      0.00433931473643
C   -2.44565658606518      1.42964113326212     -0.00597039546461
C   -1.22360068130162      0.71532450163492      0.00545886906656
C   0.00763786931376      1.41738314923765      0.00392452278437
C   1.23121980774686      0.70211669058719     -0.01490206287210
C   2.46082110053113      1.40329203612573      0.00460244601878
C   3.68443025419614      0.68719842821222      0.00377365974158
C   4.91870890153864      1.39173456118907     -0.00862816189375
C   7.36980207796101      2.77948220318441     -0.00242013321349
C   7.38016266612146      1.39121750785509     -0.00087345036788
C   6.13979953912259      0.67411862320065      0.00545489144369
H   -8.27919079934664      3.40711804112415     -0.00763522772059
H   8.31511347147953      3.31811809662368     -0.00663070901292
C   -8.59175593758115      0.72483255304480     -0.00123170985383
C   -8.59902460370342     -0.63263980622873      0.00089141472904
C   -6.13981313911873     -0.67413663715361     -0.00609792660607
C   -7.38018411213749     -1.39126618958160      0.00131813493501
C   -4.91868448025621     -1.39175501803000      0.00624257154343
C   -3.68443829568458     -0.68723731573599     -0.00478966852105
C   -2.46081704024768     -1.40334517882457      0.00575341766833
C   -1.23116201232071     -0.70217386488055     -0.00636696112346
C   -0.00756962538737     -1.41741884941102      0.00108956317991
C   1.22364771588843     -0.71527537726392      0.01109518512883
C   2.44567064933149     -1.42964328900682     -0.00065482763106
C   3.67686670284649     -0.72670743155550     -0.00479541202602
C   6.13224884641929     -0.73997883984993     -0.00632338623858
C   4.90351914550401     -1.44445752054090      0.00751768830159
C   8.59901484869081      0.63260386666793     -0.00101133422380
C   8.59174548810050     -0.72485086719319      0.00072504603735
C   7.36486276438985     -1.47033266560598      0.00049486934466
H   -9.52830597181814      1.27684744919284     -0.00270163681798
H   9.54141097460619      1.17457248844457     -0.00206336648518
C   -7.36983790976868     -2.77954514593389      0.00312634335708
C   -4.92459910905015     -2.80843725734101     -0.00460528907921
C   -6.16662249566744     -3.51665219282533      0.00169655107992
C   -3.70251035970491     -3.52468154912026      0.00571878010666
C   -2.46764698511392     -2.82132596280400     -0.00632585824990
C   -0.01513347410770     -2.83314164539971     -0.00604426974092
C   -1.24712184122656     -3.53473217556300      0.00551968366725
C   1.20924506964357     -3.54791467864352      0.00805871345849
C   2.43733602215464     -2.84764173817541     -0.00608104485234
C   4.89430234377080     -2.86112296828604     -0.00526030478103
C   3.66461525504104     -3.56421984553201      0.00761911515957
C   6.12863901474565     -3.58258405771778      0.00096495711699
C   7.33967266469532     -2.85841330737039      0.00248018319869
H   -9.54144911125902     -1.17456346666430      0.00226083090216
H   9.52826186807155     -1.27691907390448      0.00197485379837
H   -8.31516504384864     -3.31814985321231      0.00729857188773
H   8.27915514249207     -3.40714078989363      0.00681973918158
C   -6.14499418870218     -4.92764727278338      0.00302254913999
C   -3.70678334799751     -4.94126171411716     -0.00679841894792
C   -4.95559005800169     -5.64349397349412      0.00116871569699
C   -2.48612132622665     -5.65478557440947      0.00614125209662
C   -1.25405833548005     -4.95612205000132     -0.00503435388927
C   1.20101257386816     -4.96928038819302     -0.00385322963129
C   -0.03033667441341     -5.66952030313900      0.00398997003238
C   3.65375010132847     -4.98074377541453     -0.00309522988330
C   2.42549269587528     -5.68117463552727      0.00628170066869
C   6.09196561781097     -4.99325796338655      0.00325918379042
C   4.89497644461045     -5.69634842095790      0.00202298796027
H   -7.08989238804069     -5.46699984223871      0.00742531082125
H   7.03105520920009     -5.54265853633254      0.00683896355417
C   -4.92354532219813     -7.07882109967734      0.00061394679214
C   -2.48534208823777     -7.08772807792913     -0.00189594564379
C   -3.75168589177895     -7.76394715763627     -0.00170126671874
C   -0.03794895698805     -7.09946487446944     -0.00168022049625
C   -1.27795610040136     -7.77290438466689     -0.00366491325785
C   2.40944432072629     -7.11402201200282     -0.00081701968533
C   1.19474993715296     -7.78618536556242     -0.00296931056689
C   4.84762105249800     -7.13126211057943      0.00168979497423
C   3.66847160587561     -7.80378799294376     -0.00065863938960
H   -5.86994035041618     -7.61383059804164      0.00215798365757
H   5.78824962538815     -7.67633218931421      0.00281691445618
H   -3.75352693944918     -8.85107156923607     -0.00353718114765
H   -1.28430440589466     -8.86087539249706     -0.00809229711623
H   1.18922157469537     -8.87416062058945     -0.00706194725726
H   3.65854661482387     -8.89086063405326     -0.00231318081200

    units angstrom      # Angstroms are the default
    no_reorient         # Geometry fixed, default
    symmetry c1         # C1 symmetry, default
}

set {
    scf_type DF         # Density fitting, faster than exact integrals
    freeze_core True    # Freeze core electrons
    basis jun-cc-pVDZ   # Jun-cc-pVDZ basis set, recommended for sSAPT0 in https://doi.org/10.1063/1.4867135
}

energy('ssapt0')        # Compute sSAPT0 energy, includes also SAPT0
--------------------------------------------------------------------------

  //              Dimer HF             //
    Molecular point group: c1
  Charge       = 1
  Multiplicity = 1
  Basis Set: JUN-CC-PVDZ
    Blend: JUN-CC-PVDZ
  Basis Set: (JUN-CC-PVDZ AUX)
    Blend: JUN-CC-PVDZ-JKFIT
  @DF-RHF Final Energy: -3953.64846105149991
    Total Energy =                      -3953.6484610514999076
 Dipole X            :         -0.0023075            0.0004804           -0.0018271
 Dipole Y            :         -0.0496397            0.0561130            0.0064733
 Dipole Z            :         29.1426638          -39.4115677          -10.2689039
 Magnitude           :                                                   10.2689061
  //            Monomer A HF           //
    Molecular point group: c1
  Multiplicity = 1
  Basis Set: JUN-CC-PVDZ
    Blend: JUN-CC-PVDZ
  Basis Set: (JUN-CC-PVDZ AUX)
    Blend: JUN-CC-PVDZ-JKFIT
  @DF-RHF Final Energy:  -303.29729857052121
    Total Energy =                       -303.2972985705212068
  //            Monomer B HF           //
    Molecular point group: c1

    Geometry (in Angstrom), charge = 0, multiplicity = 1:

       Center              X                  Y                   Z               Mass
    ------------   -----------------  -----------------  -----------------  -----------------
      Gh(C)           0.680062820275    -0.008027535675    -7.497487303813    12.000000000000
      Gh(C)          -0.680508179725    -0.005999535675    -7.497103303813    12.000000000000
      Gh(N)          -1.085639179725    -0.005001535675    -6.178779303813    14.003074004430
      Gh(C)           0.000103820275    -0.001725535675    -5.397378303813    12.000000000000
      Gh(C)          -2.477369179725     0.044404464325    -5.710800303813    12.000000000000
      Gh(N)           1.085217820275    -0.005001535675    -6.178779303813    14.003074004430
      Gh(H)           1.385141820275    -0.015855535675    -8.314926303813     1.007825032230
      Gh(H)          -1.385306179725    -0.006189535675    -8.314772303813     1.007825032230
      Gh(H)          -0.000013179725     0.000021464325    -4.316289303813     1.007825032230
      Gh(C)           2.478112820275    -0.021893535675    -5.713681303813    12.000000000000
      Gh(H)           2.490587820275     0.005451464325    -4.623428303813     1.007825032230
      Gh(H)           2.967023820275    -0.935339535675    -6.060857303813     1.007825032230
      Gh(H)           3.001423820275     0.853589464325    -6.105153303813     1.007825032230
      Gh(H)          -2.857363179725     1.066475464325    -5.790759303813     1.007825032230
      Gh(H)          -3.082683179725    -0.625679535675    -6.323864303813     1.007825032230
      Gh(H)          -2.518132179725    -0.282579535675    -4.670852303813     1.007825032230
         C           -3.668445443746     7.803766634408     0.520341737522    12.000000000000
         C           -4.847602899072     7.131256295665     0.517975162590    12.000000000000
         C           -4.894963478901     5.696344867857     0.517402251491    12.000000000000
         C           -3.653744858499     4.980744805284     0.525062693221    12.000000000000
         C           -2.409429301220     7.113995501000     0.520536079782    12.000000000000
         C           -2.425481523830     5.681136415228     0.513531190912    12.000000000000
         C           -1.194748196161     7.786158658634     0.522008260324    12.000000000000
         C            0.037954849212     7.099436110082     0.519837556019    12.000000000000
         C            0.030328407694     5.669504024030     0.514354171104    12.000000000000
         C           -1.200988687630     4.969284812240     0.523323905037    12.000000000000
         C            1.277953646089     7.772873907520     0.521213404580    12.000000000000
         C            2.485353904999     7.087711349563     0.518938916675    12.000000000000
         C            2.486124505192     5.654785274566     0.512001167687    12.000000000000
         C            1.254078739919     4.956092577989     0.523629109276    12.000000000000
         C            3.751710411681     7.763926615305     0.519065768056    12.000000000000
         C            4.923561876460     7.078795241315     0.517009287348    12.000000000000
         C            4.955603091600     5.643461927694     0.516848874541    12.000000000000
         C            3.706797354479     4.941224672658     0.521940434710    12.000000000000
         H           -3.658525317484     8.890841883460     0.522026725772     1.007825032230
         H           -1.189217509482     8.874135551685     0.525980136765     1.007825032230
         H            1.284290059161     8.860847899813     0.525372228721     1.007825032230
         H            3.753537907074     8.851049743297     0.520588292371     1.007825032230
         H            5.869954523482     7.613809298981     0.516083920305     1.007825032230
         H           -5.788235887228     7.676316677259     0.516415315234     1.007825032230
         C           -6.091978138422     4.993274477968     0.515530011001    12.000000000000
         C           -6.128665660043     3.582594633123     0.516731188029    12.000000000000
         C           -3.664583919771     3.564196644069     0.513806093412    12.000000000000
         C           -4.894302384424     2.861095240226     0.522975078397    12.000000000000
         C           -2.437339174623     2.847626121410     0.525637871948    12.000000000000
         C           -1.209232037322     3.547901399303     0.511958845156    12.000000000000
         C            1.247137392437     3.534695215755     0.511150238751    12.000000000000
         C            0.015171859844     2.833126303630     0.522834421976    12.000000000000
         C            2.467640992715     2.821304441580     0.522934480099    12.000000000000
         C            3.702545294854     3.524674618749     0.509446519257    12.000000000000
         C            6.144976206658     4.927586830457     0.515615429329    12.000000000000
         C            6.166584179136     3.516598940267     0.517781982766    12.000000000000
         C            4.924605778734     2.808422389679     0.524320729003    12.000000000000
         H            7.089901329916     5.466902230548     0.511853548479     1.007825032230
         H           -7.031045930827     5.542702417183     0.511296796049     1.007825032230
         C           -7.339702220848     2.858425998905     0.515104020588    12.000000000000
         C           -7.364886137784     1.470337835908     0.516869558715    12.000000000000
         C           -4.903508788672     1.444441276485     0.512153294523    12.000000000000
         C           -6.132261332336     0.739953821379     0.524443338506    12.000000000000
         C           -3.676878980242     0.726711606998     0.522781010923    12.000000000000
         C           -2.445660765791     1.429655597587     0.512471300722    12.000000000000
         C           -1.223604861027     0.715338965960     0.523900565253    12.000000000000
         C            0.007633689588     1.417397613563     0.522366218971    12.000000000000
         C            1.231215628021     0.702131154912     0.503539633314    12.000000000000
         C            2.460816920806     1.403306500451     0.523044142205    12.000000000000
         C            3.684426074471     0.687212892537     0.522215355928    12.000000000000
         C            4.918704721813     1.391749025514     0.509813534293    12.000000000000
         C            7.369797898236     2.779496667509     0.516021562973    12.000000000000
         C            7.380158486396     1.391231972180     0.517568245819    12.000000000000
         C            6.139795359397     0.674133087526     0.523896587630    12.000000000000
         H           -8.279194979072     3.407132505449     0.510806468466     1.007825032230
         H            8.315109291754     3.318132560949     0.511810987174     1.007825032230
         C           -8.591760117307     0.724847017370     0.517209986333    12.000000000000
         C           -8.599028783429    -0.632625341904     0.519333110916    12.000000000000
         C           -6.139817318844    -0.674122172829     0.512343769581    12.000000000000
         C           -7.380188291863    -1.391251725257     0.519759831122    12.000000000000
         C           -4.918688659982    -1.391740553705     0.524684267730    12.000000000000
         C           -3.684442475410    -0.687222851411     0.513652027666    12.000000000000
         C           -2.460821219973    -1.403330714500     0.524195113855    12.000000000000
         C           -1.231166192046    -0.702159400556     0.512074735063    12.000000000000
         C           -0.007573805113    -1.417404385086     0.519531259367    12.000000000000
         C            1.223643536163    -0.715260912939     0.529536881315    12.000000000000
         C            2.445666469606    -1.429628824682     0.517786868556    12.000000000000
         C            3.676862523121    -0.726692967231     0.513646284161    12.000000000000
         C            6.132244666694    -0.739964375525     0.512118309948    12.000000000000
         C            4.903514965779    -1.444443056216     0.525959384488    12.000000000000
         C            8.599010668965     0.632618330993     0.517430361963    12.000000000000
         C            8.591741308375    -0.724836402868     0.519166742224    12.000000000000
         C            7.364858584664    -1.470318201281     0.518936565531    12.000000000000
         H           -9.528310151544     1.276861913518     0.515740059369     1.007825032230
         H            9.541406794881     1.174586952770     0.516378329701     1.007825032230
         C           -7.369842089494    -2.779530681609     0.521568039544    12.000000000000
         C           -4.924603288776    -2.808422793016     0.513836407107    12.000000000000
         C           -6.166626675393    -3.516637728500     0.520138247267    12.000000000000
         C           -3.702514539430    -3.524667084795     0.524160476293    12.000000000000
         C           -2.467651164839    -2.821311498479     0.512115837937    12.000000000000
         C           -0.015137653833    -2.833127181075     0.512397426446    12.000000000000
         C           -1.247126020952    -3.534717711238     0.523961379854    12.000000000000
         C            1.209240889918    -3.547900214319     0.526500409645    12.000000000000
         C            2.437331842429    -2.847627273850     0.512360651334    12.000000000000
         C            4.894298164045    -2.861108503961     0.513181391406    12.000000000000
         C            3.664611075316    -3.564205381207     0.526060811346    12.000000000000
         C            6.128634835020    -3.582569593393     0.519406653304    12.000000000000
         C            7.339668484970    -2.858398843045     0.520921879385    12.000000000000
         H           -9.541453290984    -1.174549002339     0.520702527089     1.007825032230
         H            9.528257688346    -1.276904609579     0.520416549985     1.007825032230
         H           -8.315169223574    -3.318135388887     0.525740268074     1.007825032230
         H            8.279150962767    -3.407126325569     0.525261435368     1.007825032230
         C           -6.144998368428    -4.927632808458     0.521464245327    12.000000000000
         C           -3.706787527723    -4.941247249792     0.511643277239    12.000000000000
         C           -4.955594237727    -5.643479509169     0.519610411884    12.000000000000
         C           -2.486125505952    -5.654771110084     0.524582948283    12.000000000000
         C           -1.254062515205    -4.956107585676     0.513407342297    12.000000000000
         C            1.201008394143    -4.969265923868     0.514588466555    12.000000000000
         C           -0.030340854139    -5.669505838814     0.522431666219    12.000000000000
         C            3.653745921603    -4.980729311090     0.515346466303    12.000000000000
         C            2.425488516150    -5.681160171202     0.524723396855    12.000000000000
         C            6.091961438086    -4.993243499062     0.521700879977    12.000000000000
         C            4.894972264885    -5.696333956633     0.520464684147    12.000000000000
         H           -7.089896567766    -5.466985377914     0.525867007008     1.007825032230
         H            7.031051029475    -5.542644072008     0.525280659741     1.007825032230
         C           -4.923549501924    -7.078806635352     0.519055642979    12.000000000000
         C           -2.485346267963    -7.087713613604     0.516545750543    12.000000000000
         C           -3.751690071504    -7.763932693311     0.516740429468    12.000000000000
         C           -0.037953136713    -7.099450410144     0.516761475690    12.000000000000
         C           -1.277960280127    -7.772889920342     0.514776782929    12.000000000000
         C            2.409440141001    -7.114007547678     0.517624676501    12.000000000000
         C            1.194745757428    -7.786170901237     0.515472385620    12.000000000000
         C            4.847616872773    -7.131247646254     0.520131491161    12.000000000000
         C            3.668467426150    -7.803773528619     0.517783056797    12.000000000000
         H           -5.869944530142    -7.613816133717     0.520599679844     1.007825032230
         H            5.788245445663    -7.676317724989     0.521258610643     1.007825032230
         H           -3.753531119175    -8.851057104911     0.514904515039     1.007825032230
         H           -1.284308585620    -8.860860928172     0.510349399070     1.007825032230
         H            1.189217394970    -8.874146156264     0.511379748929     1.007825032230
         H            3.658542435098    -8.890846169728     0.516128515375     1.007825032230

  Charge       = 0
  Multiplicity = 1
  Basis Set: JUN-CC-PVDZ
    Blend: JUN-CC-PVDZ
  Basis Set: (JUN-CC-PVDZ AUX)
    Blend: JUN-CC-PVDZ-JKFIT

    Orbital Energies [Eh]
    ---------------------

    Doubly Occupied:

       1A    -11.264033     2A    -11.263717     3A    -11.263714
       4A    -11.263370     5A    -11.263366     6A    -11.263332
       7A    -11.263175     8A    -11.263150     9A    -11.263148
      10A    -11.262986    11A    -11.262829    12A    -11.262824
      13A    -11.262346    14A    -11.262342    15A    -11.262272
      16A    -11.262271    17A    -11.262217    18A    -11.262185
      19A    -11.262140    20A    -11.262102    21A    -11.262100
      22A    -11.261950    23A    -11.261945    24A    -11.261825
      25A    -11.261813    26A    -11.261796    27A    -11.261792
      28A    -11.261747    29A    -11.261738    30A    -11.261663
      31A    -11.261638    32A    -11.261633    33A    -11.261607
      34A    -11.261606    35A    -11.261585    36A    -11.261541
      37A    -11.261402    38A    -11.261392    39A    -11.261386
      40A    -11.261379    41A    -11.261373    42A    -11.261364
      43A    -11.261359    44A    -11.261344    45A    -11.261340
      46A    -11.261318    47A    -11.261312    48A    -11.261309
      49A    -11.261150    50A    -11.261119    51A    -11.261115
      52A    -11.261035    53A    -11.261034    54A    -11.260964
      55A    -11.260000    56A    -11.259988    57A    -11.259983
      58A    -11.259956    59A    -11.259953    60A    -11.259937
      61A    -11.259376    62A    -11.259352    63A    -11.259347
      64A    -11.259297    65A    -11.259293    66A    -11.259265
      67A    -11.259004    68A    -11.258987    69A    -11.258984
      70A    -11.258957    71A    -11.258954    72A    -11.258943
      73A    -11.254581    74A    -11.254580    75A    -11.254576
      76A    -11.254575    77A    -11.254570    78A    -11.254566
      79A    -11.253727    80A    -11.253726    81A    -11.253724
      82A    -11.253721    83A    -11.253719    84A    -11.253712
      85A    -11.253642    86A    -11.253641    87A    -11.253639
      88A    -11.253637    89A    -11.253635    90A    -11.253628
      91A    -11.253109    92A    -11.253108    93A    -11.253104
      94A    -11.253103    95A    -11.253098    96A    -11.253094
      97A     -1.254099    98A     -1.239119    99A     -1.239113
     100A     -1.220565   101A     -1.220559   102A     -1.215579
     103A     -1.201129   104A     -1.195697   105A     -1.188273
     106A     -1.188268   107A     -1.173848   108A     -1.173846
     109A     -1.155747   110A     -1.155744   111A     -1.152849
     112A     -1.144803   113A     -1.144800   114A     -1.128675
     115A     -1.114830   116A     -1.113245   117A     -1.112611
     118A     -1.112595   119A     -1.111694   120A     -1.088535
     121A     -1.088520   122A     -1.077041   123A     -1.077039
     124A     -1.067729   125A     -1.067697   126A     -1.065096
     127A     -1.046898   128A     -1.046889   129A     -1.040584
     130A     -1.038814   131A     -1.038813   132A     -1.025361
     133A     -1.021528   134A     -1.021475   135A     -1.007270
     136A     -1.006911   137A     -1.003888   138A     -1.000606
     139A     -1.000556   140A     -0.991150   141A     -0.971097
     142A     -0.971048   143A     -0.955971   144A     -0.955915
     145A     -0.905727   146A     -0.905687   147A     -0.905623
     148A     -0.905582   149A     -0.904481   150A     -0.892499
     151A     -0.892441   152A     -0.890487   153A     -0.890430
     154A     -0.889566   155A     -0.872301   156A     -0.869121
     157A     -0.851628   158A     -0.847983   159A     -0.847963
     160A     -0.845719   161A     -0.843127   162A     -0.834660
     163A     -0.834648   164A     -0.828196   165A     -0.828190
     166A     -0.784649   167A     -0.784638   168A     -0.783773
     169A     -0.783748   170A     -0.782393   171A     -0.782373
     172A     -0.782153   173A     -0.767086   174A     -0.760922
     175A     -0.750699   176A     -0.733567   177A     -0.727169
     178A     -0.727151   179A     -0.725189   180A     -0.724636
     181A     -0.724615   182A     -0.718624   183A     -0.713891
     184A     -0.713885   185A     -0.699672   186A     -0.699656
     187A     -0.686257   188A     -0.686040   189A     -0.686036
     190A     -0.682261   191A     -0.682251   192A     -0.678888
     193A     -0.653722   194A     -0.650970   195A     -0.650939
     196A     -0.649935   197A     -0.649922   198A     -0.649648
     199A     -0.641056   200A     -0.641025   201A     -0.640172
     202A     -0.639238   203A     -0.636132   204A     -0.636105
     205A     -0.629237   206A     -0.617718   207A     -0.615383
     208A     -0.615361   209A     -0.608891   210A     -0.608884
     211A     -0.599164   212A     -0.599146   213A     -0.598845
     214A     -0.598713   215A     -0.598693   216A     -0.598163
     217A     -0.595148   218A     -0.595136   219A     -0.594816
     220A     -0.594365   221A     -0.592060   222A     -0.592057
     223A     -0.587522   224A     -0.577861   225A     -0.577849
     226A     -0.575722   227A     -0.575717   228A     -0.573467
     229A     -0.569590   230A     -0.568263   231A     -0.568239
     232A     -0.566851   233A     -0.566842   234A     -0.560979
     235A     -0.558829   236A     -0.558804   237A     -0.558495
     238A     -0.554463   239A     -0.550616   240A     -0.547539
     241A     -0.544322   242A     -0.535023   243A     -0.535003
     244A     -0.533627   245A     -0.533606   246A     -0.528158
     247A     -0.528142   248A     -0.527919   249A     -0.517282
     250A     -0.517249   251A     -0.515408   252A     -0.515403
     253A     -0.509720   254A     -0.509705   255A     -0.498113
     256A     -0.496545   257A     -0.496515   258A     -0.493828
     259A     -0.493813   260A     -0.489470   261A     -0.481529
     262A     -0.477471   263A     -0.477469   264A     -0.474079
     265A     -0.469542   266A     -0.466620   267A     -0.466617
     268A     -0.458860   269A     -0.446819   270A     -0.446760
     271A     -0.441080   272A     -0.440810   273A     -0.440782
     274A     -0.434740   275A     -0.433957   276A     -0.407428
     277A     -0.407405   278A     -0.386465   279A     -0.386415
     280A     -0.385781   281A     -0.385780   282A     -0.383811
     283A     -0.354380   284A     -0.354363   285A     -0.350718
     286A     -0.338143   287A     -0.335642   288A     -0.335578
     289A     -0.332763   290A     -0.332758   291A     -0.307141
     292A     -0.302001   293A     -0.301942   294A     -0.300895
     295A     -0.286223   296A     -0.256512   297A     -0.253555
     298A     -0.253504   299A     -0.204315   300A     -0.204228

  @DF-RHF Final Energy: -3650.33814520278065

   => Energetics <=

    Nuclear Repulsion Energy =          15611.4211649754306563
    One-Electron Energy =              -36072.0936209207284264
    Two-Electron Energy =               16810.3343107425171183
    Total Energy =                      -3650.3381452027824707
 Dipole X            :         -0.0009236            0.0002112           -0.0007124
 Dipole Y            :          0.0011570           -0.0013774           -0.0002204
 Dipole Z            :       -587.8237183          587.8310826            0.0073643
 Magnitude           :                                                    0.0074019

    SAPT Results
  --------------------------------------------------------------------------------------------------------
    Electrostatics                 -8.93176229 [mEh]      -5.60476546 [kcal/mol]     -23.45033867 [kJ/mol]
      Elst10,r                     -8.93176229 [mEh]      -5.60476546 [kcal/mol]     -23.45033867 [kJ/mol]

    Exchange                        0.00145984 [mEh]       0.00091606 [kcal/mol]       0.00383280 [kJ/mol]
      Exch10                        0.00145984 [mEh]       0.00091606 [kcal/mol]       0.00383280 [kJ/mol]
      Exch10(S^2)                   0.00145984 [mEh]       0.00091606 [kcal/mol]       0.00383280 [kJ/mol]

    Induction                      -4.08697574 [mEh]      -2.56461600 [kcal/mol]     -10.73035334 [kJ/mol]
      Ind20,r                      -3.99701907 [mEh]      -2.50816733 [kcal/mol]     -10.49417212 [kJ/mol]
      Exch-Ind20,r                  0.00146010 [mEh]       0.00091623 [kcal/mol]       0.00383349 [kJ/mol]
      delta HF,r (2)               -0.09141677 [mEh]      -0.05736489 [kcal/mol]      -0.24001471 [kJ/mol]

    Dispersion                     -2.15979953 [mEh]      -1.35529466 [kcal/mol]      -5.67055287 [kJ/mol]
      Disp20                       -2.16037316 [mEh]      -1.35565463 [kcal/mol]      -5.67205896 [kJ/mol]
      Exch-Disp20                   0.00057364 [mEh]       0.00035996 [kcal/mol]       0.00150609 [kJ/mol]
      Disp20 (SS)                  -1.08018658 [mEh]      -0.67782731 [kcal/mol]      -2.83602948 [kJ/mol]
      Disp20 (OS)                  -1.08018658 [mEh]      -0.67782731 [kcal/mol]      -2.83602948 [kJ/mol]
      Exch-Disp20 (SS)              0.00042731 [mEh]       0.00026814 [kcal/mol]       0.00112191 [kJ/mol]
      Exch-Disp20 (OS)              0.00014633 [mEh]       0.00009182 [kcal/mol]       0.00038418 [kJ/mol]

  Total HF                        -13.01727820 [mEh]      -8.16846539 [kcal/mol]     -34.17685920 [kJ/mol]
  Total SAPT0                     -15.17707772 [mEh]      -9.52376006 [kcal/mol]     -39.84741207 [kJ/mol]

  Special recipe for scaled SAPT0 (see Manual):
    Electrostatics sSAPT0          -8.93176229 [mEh]      -5.60476546 [kcal/mol]     -23.45033867 [kJ/mol]
    Exchange sSAPT0                 0.00145984 [mEh]       0.00091606 [kcal/mol]       0.00383280 [kJ/mol]
    Induction sSAPT0               -4.08697574 [mEh]      -2.56461600 [kcal/mol]     -10.73035334 [kJ/mol]
    Dispersion sSAPT0              -2.15979953 [mEh]      -1.35529466 [kcal/mol]      -5.67055287 [kJ/mol]
  Total sSAPT0                    -15.17707772 [mEh]      -9.52376006 [kcal/mol]     -39.84741207 [kJ/mol]
  --------------------------------------------------------------------------------------------------------

*** Psi4 exiting successfully. Buy a developer a beer!
