                               Psi4 1.9 release

  ==> Input File <==

--------------------------------------------------------------------------
memory 80 GB # how much memory is available ! Depends on the nodes/cores !

molecule dimer {
# monomer A
+1 1    # Charge and multiplicity
C  0.680067 1.417258 -6.115929
C -0.680504 1.419286 -6.115545
N -1.085635 1.420284 -4.797221
C  0.000108 1.423560 -4.015820
C -2.477365 1.469690 -4.329242
N  1.085222 1.420284 -4.797221
H  1.385146 1.409430 -6.933368
H -1.385302 1.419096 -6.933214
H -0.000009 1.425307 -2.934731
C  2.478117 1.403392 -4.332123
H  2.490592 1.430737 -3.241870
H  2.967028 0.489946 -4.679299
H  3.001428 2.278875 -4.723595
H -2.857359 2.491761 -4.409201
H -3.082679 0.799606 -4.942306
H -2.518128 1.142706 -3.289294
--
# monomer B
0 1     # Charge and multiplicity
C   -3.66844126402057      7.80375217008252      0.00190004133558
C   -4.84759871934653      7.13124183134024     -0.00046653359696
C   -4.89495929917518      5.69633040353158     -0.00103944469517
C   -3.65374067877320      4.98073034095895      0.00662099703436
C   -2.40942512149445      7.11398103667468      0.00209438359570
C   -2.42547734410473      5.68112195090346     -0.00491050527438
C   -1.19474401643570      7.78614419430947      0.00356656413763
C   0.03795902893699      7.09942164575698      0.00139585983271
C   0.03033258741920      5.66948955970466     -0.00408752508301
C   -1.20098450790502      4.96927034791531      0.00488220885047
C   1.27795782581485      7.77285944319479      0.00277170839332
C   2.48535808472416      7.08769688523756      0.00049722048857
C   2.48612868491717      5.65477081024076     -0.00644052849921
C   1.25408291964399      4.95607811366431      0.00518741308898
C   3.75171459140595      7.76391215098033      0.00062407186893
C   4.92356605618520      7.07878077698995     -0.00143240883900
C   4.95560727132542      5.64344746336949     -0.00159282164606
C   3.70680153420475      4.94121020833308      0.00349873852374
H   -3.65852113775815      8.89082741913536      0.00358502958574
H   -1.18921332975660      8.87412108735996      0.00753844057883
H   1.28429423888630      8.86083343548850      0.00693053253426
H   3.75354208679975      8.85103527897216      0.00214659618464
H   5.86995870320703      7.61379483465560     -0.00235777588134
H   -5.78823170750226      7.67630221293400     -0.00202638095293
C   -6.09197395869619      4.99326001364347     -0.00291168518608
C   -6.12866148031747      3.58258016879823     -0.00171050815740
C   -3.66457974004527      3.56418217974434     -0.00463560277484
C   -4.89429820469869      2.86108077590057      0.00453338221034
C   -2.43733499489796      2.84761165708481      0.00719617576166
C   -1.20922785759670      3.54788693497833     -0.00648285103018
C   1.24714157216223      3.53468075142962     -0.00729145743546
C   0.01517603956900      2.83311183930540      0.00439272578912
C   2.46764517244071      2.82128997725533      0.00449278391269
C   3.70254947457969      3.52466015442405     -0.00899517692985
C   6.14498038638375      4.92757236613191     -0.00282626685777
C   6.16658835886151      3.51658447594213     -0.00065971342101
C   4.92460995845939      2.80840792535402      0.00587903281610
H   7.08990550964105      5.46688776622306     -0.00658814770723
H   -7.03104175110130      5.54268795285765     -0.00714490013730
C   -7.33969804112295      2.85841153457957     -0.00333767559888
C   -7.36488195805880      1.47032337158330     -0.00157213747140
C   -4.90350460894690      1.44442681216000     -0.00628840166334
C   -6.13225715261081      0.73993935705394      0.00600164231964
C   -3.67687480051673      0.72669714267312      0.00433931473643
C   -2.44565658606518      1.42964113326212     -0.00597039546461
C   -1.22360068130162      0.71532450163492      0.00545886906656
C   0.00763786931376      1.41738314923765      0.00392452278437
C   1.23121980774686      0.70211669058719     -0.01490206287210
C   2.46082110053113      1.40329203612573      0.00460244601878
C   3.68443025419614      0.68719842821222      0.00377365974158
C   4.91870890153864      1.39173456118907     -0.00862816189375
C   7.36980207796101      2.77948220318441     -0.00242013321349
C   7.38016266612146      1.39121750785509     -0.00087345036788
C   6.13979953912259      0.67411862320065      0.00545489144369
H   -8.27919079934664      3.40711804112415     -0.00763522772059
H   8.31511347147953      3.31811809662368     -0.00663070901292
C   -8.59175593758115      0.72483255304480     -0.00123170985383
C   -8.59902460370342     -0.63263980622873      0.00089141472904
C   -6.13981313911873     -0.67413663715361     -0.00609792660607
C   -7.38018411213749     -1.39126618958160      0.00131813493501
C   -4.91868448025621     -1.39175501803000      0.00624257154343
C   -3.68443829568458     -0.68723731573599     -0.00478966852105
C   -2.46081704024768     -1.40334517882457      0.00575341766833
C   -1.23116201232071     -0.70217386488055     -0.00636696112346
C   -0.00756962538737     -1.41741884941102      0.00108956317991
C   1.22364771588843     -0.71527537726392      0.01109518512883
C   2.44567064933149     -1.42964328900682     -0.00065482763106
C   3.67686670284649     -0.72670743155550     -0.00479541202602
C   6.13224884641929     -0.73997883984993     -0.00632338623858
C   4.90351914550401     -1.44445752054090      0.00751768830159
C   8.59901484869081      0.63260386666793     -0.00101133422380
C   8.59174548810050     -0.72485086719319      0.00072504603735
C   7.36486276438985     -1.47033266560598      0.00049486934466
H   -9.52830597181814      1.27684744919284     -0.00270163681798
H   9.54141097460619      1.17457248844457     -0.00206336648518
C   -7.36983790976868     -2.77954514593389      0.00312634335708
C   -4.92459910905015     -2.80843725734101     -0.00460528907921
C   -6.16662249566744     -3.51665219282533      0.00169655107992
C   -3.70251035970491     -3.52468154912026      0.00571878010666
C   -2.46764698511392     -2.82132596280400     -0.00632585824990
C   -0.01513347410770     -2.83314164539971     -0.00604426974092
C   -1.24712184122656     -3.53473217556300      0.00551968366725
C   1.20924506964357     -3.54791467864352      0.00805871345849
C   2.43733602215464     -2.84764173817541     -0.00608104485234
C   4.89430234377080     -2.86112296828604     -0.00526030478103
C   3.66461525504104     -3.56421984553201      0.00761911515957
C   6.12863901474565     -3.58258405771778      0.00096495711699
C   7.33967266469532     -2.85841330737039      0.00248018319869
H   -9.54144911125902     -1.17456346666430      0.00226083090216
H   9.52826186807155     -1.27691907390448      0.00197485379837
H   -8.31516504384864     -3.31814985321231      0.00729857188773
H   8.27915514249207     -3.40714078989363      0.00681973918158
C   -6.14499418870218     -4.92764727278338      0.00302254913999
C   -3.70678334799751     -4.94126171411716     -0.00679841894792
C   -4.95559005800169     -5.64349397349412      0.00116871569699
C   -2.48612132622665     -5.65478557440947      0.00614125209662
C   -1.25405833548005     -4.95612205000132     -0.00503435388927
C   1.20101257386816     -4.96928038819302     -0.00385322963129
C   -0.03033667441341     -5.66952030313900      0.00398997003238
C   3.65375010132847     -4.98074377541453     -0.00309522988330
C   2.42549269587528     -5.68117463552727      0.00628170066869
C   6.09196561781097     -4.99325796338655      0.00325918379042
C   4.89497644461045     -5.69634842095790      0.00202298796027
H   -7.08989238804069     -5.46699984223871      0.00742531082125
H   7.03105520920009     -5.54265853633254      0.00683896355417
C   -4.92354532219813     -7.07882109967734      0.00061394679214
C   -2.48534208823777     -7.08772807792913     -0.00189594564379
C   -3.75168589177895     -7.76394715763627     -0.00170126671874
C   -0.03794895698805     -7.09946487446944     -0.00168022049625
C   -1.27795610040136     -7.77290438466689     -0.00366491325785
C   2.40944432072629     -7.11402201200282     -0.00081701968533
C   1.19474993715296     -7.78618536556242     -0.00296931056689
C   4.84762105249800     -7.13126211057943      0.00168979497423
C   3.66847160587561     -7.80378799294376     -0.00065863938960
H   -5.86994035041618     -7.61383059804164      0.00215798365757
H   5.78824962538815     -7.67633218931421      0.00281691445618
H   -3.75352693944918     -8.85107156923607     -0.00353718114765
H   -1.28430440589466     -8.86087539249706     -0.00809229711623
H   1.18922157469537     -8.87416062058945     -0.00706194725726
H   3.65854661482387     -8.89086063405326     -0.00231318081200

    units angstrom      # Angstroms are the default
    no_reorient         # Geometry fixed, default
    symmetry c1         # C1 symmetry, default
}

set {
    scf_type DF         # Density fitting, faster than exact integrals
    freeze_core True    # Freeze core electrons
    basis jun-cc-pVDZ   # Jun-cc-pVDZ basis set, recommended for sSAPT0 in https://doi.org/10.1063/1.4867135
}

energy('ssapt0')        # Compute sSAPT0 energy, includes also SAPT0
--------------------------------------------------------------------------

  //              Dimer HF             //
    Molecular point group: c1
  Charge       = 1
  Multiplicity = 1
  Basis Set: JUN-CC-PVDZ
    Blend: JUN-CC-PVDZ
  Basis Set: (JUN-CC-PVDZ AUX)
    Blend: JUN-CC-PVDZ-JKFIT
  @DF-RHF Final Energy: -3953.66004391800652
    Total Energy =                      -3953.6600439180074318
 Dipole X            :         -0.0036926            0.0004804           -0.0032122
 Dipole Y            :         -7.1964105            8.7122315            1.5158210
 Dipole Z            :         21.3678741          -27.8725056           -6.5046316
 Magnitude           :                                                    6.6789187
  //            Monomer A HF           //
    Molecular point group: c1
  Multiplicity = 1
  Basis Set: JUN-CC-PVDZ
    Blend: JUN-CC-PVDZ
  Basis Set: (JUN-CC-PVDZ AUX)
    Blend: JUN-CC-PVDZ-JKFIT
  @DF-RHF Final Energy:  -303.29793169655403
    Total Energy =                       -303.2979316965540306
  //            Monomer B HF           //
    Molecular point group: c1

    Geometry (in Angstrom), charge = 0, multiplicity = 1:

       Center              X                  Y                   Z               Mass
    ------------   -----------------  -----------------  -----------------  -----------------
      Gh(C)           0.680062820275     1.308604348936    -5.742347627422    12.000000000000
      Gh(C)          -0.680508179725     1.310632348936    -5.741963627422    12.000000000000
      Gh(N)          -1.085639179725     1.311630348936    -4.423639627422    14.003074004430
      Gh(C)           0.000103820275     1.314906348936    -3.642238627422    12.000000000000
      Gh(C)          -2.477369179725     1.361036348936    -3.955660627422    12.000000000000
      Gh(N)           1.085217820275     1.311630348936    -4.423639627422    14.003074004430
      Gh(H)           1.385141820275     1.300776348936    -6.559786627422     1.007825032230
      Gh(H)          -1.385306179725     1.310442348936    -6.559632627422     1.007825032230
      Gh(H)          -0.000013179725     1.316653348936    -2.561149627422     1.007825032230
      Gh(C)           2.478112820275     1.294738348936    -3.958541627422    12.000000000000
      Gh(H)           2.490587820275     1.322083348936    -2.868288627422     1.007825032230
      Gh(H)           2.967023820275     0.381292348936    -4.305717627422     1.007825032230
      Gh(H)           3.001423820275     2.170221348936    -4.350013627422     1.007825032230
      Gh(H)          -2.857363179725     2.383107348936    -4.035619627422     1.007825032230
      Gh(H)          -3.082683179725     0.690952348936    -4.568724627422     1.007825032230
      Gh(H)          -2.518132179725     1.034052348936    -2.915712627422     1.007825032230
         C           -3.668445443746     7.695098519018     0.375481413913    12.000000000000
         C           -4.847602899072     7.022588180276     0.373114838981    12.000000000000
         C           -4.894963478901     5.587676752467     0.372541927882    12.000000000000
         C           -3.653744858499     4.872076689895     0.380202369612    12.000000000000
         C           -2.409429301220     7.005327385610     0.375675756173    12.000000000000
         C           -2.425481523830     5.572468299839     0.368670867303    12.000000000000
         C           -1.194748196161     7.677490543245     0.377147936715    12.000000000000
         C            0.037954849212     6.990767994693     0.374977232410    12.000000000000
         C            0.030328407694     5.560835908640     0.369493847495    12.000000000000
         C           -1.200988687630     4.860616696851     0.378463581428    12.000000000000
         C            1.277953646089     7.664205792130     0.376353080971    12.000000000000
         C            2.485353904999     6.979043234173     0.374078593066    12.000000000000
         C            2.486124505192     5.546117159176     0.367140844078    12.000000000000
         C            1.254078739919     4.847424462600     0.378768785667    12.000000000000
         C            3.751710411681     7.655258499916     0.374205444447    12.000000000000
         C            4.923561876460     6.970127125926     0.372148963739    12.000000000000
         C            4.955603091600     5.534793812305     0.371988550932    12.000000000000
         C            3.706797354479     4.832556557269     0.377080111101    12.000000000000
         H           -3.658525317484     8.782173768071     0.377166402163     1.007825032230
         H           -1.189217509482     8.765467436296     0.381119813156     1.007825032230
         H            1.284290059161     8.752179784424     0.380511905112     1.007825032230
         H            3.753537907074     8.742381627908     0.375727968762     1.007825032230
         H            5.869954523482     7.505141183591     0.371223596696     1.007825032230
         H           -5.788235887228     7.567648561870     0.371554991625     1.007825032230
         C           -6.091978138422     4.884606362579     0.370669687391    12.000000000000
         C           -6.128665660043     3.473926517734     0.371870864420    12.000000000000
         C           -3.664583919771     3.455528528680     0.368945769803    12.000000000000
         C           -4.894302384424     2.752427124836     0.378114754788    12.000000000000
         C           -2.437339174623     2.738958006020     0.380777548339    12.000000000000
         C           -1.209232037322     3.439233283914     0.367098521547    12.000000000000
         C            1.247137392437     3.426027100365     0.366289915142    12.000000000000
         C            0.015171859844     2.724458188241     0.377974098367    12.000000000000
         C            2.467640992715     2.712636326191     0.378074156490    12.000000000000
         C            3.702545294854     3.416006503360     0.364586195648    12.000000000000
         C            6.144976206658     4.818918715067     0.370755105720    12.000000000000
         C            6.166584179136     3.407930824878     0.372921659157    12.000000000000
         C            4.924605778734     2.699754274290     0.379460405394    12.000000000000
         H            7.089901329916     5.358234115159     0.366993224870     1.007825032230
         H           -7.031045930827     5.434034301793     0.366436472440     1.007825032230
         C           -7.339702220848     2.749757883515     0.370243696979    12.000000000000
         C           -7.364886137784     1.361669720519     0.372009235106    12.000000000000
         C           -4.903508788672     1.335773161096     0.367292970914    12.000000000000
         C           -6.132261332336     0.631285705989     0.379583014897    12.000000000000
         C           -3.676878980242     0.618043491609     0.377920687314    12.000000000000
         C           -2.445660765791     1.320987482198     0.367610977113    12.000000000000
         C           -1.223604861027     0.606670850570     0.379040241644    12.000000000000
         C            0.007633689588     1.308729498173     0.377505895362    12.000000000000
         C            1.231215628021     0.593463039523     0.358679309705    12.000000000000
         C            2.460816920806     1.294638385061     0.378183818596    12.000000000000
         C            3.684426074471     0.578544777148     0.377355032319    12.000000000000
         C            4.918704721813     1.283080910125     0.364953210684    12.000000000000
         C            7.369797898236     2.670828552120     0.371161239364    12.000000000000
         C            7.380158486396     1.282563856791     0.372707922210    12.000000000000
         C            6.139795359397     0.565464972136     0.379036264021    12.000000000000
         H           -8.279194979072     3.298464390060     0.365946144857     1.007825032230
         H            8.315109291754     3.209464445559     0.366950663565     1.007825032230
         C           -8.591760117307     0.616178901980     0.372349662724    12.000000000000
         C           -8.599028783429    -0.741293457293     0.374472787307    12.000000000000
         C           -6.139817318844    -0.782790288218     0.367483445972    12.000000000000
         C           -7.380188291863    -1.499919840646     0.374899507513    12.000000000000
         C           -4.918688659982    -1.500408669094     0.379823944121    12.000000000000
         C           -3.684442475410    -0.795890966800     0.368791704057    12.000000000000
         C           -2.460821219973    -1.511998829889     0.379334790246    12.000000000000
         C           -1.231166192046    -0.810827515945     0.367214411454    12.000000000000
         C           -0.007573805113    -1.526072500475     0.374670935757    12.000000000000
         C            1.223643536163    -0.823929028328     0.384676557706    12.000000000000
         C            2.445666469606    -1.538296940071     0.372926544947    12.000000000000
         C            3.676862523121    -0.835361082620     0.368785960552    12.000000000000
         C            6.132244666694    -0.848632490914     0.367257986339    12.000000000000
         C            4.903514965779    -1.553111171605     0.381099060879    12.000000000000
         C            8.599010668965     0.523950215603     0.372570038354    12.000000000000
         C            8.591741308375    -0.833504518258     0.374306418615    12.000000000000
         C            7.364858584664    -1.578986316670     0.374076241922    12.000000000000
         H           -9.528310151544     1.168193798128     0.370879735760     1.007825032230
         H            9.541406794881     1.065918837380     0.371518006092     1.007825032230
         C           -7.369842089494    -2.888198796998     0.376707715935    12.000000000000
         C           -4.924603288776    -2.917090908405     0.368976083498    12.000000000000
         C           -6.166626675393    -3.625305843890     0.375277923657    12.000000000000
         C           -3.702514539430    -3.633335200185     0.379300152684    12.000000000000
         C           -2.467651164839    -2.929979613868     0.367255514328    12.000000000000
         C           -0.015137653833    -2.941795296464     0.367537102837    12.000000000000
         C           -1.247126020952    -3.643385826627     0.379101056245    12.000000000000
         C            1.209240889918    -3.656568329708     0.381640086036    12.000000000000
         C            2.437331842429    -2.956295389240     0.367500327725    12.000000000000
         C            4.894298164045    -2.969776619350     0.368321067797    12.000000000000
         C            3.664611075316    -3.672873496596     0.381200487737    12.000000000000
         C            6.128634835020    -3.691237708782     0.374546329695    12.000000000000
         C            7.339668484970    -2.967066958435     0.376061555776    12.000000000000
         H           -9.541453290984    -1.283217117729     0.375842203480     1.007825032230
         H            9.528257688346    -1.385572724969     0.375556226376     1.007825032230
         H           -8.315169223574    -3.426803504277     0.380879944465     1.007825032230
         H            8.279150962767    -3.515794440958     0.380401111759     1.007825032230
         C           -6.144998368428    -5.036300923848     0.376603921718    12.000000000000
         C           -3.706787527723    -5.049915365182     0.366782953630    12.000000000000
         C           -4.955594237727    -5.752147624559     0.374750088275    12.000000000000
         C           -2.486125505952    -5.763439225474     0.379722624674    12.000000000000
         C           -1.254062515205    -5.064775701066     0.368547018688    12.000000000000
         C            1.201008394143    -5.077934039257     0.369728142946    12.000000000000
         C           -0.030340854139    -5.778173954203     0.377571342610    12.000000000000
         C            3.653745921603    -5.089397426479     0.370486142694    12.000000000000
         C            2.425488516150    -5.789828286592     0.379863073246    12.000000000000
         C            6.091961438086    -5.101911614451     0.376840556368    12.000000000000
         C            4.894972264885    -5.805002072022     0.375604360538    12.000000000000
         H           -7.089896567766    -5.575653493303     0.381006683399     1.007825032230
         H            7.031051029475    -5.651312187397     0.380420336132     1.007825032230
         C           -4.923549501924    -7.187474750742     0.374195319370    12.000000000000
         C           -2.485346267963    -7.196381728994     0.371685426934    12.000000000000
         C           -3.751690071504    -7.872600808701     0.371880105859    12.000000000000
         C           -0.037953136713    -7.208118525534     0.371901152081    12.000000000000
         C           -1.277960280127    -7.881558035731     0.369916459320    12.000000000000
         C            2.409440141001    -7.222675663067     0.372764352892    12.000000000000
         C            1.194745757428    -7.894839016627     0.370612062011    12.000000000000
         C            4.847616872773    -7.239915761644     0.375271167552    12.000000000000
         C            3.668467426150    -7.912441644008     0.372922733188    12.000000000000
         H           -5.869944530142    -7.722484249106     0.375739356235     1.007825032230
         H            5.788245445663    -7.784985840379     0.376398287034     1.007825032230
         H           -3.753531119175    -8.959725220301     0.370044191430     1.007825032230
         H           -1.284308585620    -8.969529043562     0.365489075461     1.007825032230
         H            1.189217394970    -8.982814271654     0.366519425320     1.007825032230
         H            3.658542435098    -8.999514285118     0.371268191766     1.007825032230

  Charge       = 0
  Multiplicity = 1
  Basis Set: JUN-CC-PVDZ
    Blend: JUN-CC-PVDZ
  Basis Set: (JUN-CC-PVDZ AUX)
    Blend: JUN-CC-PVDZ-JKFIT

    Orbital Energies [Eh]
    ---------------------

    Doubly Occupied:

       1A    -11.264012     2A    -11.263696     3A    -11.263656
       4A    -11.263341     5A    -11.263313     6A    -11.263272
       7A    -11.263113     8A    -11.263098     9A    -11.263082
      10A    -11.262914    11A    -11.262764    12A    -11.262756
      13A    -11.262279    14A    -11.262272    15A    -11.262204
      16A    -11.262198    17A    -11.262133    18A    -11.262109
      19A    -11.262071    20A    -11.262028    21A    -11.262014
      22A    -11.261884    23A    -11.261872    24A    -11.261742
      25A    -11.261731    26A    -11.261709    27A    -11.261706
      28A    -11.261662    29A    -11.261653    30A    -11.261574
      31A    -11.261549    32A    -11.261548    33A    -11.261524
      34A    -11.261520    35A    -11.261502    36A    -11.261480
      37A    -11.261320    38A    -11.261312    39A    -11.261298
      40A    -11.261291    41A    -11.261282    42A    -11.261279
      43A    -11.261268    44A    -11.261257    45A    -11.261253
      46A    -11.261235    47A    -11.261222    48A    -11.261216
      49A    -11.261066    50A    -11.261039    51A    -11.261037
      52A    -11.260966    53A    -11.260960    54A    -11.260885
      55A    -11.259912    56A    -11.259886    57A    -11.259878
      58A    -11.259858    59A    -11.259845    60A    -11.259828
      61A    -11.259283    62A    -11.259253    63A    -11.259249
      64A    -11.259199    65A    -11.259195    66A    -11.259166
      67A    -11.258912    68A    -11.258886    69A    -11.258877
      70A    -11.258858    71A    -11.258846    72A    -11.258832
      73A    -11.254518    74A    -11.254514    75A    -11.254502
      76A    -11.254497    77A    -11.254493    78A    -11.254489
      79A    -11.253652    80A    -11.253637    81A    -11.253636
      82A    -11.253623    83A    -11.253619    84A    -11.253610
      85A    -11.253568    86A    -11.253551    87A    -11.253550
      88A    -11.253539    89A    -11.253535    90A    -11.253525
      91A    -11.253046    92A    -11.253041    93A    -11.253030
      94A    -11.253025    95A    -11.253020    96A    -11.253017
      97A     -1.253910    98A     -1.238972    99A     -1.238944
     100A     -1.220430   101A     -1.220418   102A     -1.215407
     103A     -1.201006   104A     -1.195568   105A     -1.188119
     106A     -1.188094   107A     -1.173730   108A     -1.173729
     109A     -1.155594   110A     -1.155586   111A     -1.152681
     112A     -1.144690   113A     -1.144686   114A     -1.128530
     115A     -1.114678   116A     -1.113130   117A     -1.112458
     118A     -1.112424   119A     -1.111586   120A     -1.088393
     121A     -1.088378   122A     -1.076930   123A     -1.076928
     124A     -1.067579   125A     -1.067547   126A     -1.064933
     127A     -1.046765   128A     -1.046755   129A     -1.040443
     130A     -1.038704   131A     -1.038701   132A     -1.025203
     133A     -1.021353   134A     -1.021286   135A     -1.007143
     136A     -1.006766   137A     -1.003760   138A     -1.000454
     139A     -1.000401   140A     -0.991045   141A     -0.970952
     142A     -0.970900   143A     -0.955852   144A     -0.955793
     145A     -0.905546   146A     -0.905523   147A     -0.905505
     148A     -0.905476   149A     -0.904287   150A     -0.892320
     151A     -0.892261   152A     -0.890319   153A     -0.890266
     154A     -0.889409   155A     -0.872184   156A     -0.869028
     157A     -0.851502   158A     -0.847817   159A     -0.847806
     160A     -0.845554   161A     -0.842972   162A     -0.834522
     163A     -0.834513   164A     -0.828088   165A     -0.828080
     166A     -0.784514   167A     -0.784505   168A     -0.783621
     169A     -0.783604   170A     -0.782249   171A     -0.782225
     172A     -0.781987   173A     -0.766945   174A     -0.760747
     175A     -0.750534   176A     -0.733451   177A     -0.727037
     178A     -0.727004   179A     -0.725039   180A     -0.724501
     181A     -0.724472   182A     -0.718450   183A     -0.713729
     184A     -0.713722   185A     -0.699543   186A     -0.699519
     187A     -0.686082   188A     -0.685918   189A     -0.685909
     190A     -0.682127   191A     -0.682121   192A     -0.678742
     193A     -0.653590   194A     -0.650834   195A     -0.650801
     196A     -0.649766   197A     -0.649758   198A     -0.649526
     199A     -0.640896   200A     -0.640850   201A     -0.640042
     202A     -0.639120   203A     -0.635983   204A     -0.635949
     205A     -0.629095   206A     -0.617757   207A     -0.615266
     208A     -0.615241   209A     -0.608757   210A     -0.608751
     211A     -0.599153   212A     -0.599120   213A     -0.598702
     214A     -0.598551   215A     -0.598540   216A     -0.597996
     217A     -0.595026   218A     -0.595013   219A     -0.594680
     220A     -0.594182   221A     -0.591912   222A     -0.591909
     223A     -0.587343   224A     -0.577762   225A     -0.577746
     226A     -0.575687   227A     -0.575685   228A     -0.573334
     229A     -0.569551   230A     -0.568101   231A     -0.568074
     232A     -0.566708   233A     -0.566701   234A     -0.560878
     235A     -0.558680   236A     -0.558642   237A     -0.558390
     238A     -0.554323   239A     -0.550552   240A     -0.547439
     241A     -0.544264   242A     -0.534984   243A     -0.534975
     244A     -0.533495   245A     -0.533478   246A     -0.528036
     247A     -0.528019   248A     -0.527743   249A     -0.517124
     250A     -0.517095   251A     -0.515334   252A     -0.515332
     253A     -0.509597   254A     -0.509586   255A     -0.497978
     256A     -0.496409   257A     -0.496371   258A     -0.493775
     259A     -0.493753   260A     -0.489403   261A     -0.481407
     262A     -0.477391   263A     -0.477390   264A     -0.473947
     265A     -0.469384   266A     -0.466471   267A     -0.466471
     268A     -0.458783   269A     -0.446628   270A     -0.446575
     271A     -0.441010   272A     -0.440735   273A     -0.440715
     274A     -0.434658   275A     -0.433875   276A     -0.407347
     277A     -0.407323   278A     -0.386375   279A     -0.386333
     280A     -0.385698   281A     -0.385697   282A     -0.383710
     283A     -0.354291   284A     -0.354268   285A     -0.350626
     286A     -0.338078   287A     -0.335556   288A     -0.335477
     289A     -0.332676   290A     -0.332674   291A     -0.307036
     292A     -0.301916   293A     -0.301848   294A     -0.300805
     295A     -0.286134   296A     -0.256436   297A     -0.253454
     298A     -0.253404   299A     -0.204226   300A     -0.204133

  @DF-RHF Final Energy: -3650.34060347921422

   => Energetics <=

    Nuclear Repulsion Energy =          15611.4211649754306563
    One-Electron Energy =              -36072.1656441171508050
    Two-Electron Energy =               16810.4038756625086535
    Total Energy =                      -3650.3406034792133141
 Dipole X            :         -0.0006571            0.0002112           -0.0004460
 Dipole Y            :        123.2186499         -123.2131634            0.0054865
 Dipole Z            :       -423.5764183          423.5832798            0.0068615
 Magnitude           :                                                    0.0087966

    SAPT Results
  --------------------------------------------------------------------------------------------------------
    Electrostatics                -12.12796607 [mEh]      -7.61041361 [kcal/mol]     -31.84197053 [kJ/mol]
      Elst10,r                    -12.12796607 [mEh]      -7.61041361 [kcal/mol]     -31.84197053 [kJ/mol]

    Exchange                        2.28778891 [mEh]       1.43560922 [kcal/mol]       6.00658896 [kJ/mol]
      Exch10                        2.28778891 [mEh]       1.43560922 [kcal/mol]       6.00658896 [kJ/mol]
      Exch10(S^2)                   2.28603806 [mEh]       1.43451054 [kcal/mol]       6.00199209 [kJ/mol]

    Induction                     -11.66856508 [mEh]      -7.32213513 [kcal/mol]     -30.63581339 [kJ/mol]
      Ind20,r                     -11.20583994 [mEh]      -7.03177073 [kcal/mol]     -29.42092872 [kJ/mol]
      Exch-Ind20,r                  0.51755211 [mEh]       0.32476885 [kcal/mol]       1.35883288 [kJ/mol]
      delta HF,r (2)               -0.98027724 [mEh]      -0.61513326 [kcal/mol]      -2.57371755 [kJ/mol]

    Dispersion                    -11.34276855 [mEh]      -7.11769473 [kcal/mol]     -29.78043474 [kJ/mol]
      Disp20                      -11.57527734 [mEh]      -7.26359619 [kcal/mol]     -30.39088646 [kJ/mol]
      Exch-Disp20                   0.23250878 [mEh]       0.14590146 [kcal/mol]       0.61045172 [kJ/mol]
      Disp20 (SS)                  -5.78763867 [mEh]      -3.63179809 [kcal/mol]     -15.19544323 [kJ/mol]
      Disp20 (OS)                  -5.78763867 [mEh]      -3.63179809 [kcal/mol]     -15.19544323 [kJ/mol]
      Exch-Disp20 (SS)              0.14853465 [mEh]       0.09320690 [kcal/mol]       0.38997766 [kJ/mol]
      Exch-Disp20 (OS)              0.08397413 [mEh]       0.05269456 [kcal/mol]       0.22047406 [kJ/mol]

  Total HF                        -21.50874224 [mEh]     -13.49693952 [kcal/mol]     -56.47119497 [kJ/mol]
  Total SAPT0                     -32.85151079 [mEh]     -20.61463425 [kcal/mol]     -86.25162970 [kJ/mol]

  Special recipe for scaled SAPT0 (see Manual):
    Electrostatics sSAPT0         -12.12796607 [mEh]      -7.61041361 [kcal/mol]     -31.84197053 [kJ/mol]
    Exchange sSAPT0                 2.28778891 [mEh]       1.43560922 [kcal/mol]       6.00658896 [kJ/mol]
    Induction sSAPT0              -11.66737500 [mEh]      -7.32138835 [kcal/mol]     -30.63268885 [kJ/mol]
    Dispersion sSAPT0             -11.34223392 [mEh]      -7.11735924 [kcal/mol]     -29.77903105 [kJ/mol]
  Total sSAPT0                    -32.84978608 [mEh]     -20.61355198 [kcal/mol]     -86.24710147 [kJ/mol]
  --------------------------------------------------------------------------------------------------------

*** Psi4 exiting successfully. Buy a developer a beer!
