                               Psi4 1.9 release

  ==> Input File <==

--------------------------------------------------------------------------
memory 64 GB # how much memory is available ! Depends on the nodes/cores !

molecule dimer {
# monomer A
-1 1    # Charge and multiplicity
B -0.000046  0.000337 5.599994
F -1.153597  0.000048 6.415641
F  1.153661 -0.000581 6.415641
F -0.000019 -1.153637 4.784360
F -0.000019  1.153978 4.784360
--
# monomer B
0 1     # Charge and multiplicity
C   -3.66844126402057      7.80375217008252      0.00190004133558
C   -4.84759871934653      7.13124183134024     -0.00046653359696
C   -4.89495929917518      5.69633040353158     -0.00103944469517
C   -3.65374067877320      4.98073034095895      0.00662099703436
C   -2.40942512149445      7.11398103667468      0.00209438359570
C   -2.42547734410473      5.68112195090346     -0.00491050527438
C   -1.19474401643570      7.78614419430947      0.00356656413763
C   0.03795902893699      7.09942164575698      0.00139585983271
C   0.03033258741920      5.66948955970466     -0.00408752508301
C   -1.20098450790502      4.96927034791531      0.00488220885047
C   1.27795782581485      7.77285944319479      0.00277170839332
C   2.48535808472416      7.08769688523756      0.00049722048857
C   2.48612868491717      5.65477081024076     -0.00644052849921
C   1.25408291964399      4.95607811366431      0.00518741308898
C   3.75171459140595      7.76391215098033      0.00062407186893
C   4.92356605618520      7.07878077698995     -0.00143240883900
C   4.95560727132542      5.64344746336949     -0.00159282164606
C   3.70680153420475      4.94121020833308      0.00349873852374
H   -3.65852113775815      8.89082741913536      0.00358502958574
H   -1.18921332975660      8.87412108735996      0.00753844057883
H   1.28429423888630      8.86083343548850      0.00693053253426
H   3.75354208679975      8.85103527897216      0.00214659618464
H   5.86995870320703      7.61379483465560     -0.00235777588134
H   -5.78823170750226      7.67630221293400     -0.00202638095293
C   -6.09197395869619      4.99326001364347     -0.00291168518608
C   -6.12866148031747      3.58258016879823     -0.00171050815740
C   -3.66457974004527      3.56418217974434     -0.00463560277484
C   -4.89429820469869      2.86108077590057      0.00453338221034
C   -2.43733499489796      2.84761165708481      0.00719617576166
C   -1.20922785759670      3.54788693497833     -0.00648285103018
C   1.24714157216223      3.53468075142962     -0.00729145743546
C   0.01517603956900      2.83311183930540      0.00439272578912
C   2.46764517244071      2.82128997725533      0.00449278391269
C   3.70254947457969      3.52466015442405     -0.00899517692985
C   6.14498038638375      4.92757236613191     -0.00282626685777
C   6.16658835886151      3.51658447594213     -0.00065971342101
C   4.92460995845939      2.80840792535402      0.00587903281610
H   7.08990550964105      5.46688776622306     -0.00658814770723
H   -7.03104175110130      5.54268795285765     -0.00714490013730
C   -7.33969804112295      2.85841153457957     -0.00333767559888
C   -7.36488195805880      1.47032337158330     -0.00157213747140
C   -4.90350460894690      1.44442681216000     -0.00628840166334
C   -6.13225715261081      0.73993935705394      0.00600164231964
C   -3.67687480051673      0.72669714267312      0.00433931473643
C   -2.44565658606518      1.42964113326212     -0.00597039546461
C   -1.22360068130162      0.71532450163492      0.00545886906656
C   0.00763786931376      1.41738314923765      0.00392452278437
C   1.23121980774686      0.70211669058719     -0.01490206287210
C   2.46082110053113      1.40329203612573      0.00460244601878
C   3.68443025419614      0.68719842821222      0.00377365974158
C   4.91870890153864      1.39173456118907     -0.00862816189375
C   7.36980207796101      2.77948220318441     -0.00242013321349
C   7.38016266612146      1.39121750785509     -0.00087345036788
C   6.13979953912259      0.67411862320065      0.00545489144369
H   -8.27919079934664      3.40711804112415     -0.00763522772059
H   8.31511347147953      3.31811809662368     -0.00663070901292
C   -8.59175593758115      0.72483255304480     -0.00123170985383
C   -8.59902460370342     -0.63263980622873      0.00089141472904
C   -6.13981313911873     -0.67413663715361     -0.00609792660607
C   -7.38018411213749     -1.39126618958160      0.00131813493501
C   -4.91868448025621     -1.39175501803000      0.00624257154343
C   -3.68443829568458     -0.68723731573599     -0.00478966852105
C   -2.46081704024768     -1.40334517882457      0.00575341766833
C   -1.23116201232071     -0.70217386488055     -0.00636696112346
C   -0.00756962538737     -1.41741884941102      0.00108956317991
C   1.22364771588843     -0.71527537726392      0.01109518512883
C   2.44567064933149     -1.42964328900682     -0.00065482763106
C   3.67686670284649     -0.72670743155550     -0.00479541202602
C   6.13224884641929     -0.73997883984993     -0.00632338623858
C   4.90351914550401     -1.44445752054090      0.00751768830159
C   8.59901484869081      0.63260386666793     -0.00101133422380
C   8.59174548810050     -0.72485086719319      0.00072504603735
C   7.36486276438985     -1.47033266560598      0.00049486934466
H   -9.52830597181814      1.27684744919284     -0.00270163681798
H   9.54141097460619      1.17457248844457     -0.00206336648518
C   -7.36983790976868     -2.77954514593389      0.00312634335708
C   -4.92459910905015     -2.80843725734101     -0.00460528907921
C   -6.16662249566744     -3.51665219282533      0.00169655107992
C   -3.70251035970491     -3.52468154912026      0.00571878010666
C   -2.46764698511392     -2.82132596280400     -0.00632585824990
C   -0.01513347410770     -2.83314164539971     -0.00604426974092
C   -1.24712184122656     -3.53473217556300      0.00551968366725
C   1.20924506964357     -3.54791467864352      0.00805871345849
C   2.43733602215464     -2.84764173817541     -0.00608104485234
C   4.89430234377080     -2.86112296828604     -0.00526030478103
C   3.66461525504104     -3.56421984553201      0.00761911515957
C   6.12863901474565     -3.58258405771778      0.00096495711699
C   7.33967266469532     -2.85841330737039      0.00248018319869
H   -9.54144911125902     -1.17456346666430      0.00226083090216
H   9.52826186807155     -1.27691907390448      0.00197485379837
H   -8.31516504384864     -3.31814985321231      0.00729857188773
H   8.27915514249207     -3.40714078989363      0.00681973918158
C   -6.14499418870218     -4.92764727278338      0.00302254913999
C   -3.70678334799751     -4.94126171411716     -0.00679841894792
C   -4.95559005800169     -5.64349397349412      0.00116871569699
C   -2.48612132622665     -5.65478557440947      0.00614125209662
C   -1.25405833548005     -4.95612205000132     -0.00503435388927
C   1.20101257386816     -4.96928038819302     -0.00385322963129
C   -0.03033667441341     -5.66952030313900      0.00398997003238
C   3.65375010132847     -4.98074377541453     -0.00309522988330
C   2.42549269587528     -5.68117463552727      0.00628170066869
C   6.09196561781097     -4.99325796338655      0.00325918379042
C   4.89497644461045     -5.69634842095790      0.00202298796027
H   -7.08989238804069     -5.46699984223871      0.00742531082125
H   7.03105520920009     -5.54265853633254      0.00683896355417
C   -4.92354532219813     -7.07882109967734      0.00061394679214
C   -2.48534208823777     -7.08772807792913     -0.00189594564379
C   -3.75168589177895     -7.76394715763627     -0.00170126671874
C   -0.03794895698805     -7.09946487446944     -0.00168022049625
C   -1.27795610040136     -7.77290438466689     -0.00366491325785
C   2.40944432072629     -7.11402201200282     -0.00081701968533
C   1.19474993715296     -7.78618536556242     -0.00296931056689
C   4.84762105249800     -7.13126211057943      0.00168979497423
C   3.66847160587561     -7.80378799294376     -0.00065863938960
H   -5.86994035041618     -7.61383059804164      0.00215798365757
H   5.78824962538815     -7.67633218931421      0.00281691445618
H   -3.75352693944918     -8.85107156923607     -0.00353718114765
H   -1.28430440589466     -8.86087539249706     -0.00809229711623
H   1.18922157469537     -8.87416062058945     -0.00706194725726
H   3.65854661482387     -8.89086063405326     -0.00231318081200

    units angstrom      # Angstroms are the default
    no_reorient         # Geometry fixed, default
    symmetry c1         # C1 symmetry, default
}

set {
    scf_type DF         # Density fitting, faster than exact integrals
    freeze_core True    # Freeze core electrons
    basis jun-cc-pVDZ   # Jun-cc-pVDZ basis set, recommended for sSAPT0 in https://doi.org/10.1063/1.4867135
}

energy('ssapt0')        # Compute sSAPT0 energy, includes also SAPT0
--------------------------------------------------------------------------

  //              Dimer HF             //
    Molecular point group: c1
  Charge       = -1
  Multiplicity = 1
  Basis Set: JUN-CC-PVDZ
    Blend: JUN-CC-PVDZ
  Basis Set: (JUN-CC-PVDZ AUX)
    Blend: JUN-CC-PVDZ-JKFIT
  @DF-RHF Final Energy: -4073.10586877911646
    Total Energy =                      -4073.1058687791155535
 Dipole X            :          0.0001013           -0.0001188           -0.0000175
 Dipole Y            :          0.0012338           -0.0002727            0.0009611
 Dipole Z            :         24.6370067          -33.3267809           -8.6897741
 Magnitude           :                                                    8.6897742
  //            Monomer A HF           //
    Molecular point group: c1
  Multiplicity = 1
  Basis Set: JUN-CC-PVDZ
    Blend: JUN-CC-PVDZ
  Basis Set: (JUN-CC-PVDZ AUX)
    Blend: JUN-CC-PVDZ-JKFIT
  @DF-RHF Final Energy:  -422.77177522113101
    Total Energy =                       -422.7717752211310085
  //            Monomer B HF           //
    Molecular point group: c1

    Geometry (in Angstrom), charge = 0, multiplicity = 1:

       Center              X                  Y                   Z               Mass
    ------------   -----------------  -----------------  -----------------  -----------------
      Gh(B)          -0.000050191042     0.000351518223     5.214287984613    11.009305360000
      Gh(F)          -1.153601191042     0.000062518223     6.029934984613    18.998403162730
      Gh(F)           1.153656808958    -0.000566481777     6.029934984613    18.998403162730
      Gh(F)          -0.000023191042    -1.153622481777     4.398653984613    18.998403162730
      Gh(F)          -0.000023191042     1.153992518223     4.398653984613    18.998403162730
         C           -3.668445455062     7.803766688305    -0.383805974051    12.000000000000
         C           -4.847602910388     7.131256349563    -0.386172548984    12.000000000000
         C           -4.894963490217     5.696344921754    -0.386745460082    12.000000000000
         C           -3.653744869815     4.980744859182    -0.379085018353    12.000000000000
         C           -2.409429312536     7.113995554897    -0.383611631791    12.000000000000
         C           -2.425481535146     5.681136469126    -0.390616520661    12.000000000000
         C           -1.194748207477     7.786158712532    -0.382139451249    12.000000000000
         C            0.037954837895     7.099436163980    -0.384310155554    12.000000000000
         C            0.030328396378     5.669504077927    -0.389793540470    12.000000000000
         C           -1.200988698947     4.969284866138    -0.380823806536    12.000000000000
         C            1.277953634773     7.772873961417    -0.382934306994    12.000000000000
         C            2.485353893683     7.087711403460    -0.385208794898    12.000000000000
         C            2.486124493876     5.654785328463    -0.392146543886    12.000000000000
         C            1.254078728602     4.956092631887    -0.380518602298    12.000000000000
         C            3.751710400364     7.763926669203    -0.385081943518    12.000000000000
         C            4.923561865144     7.078795295213    -0.387138424226    12.000000000000
         C            4.955603080284     5.643461981592    -0.387298837033    12.000000000000
         C            3.706797343163     4.941224726556    -0.382207276863    12.000000000000
         H           -3.658525328800     8.890841937358    -0.382120985801     1.007825032230
         H           -1.189217520798     8.874135605583    -0.378167574808     1.007825032230
         H            1.284290047845     8.860847953711    -0.378775482853     1.007825032230
         H            3.753537895758     8.851049797195    -0.383559419202     1.007825032230
         H            5.869954512165     7.613809352878    -0.388063791268     1.007825032230
         H           -5.788235898544     7.676316731157    -0.387732396340     1.007825032230
         C           -6.091978149738     4.993274531866    -0.388617700573    12.000000000000
         C           -6.128665671359     3.582594687021    -0.387416523544    12.000000000000
         C           -3.664583931087     3.564196697967    -0.390341618162    12.000000000000
         C           -4.894302395740     2.861095294123    -0.381172633177    12.000000000000
         C           -2.437339185940     2.847626175307    -0.378509839625    12.000000000000
         C           -1.209232048638     3.547901453201    -0.392188866417    12.000000000000
         C            1.247137381121     3.534695269652    -0.392997472822    12.000000000000
         C            0.015171848527     2.833126357528    -0.381313289598    12.000000000000
         C            2.467640981399     2.821304495478    -0.381213231474    12.000000000000
         C            3.702545283538     3.524674672647    -0.394701192317    12.000000000000
         C            6.144976195342     4.927586884354    -0.388532282245    12.000000000000
         C            6.166584167820     3.516598994165    -0.386365728808    12.000000000000
         C            4.924605767418     2.808422443577    -0.379826982571    12.000000000000
         H            7.089901318599     5.466902284446    -0.392294163094     1.007825032230
         H           -7.031045942143     5.542702471080    -0.392850915524     1.007825032230
         C           -7.339702232165     2.858426052802    -0.389043690986    12.000000000000
         C           -7.364886149100     1.470337889806    -0.387278152858    12.000000000000
         C           -4.903508799989     1.444441330383    -0.391994417050    12.000000000000
         C           -6.132261343652     0.739953875277    -0.379704373067    12.000000000000
         C           -3.676878991558     0.726711660896    -0.381366700650    12.000000000000
         C           -2.445660777107     1.429655651485    -0.391676410851    12.000000000000
         C           -1.223604872343     0.715339019858    -0.380247146320    12.000000000000
         C            0.007633678272     1.417397667460    -0.381781492603    12.000000000000
         C            1.231215616705     0.702131208810    -0.400608078259    12.000000000000
         C            2.460816909489     1.403306554348    -0.381103569368    12.000000000000
         C            3.684426063155     0.687212946435    -0.381932355645    12.000000000000
         C            4.918704710497     1.391749079412    -0.394334177281    12.000000000000
         C            7.369797886919     2.779496721407    -0.388126148600    12.000000000000
         C            7.380158475080     1.391232026078    -0.386579465755    12.000000000000
         C            6.139795348081     0.674133141423    -0.380251123943    12.000000000000
         H           -8.279194990388     3.407132559347    -0.393341243107     1.007825032230
         H            8.315109280438     3.318132614846    -0.392336724400     1.007825032230
         C           -8.591760128623     0.724847071267    -0.386937725241    12.000000000000
         C           -8.599028794745    -0.632625288006    -0.384814600658    12.000000000000
         C           -6.139817330160    -0.674122118931    -0.391803941993    12.000000000000
         C           -7.380188303179    -1.391251671359    -0.384387880452    12.000000000000
         C           -4.918688671298    -1.391740499807    -0.379463443843    12.000000000000
         C           -3.684442486726    -0.687222797513    -0.390495683908    12.000000000000
         C           -2.460821231289    -1.403330660602    -0.379952597719    12.000000000000
         C           -1.231166203362    -0.702159346658    -0.392072976510    12.000000000000
         C           -0.007573816429    -1.417404331188    -0.384616452207    12.000000000000
         C            1.223643524847    -0.715260859041    -0.374610830258    12.000000000000
         C            2.445666458290    -1.429628770784    -0.386360843018    12.000000000000
         C            3.676862511805    -0.726692913333    -0.390501427413    12.000000000000
         C            6.132244655378    -0.739964321627    -0.392029401625    12.000000000000
         C            4.903514954462    -1.444443002318    -0.378188327085    12.000000000000
         C            8.599010657649     0.632618384891    -0.386717349611    12.000000000000
         C            8.591741297059    -0.724836348971    -0.384980969350    12.000000000000
         C            7.364858573348    -1.470318147383    -0.385211146042    12.000000000000
         H           -9.528310162860     1.276861967415    -0.388407652205     1.007825032230
         H            9.541406783565     1.174587006667    -0.387769381872     1.007825032230
         C           -7.369842100810    -2.779530627711    -0.382579672030    12.000000000000
         C           -4.924603300092    -2.808422739118    -0.390311304466    12.000000000000
         C           -6.166626686709    -3.516637674603    -0.384009464307    12.000000000000
         C           -3.702514550747    -3.524667030898    -0.379987235280    12.000000000000
         C           -2.467651176156    -2.821311444581    -0.392031873637    12.000000000000
         C           -0.015137665149    -2.833127127177    -0.391750285128    12.000000000000
         C           -1.247126032268    -3.534717657340    -0.380186331720    12.000000000000
         C            1.209240878602    -3.547900160421    -0.377647301928    12.000000000000
         C            2.437331831113    -2.847627219953    -0.391787060239    12.000000000000
         C            4.894298152729    -2.861108450063    -0.390966320168    12.000000000000
         C            3.664611063999    -3.564205327309    -0.378086900227    12.000000000000
         C            6.128634823704    -3.582569539495    -0.384741058270    12.000000000000
         C            7.339668473654    -2.858398789148    -0.383225832188    12.000000000000
         H           -9.541453302301    -1.174548948442    -0.383445184485     1.007825032230
         H            9.528257677030    -1.276904555682    -0.383731161589     1.007825032230
         H           -8.315169234890    -3.318135334990    -0.378407443499     1.007825032230
         H            8.279150951450    -3.407126271671    -0.378886276205     1.007825032230
         C           -6.144998379744    -4.927632754561    -0.382683466247    12.000000000000
         C           -3.706787539039    -4.941247195895    -0.392504434335    12.000000000000
         C           -4.955594249043    -5.643479455272    -0.384537299690    12.000000000000
         C           -2.486125517268    -5.654771056187    -0.379564763290    12.000000000000
         C           -1.254062526522    -4.956107531779    -0.390740369276    12.000000000000
         C            1.201008382827    -4.969265869970    -0.389559245018    12.000000000000
         C           -0.030340865455    -5.669505784916    -0.381716045354    12.000000000000
         C            3.653745910287    -4.980729257192    -0.388801245270    12.000000000000
         C            2.425488504834    -5.681160117305    -0.379424314718    12.000000000000
         C            6.091961426769    -4.993243445164    -0.382446831596    12.000000000000
         C            4.894972253569    -5.696333902735    -0.383683027427    12.000000000000
         H           -7.089896579082    -5.466985324016    -0.378280704566     1.007825032230
         H            7.031051018158    -5.542644018110    -0.378867051833     1.007825032230
         C           -4.923549513240    -7.078806581455    -0.385092068595    12.000000000000
         C           -2.485346279279    -7.087713559707    -0.387601961031    12.000000000000
         C           -3.751690082821    -7.763932639414    -0.387407282106    12.000000000000
         C           -0.037953148030    -7.099450356247    -0.387386235883    12.000000000000
         C           -1.277960291443    -7.772889866444    -0.389370928645    12.000000000000
         C            2.409440129685    -7.114007493780    -0.386523035072    12.000000000000
         C            1.194745746111    -7.786170847340    -0.388675325954    12.000000000000
         C            4.847616861456    -7.131247592357    -0.384016220413    12.000000000000
         C            3.668467414834    -7.803773474721    -0.386364654776    12.000000000000
         H           -5.869944541458    -7.613816079819    -0.383548031729     1.007825032230
         H            5.788245434347    -7.676317671092    -0.382889100931     1.007825032230
         H           -3.753531130491    -8.851057051013    -0.389243196535     1.007825032230
         H           -1.284308596936    -8.860860874274    -0.393798312503     1.007825032230
         H            1.189217383654    -8.874146102367    -0.392767962644     1.007825032230
         H            3.658542423782    -8.890846115831    -0.388019196199     1.007825032230

  Charge       = 0
  Multiplicity = 1
  Basis Set: JUN-CC-PVDZ
    Blend: JUN-CC-PVDZ
  Basis Set: (JUN-CC-PVDZ AUX)
    Blend: JUN-CC-PVDZ-JKFIT

    Orbital Energies [Eh]
    ---------------------

    Doubly Occupied:

       1A    -11.264028     2A    -11.263718     3A    -11.263698
       4A    -11.263363     5A    -11.263352     6A    -11.263322
       7A    -11.263164     8A    -11.263148     9A    -11.263134
      10A    -11.262974    11A    -11.262818    12A    -11.262813
      13A    -11.262336    14A    -11.262332    15A    -11.262268
      16A    -11.262262    17A    -11.262208    18A    -11.262178
      19A    -11.262133    20A    -11.262097    21A    -11.262092
      22A    -11.261949    23A    -11.261936    24A    -11.261821
      25A    -11.261807    26A    -11.261795    27A    -11.261788
      28A    -11.261743    29A    -11.261733    30A    -11.261658
      31A    -11.261631    32A    -11.261629    33A    -11.261602
      34A    -11.261600    35A    -11.261579    36A    -11.261537
      37A    -11.261399    38A    -11.261388    39A    -11.261382
      40A    -11.261375    41A    -11.261371    42A    -11.261362
      43A    -11.261356    44A    -11.261340    45A    -11.261335
      46A    -11.261312    47A    -11.261310    48A    -11.261305
      49A    -11.261142    50A    -11.261109    51A    -11.261107
      52A    -11.261026    53A    -11.261022    54A    -11.260953
      55A    -11.259996    56A    -11.259983    57A    -11.259980
      58A    -11.259952    59A    -11.259949    60A    -11.259933
      61A    -11.259372    62A    -11.259346    63A    -11.259344
      64A    -11.259291    65A    -11.259289    66A    -11.259260
      67A    -11.259000    68A    -11.258983    69A    -11.258980
      70A    -11.258953    71A    -11.258950    72A    -11.258939
      73A    -11.254578    74A    -11.254577    75A    -11.254575
      76A    -11.254572    77A    -11.254567    78A    -11.254566
      79A    -11.253724    80A    -11.253722    81A    -11.253719
      82A    -11.253718    83A    -11.253716    84A    -11.253711
      85A    -11.253640    86A    -11.253638    87A    -11.253634
      88A    -11.253633    89A    -11.253631    90A    -11.253626
      91A    -11.253106    92A    -11.253105    93A    -11.253104
      94A    -11.253100    95A    -11.253095    96A    -11.253094
      97A     -1.254079    98A     -1.239112    99A     -1.239104
     100A     -1.220560   101A     -1.220554   102A     -1.215558
     103A     -1.201126   104A     -1.195694   105A     -1.188259
     106A     -1.188252   107A     -1.173847   108A     -1.173843
     109A     -1.155739   110A     -1.155736   111A     -1.152831
     112A     -1.144801   113A     -1.144798   114A     -1.128669
     115A     -1.114822   116A     -1.113241   117A     -1.112592
     118A     -1.112584   119A     -1.111693   120A     -1.088531
     121A     -1.088513   122A     -1.077038   123A     -1.077036
     124A     -1.067719   125A     -1.067692   126A     -1.065082
     127A     -1.046894   128A     -1.046886   129A     -1.040579
     130A     -1.038811   131A     -1.038810   132A     -1.025352
     133A     -1.021509   134A     -1.021463   135A     -1.007266
     136A     -1.006910   137A     -1.003883   138A     -1.000598
     139A     -1.000548   140A     -0.991147   141A     -0.971088
     142A     -0.971042   143A     -0.955966   144A     -0.955910
     145A     -0.905716   146A     -0.905674   147A     -0.905620
     148A     -0.905580   149A     -0.904465   150A     -0.892489
     151A     -0.892433   152A     -0.890478   153A     -0.890418
     154A     -0.889560   155A     -0.872297   156A     -0.869119
     157A     -0.851625   158A     -0.847976   159A     -0.847954
     160A     -0.845709   161A     -0.843123   162A     -0.834657
     163A     -0.834644   164A     -0.828190   165A     -0.828188
     166A     -0.784642   167A     -0.784631   168A     -0.783764
     169A     -0.783735   170A     -0.782386   171A     -0.782369
     172A     -0.782143   173A     -0.767083   174A     -0.760911
     175A     -0.750686   176A     -0.733563   177A     -0.727162
     178A     -0.727151   179A     -0.725183   180A     -0.724630
     181A     -0.724615   182A     -0.718609   183A     -0.713881
     184A     -0.713875   185A     -0.699664   186A     -0.699655
     187A     -0.686242   188A     -0.686038   189A     -0.686036
     190A     -0.682260   191A     -0.682247   192A     -0.678874
     193A     -0.653714   194A     -0.650962   195A     -0.650934
     196A     -0.649924   197A     -0.649909   198A     -0.649645
     199A     -0.641039   200A     -0.641019   201A     -0.640170
     202A     -0.639238   203A     -0.636121   204A     -0.636097
     205A     -0.629234   206A     -0.617703   207A     -0.615380
     208A     -0.615361   209A     -0.608888   210A     -0.608881
     211A     -0.599173   212A     -0.599121   213A     -0.598837
     214A     -0.598714   215A     -0.598684   216A     -0.598148
     217A     -0.595146   218A     -0.595134   219A     -0.594811
     220A     -0.594353   221A     -0.592052   222A     -0.592049
     223A     -0.587510   224A     -0.577859   225A     -0.577849
     226A     -0.575711   227A     -0.575710   228A     -0.573465
     229A     -0.569586   230A     -0.568247   231A     -0.568227
     232A     -0.566847   233A     -0.566833   234A     -0.560977
     235A     -0.558817   236A     -0.558800   237A     -0.558493
     238A     -0.554458   239A     -0.550608   240A     -0.547537
     241A     -0.544318   242A     -0.535055   243A     -0.534978
     244A     -0.533621   245A     -0.533598   246A     -0.528154
     247A     -0.528140   248A     -0.527909   249A     -0.517268
     250A     -0.517235   251A     -0.515405   252A     -0.515399
     253A     -0.509719   254A     -0.509702   255A     -0.498110
     256A     -0.496538   257A     -0.496511   258A     -0.493824
     259A     -0.493809   260A     -0.489468   261A     -0.481527
     262A     -0.477470   263A     -0.477465   264A     -0.474076
     265A     -0.469538   266A     -0.466617   267A     -0.466612
     268A     -0.458852   269A     -0.446808   270A     -0.446746
     271A     -0.441077   272A     -0.440807   273A     -0.440788
     274A     -0.434737   275A     -0.433954   276A     -0.407424
     277A     -0.407402   278A     -0.386460   279A     -0.386411
     280A     -0.385779   281A     -0.385777   282A     -0.383805
     283A     -0.354375   284A     -0.354360   285A     -0.350713
     286A     -0.338140   287A     -0.335649   288A     -0.335564
     289A     -0.332761   290A     -0.332754   291A     -0.307136
     292A     -0.301995   293A     -0.301937   294A     -0.300891
     295A     -0.286221   296A     -0.256510   297A     -0.253554
     298A     -0.253496   299A     -0.204311   300A     -0.204224

  @DF-RHF Final Energy: -3650.33821100936075

   => Energetics <=

    Nuclear Repulsion Energy =          15611.4211649754324753
    One-Electron Energy =              -36072.0971985317009967
    Two-Electron Energy =               16810.3378225469059544
    Total Energy =                      -3650.3382110093625670
 Dipole X            :         -0.0007958            0.0001983           -0.0005975
 Dipole Y            :          0.0011151           -0.0013163           -0.0002012
 Dipole Z            :        437.3176940         -437.3238485           -0.0061545
 Magnitude           :                                                    0.0061867

    SAPT Results
  --------------------------------------------------------------------------------------------------------
    Electrostatics                 10.29969399 [mEh]       6.46315556 [kcal/mol]      27.04184286 [kJ/mol]
      Elst10,r                     10.29969399 [mEh]       6.46315556 [kcal/mol]      27.04184286 [kJ/mol]

    Exchange                        0.01083694 [mEh]       0.00680028 [kcal/mol]       0.02845238 [kJ/mol]
      Exch10                        0.01083694 [mEh]       0.00680028 [kcal/mol]       0.02845238 [kJ/mol]
      Exch10(S^2)                   0.01083709 [mEh]       0.00680037 [kcal/mol]       0.02845277 [kJ/mol]

    Induction                      -6.19307956 [mEh]      -3.88621610 [kcal/mol]     -16.25992814 [kJ/mol]
      Ind20,r                      -6.24025518 [mEh]      -3.91581924 [kcal/mol]     -16.38378771 [kJ/mol]
      Exch-Ind20,r                  0.00465234 [mEh]       0.00291939 [kcal/mol]       0.01221472 [kJ/mol]
      delta HF,r (2)                0.04252328 [mEh]       0.02668376 [kcal/mol]       0.11164485 [kJ/mol]

    Dispersion                     -1.39961161 [mEh]      -0.87826954 [kcal/mol]      -3.67467977 [kJ/mol]
      Disp20                       -1.40567473 [mEh]      -0.88207421 [kcal/mol]      -3.69059850 [kJ/mol]
      Exch-Disp20                   0.00606313 [mEh]       0.00380467 [kcal/mol]       0.01591874 [kJ/mol]
      Disp20 (SS)                  -0.70283737 [mEh]      -0.44103711 [kcal/mol]      -1.84529925 [kJ/mol]
      Disp20 (OS)                  -0.70283737 [mEh]      -0.44103711 [kcal/mol]      -1.84529925 [kJ/mol]
      Exch-Disp20 (SS)              0.00450248 [mEh]       0.00282535 [kcal/mol]       0.01182125 [kJ/mol]
      Exch-Disp20 (OS)              0.00156065 [mEh]       0.00097932 [kcal/mol]       0.00409749 [kJ/mol]

  Total HF                          4.11745138 [mEh]       2.58373975 [kcal/mol]      10.81036710 [kJ/mol]
  Total SAPT0                       2.71783977 [mEh]       1.70547020 [kcal/mol]       7.13568733 [kJ/mol]

  Special recipe for scaled SAPT0 (see Manual):
    Electrostatics sSAPT0          10.29969399 [mEh]       6.46315556 [kcal/mol]      27.04184286 [kJ/mol]
    Exchange sSAPT0                 0.01083694 [mEh]       0.00680028 [kcal/mol]       0.02845238 [kJ/mol]
    Induction sSAPT0               -6.19307975 [mEh]      -3.88621621 [kcal/mol]     -16.25992864 [kJ/mol]
    Dispersion sSAPT0              -1.39961185 [mEh]      -0.87826970 [kcal/mol]      -3.67468041 [kJ/mol]
  Total sSAPT0                      2.71783933 [mEh]       1.70546993 [kcal/mol]       7.13568619 [kJ/mol]
  --------------------------------------------------------------------------------------------------------

*** Psi4 exiting successfully. Buy a developer a beer!
