                               Psi4 1.9 release

  ==> Input File <==

--------------------------------------------------------------------------
memory 32 GB # how much memory is available ! Depends on the nodes/cores !

molecule dimer {
# monomer A
+1 1    # Charge and multiplicity
C  0.680067 -0.008042 -8.615929
C -0.680504 -0.006014 -8.615545
N -1.085635 -0.005016 -7.297221
C  0.000108 -0.001740 -6.515820
C -2.477365  0.044390 -6.829242
N  1.085222 -0.005016 -7.297221
H  1.385146 -0.015870 -9.433368
H -1.385302 -0.006204 -9.433214
H -0.000009  0.000007 -5.434731
C  2.478117 -0.021908 -6.832123
H  2.490592  0.005437 -5.741870
H  2.967028 -0.935354 -7.179299
H  3.001428  0.853575 -7.223595
H -2.857359  1.066461 -6.909201
H -3.082679 -0.625694 -7.442306
H -2.518128 -0.282594 -5.789294
--
# monomer B
0 1     # Charge and multiplicity
C   1.22531237526482      0.70753866091955      0.00613762728373
C   1.22532433589282     -0.70753852257020     -0.00619318228664
C   -0.00000567409046      1.41496628609039     -0.00672680580738
C   2.45644923379077      1.41832825917820      0.00902448468363
C   0.00001130712078     -1.41497612663474      0.00347275151708
C   -1.22530046906674      0.70754574598412      0.00838914760619
C   2.45643823516184     -1.41832293188077     -0.00843833914343
C   -0.00000085313587      2.83680140328112     -0.00913035594137
C   3.68182717731192      0.70931832800114     -0.00808954934571
C   2.45512052870677      2.83422403348893     -0.00819210630633
C   3.68182158506039     -0.70933346742900      0.00798293467272
C   -1.22531311884624     -0.70752714354401     -0.00512042085974
C   1.22670006104402      3.54346985599427      0.00816696660346
C   0.00000526469929     -2.83678176723568      0.00832091913869
C   -2.45643555300670      1.41831729028492      0.00842454345199
C   2.45512389762097     -2.83422965658853      0.00783102630520
C   -1.22671388474763      3.54346943575023      0.00827029982280
C   4.91451777504333      1.42717324448953     -0.00160886631602
C   3.69315067131765      3.54279566454522     -0.00155906667985
C   -2.45643712022637     -1.41831290883911     -0.00846337726810
C   1.22670532178455     -3.54347386990643     -0.00780316414624
C   -2.45512491866593      2.83421703463423     -0.00818572995999
C   4.91452486062398     -1.42718653794377      0.00136387641845
C   1.22142509354026      4.97013443726031      0.00150231067809
C   4.89300870916237      2.82518837202648     -0.00039219795739
C   -1.22669652864725     -3.54347062507680     -0.00753595973677
C   -3.68181849668397      0.70932533873199     -0.00807686886569
C   3.69314758099218     -3.54280096939050      0.00148176697923
C   -1.22143177215231      4.97012866986289      0.00168580605083
C   6.13477145276790      0.68054831910577     -0.00083909176631
C   3.65678936045204      4.97295361556775     -0.00065042889723
C   -2.45512642789169     -2.83421472106065      0.00758666850712
C   -3.68181869921921     -0.70932533146830      0.00810055625144
C   4.89301309775526     -2.82519973363176      0.00021895393805
C   -0.00000059327114      5.65044773803267      0.00045449734393
C   6.13477559217374     -0.68055448207492      0.00042622874941
C   2.47813196269732      5.65357712333155      0.00063835075260
C   1.22142288457925     -4.97012668293268     -0.00129718634452
C   -3.69316190412301      3.54279732619245     -0.00139355922051
C   -1.22142804110313     -4.97011793159564     -0.00140994817719
C   -4.91452132810043      1.42717581899491     -0.00153192130862
C   3.65678749952045     -4.97295485423912      0.00080007163680
C   -2.47813805026426      5.65357479452875      0.00092287576113
C   -3.69314125872231     -3.54278984697859      0.00136564082345
C   -4.91451200321153     -1.42718062802730      0.00139857359209
C   -0.00000552908399     -5.65043791501335      0.00005899322272
C   -4.89302000425900      2.82518897091939     -0.00040227981744
C   2.47812647313991     -5.65357317188818     -0.00029052915548
C   -3.65679823041642      4.97295655404175     -0.00047374852278
C   -4.89299899901461     -2.82519139505969      0.00006491824035
C   -2.47812801824129     -5.65356579800621     -0.00056571680280
C   -6.13477002348955      0.68054913825639     -0.00086464346868
C   -3.65678835334731     -4.97294365097028      0.00058578382008
C   -6.13476456307132     -0.68055354348201      0.00040575295444
H   5.83528897565761      3.36927626695423      0.00396712770529
H   7.07385965258860      1.22821762089947     -0.00037744837300
H   4.60066374401555      5.51238117445323     -0.00014522814529
H   5.83528386714679     -3.36930568472863     -0.00423551337640
H   -0.00001167146422      6.73853104613662     -0.00389474766392
H   7.07386165167227     -1.22822657074368     -0.00008250934481
H   2.47331421164041      6.74068466339473      0.00017162982210
H   4.60066897122302     -5.51237575717576      0.00039007446835
H   -2.47331820069565      6.74068209160650      0.00047297644710
H   -0.00000978838621     -6.73852780445195      0.00458867820736
H   -5.83530143450167      3.36927132229595      0.00410314985360
H   2.47330840367253     -6.74068500242887      0.00027980126949
H   -4.60067436136587      5.51237839860371      0.00002010017831
H   -5.83527902699321     -3.36928859177951     -0.00451481925734
H   -2.47329986759855     -6.74067870613986     -0.00016951527498
H   -7.07385728692578      1.22822084484047     -0.00046143985387
H   -4.60067330624313     -5.51236229778631      0.00021776644566
H   -7.07385645456741     -1.22822025997701     -0.00017736581114

    units angstrom      # Angstroms are the default
    no_reorient         # Geometry fixed, default
    symmetry c1         # C1 symmetry, default
}

set {
    scf_type DF         # Density fitting, faster than exact integrals
    freeze_core True    # Freeze core electrons
    basis jun-cc-pVDZ   # Jun-cc-pVDZ basis set, recommended for sSAPT0 in https://doi.org/10.1063/1.4867135
}

energy('ssapt0')        # Compute sSAPT0 energy, includes also SAPT0
--------------------------------------------------------------------------

  //              Dimer HF             //
    Molecular point group: c1
  Charge       = 1
  Multiplicity = 1
  Basis Set: JUN-CC-PVDZ
    Blend: JUN-CC-PVDZ
  Basis Set: (JUN-CC-PVDZ AUX)
    Blend: JUN-CC-PVDZ-JKFIT
  @DF-RHF Final Energy: -2359.19865253302578
    Total Energy =                      -2359.1986525330248696
 Dipole X            :         -0.0012083            0.0006313           -0.0005770
 Dipole Y            :         -0.0480569            0.0560211            0.0079641
 Dipole Z            :         25.7811677          -36.6869940          -10.9058263
 Magnitude           :                                                   10.9058293
  //            Monomer A HF           //
    Molecular point group: c1
  Multiplicity = 1
  Basis Set: JUN-CC-PVDZ
    Blend: JUN-CC-PVDZ
  Basis Set: (JUN-CC-PVDZ AUX)
    Blend: JUN-CC-PVDZ-JKFIT
  @DF-RHF Final Energy:  -303.29723099199947
    Total Energy =                       -303.2972309919994700
  //            Monomer B HF           //
    Molecular point group: c1

    Geometry (in Angstrom), charge = 0, multiplicity = 1:

       Center              X                  Y                   Z               Mass
    ------------   -----------------  -----------------  -----------------  -----------------
      Gh(C)           0.680066520158    -0.008042372515    -7.674696674845    12.000000000000
      Gh(C)          -0.680504479842    -0.006014372515    -7.674312674845    12.000000000000
      Gh(N)          -1.085635479842    -0.005016372515    -6.355988674845    14.003074004430
      Gh(C)           0.000107520158    -0.001740372515    -5.574587674845    12.000000000000
      Gh(C)          -2.477365479842     0.044389627485    -5.888009674845    12.000000000000
      Gh(N)           1.085221520158    -0.005016372515    -6.355988674845    14.003074004430
      Gh(H)           1.385145520158    -0.015870372515    -8.492135674845     1.007825032230
      Gh(H)          -1.385302479842    -0.006204372515    -8.491981674845     1.007825032230
      Gh(H)          -0.000009479842     0.000006627485    -4.493498674845     1.007825032230
      Gh(C)           2.478116520158    -0.021908372515    -5.890890674845    12.000000000000
      Gh(H)           2.490591520158     0.005436627485    -4.800637674845     1.007825032230
      Gh(H)           2.967027520158    -0.935354372515    -6.238066674845     1.007825032230
      Gh(H)           3.001427520158     0.853574627485    -6.282362674845     1.007825032230
      Gh(H)          -2.857359479842     1.066460627485    -5.967968674845     1.007825032230
      Gh(H)          -3.082679479842    -0.625694372515    -6.501073674845     1.007825032230
      Gh(H)          -2.518128479842    -0.282594372515    -4.848061674845     1.007825032230
         C            1.225311895423     0.707538288405     0.947369952439    12.000000000000
         C            1.225323856051    -0.707538895085     0.935039142868    12.000000000000
         C           -0.000006153932     1.414965913575     0.934505519348    12.000000000000
         C            2.456448753949     1.418327886663     0.950256809839    12.000000000000
         C            0.000010827279    -1.414976499150     0.944705076672    12.000000000000
         C           -1.225300948908     0.707545373469     0.949621472761    12.000000000000
         C            2.456437755320    -1.418323304396     0.932793986012    12.000000000000
         C           -0.000001332978     2.836801030766     0.932101969214    12.000000000000
         C            3.681826697470     0.709317955486     0.933142775809    12.000000000000
         C            2.455120048865     2.834223660974     0.933040218849    12.000000000000
         C            3.681821105219    -0.709333839944     0.949215259828    12.000000000000
         C           -1.225313598688    -0.707527516059     0.936111904295    12.000000000000
         C            1.226699581202     3.543469483479     0.949399291759    12.000000000000
         C            0.000004784858    -2.836782139751     0.949553244294    12.000000000000
         C           -2.456436032848     1.418316917770     0.949656868607    12.000000000000
         C            2.455123417779    -2.834230029103     0.949063351460    12.000000000000
         C           -1.226714364589     3.543469063235     0.949502624978    12.000000000000
         C            4.914517295202     1.427172871975     0.939623458839    12.000000000000
         C            3.693150191476     3.542795292030     0.939673258475    12.000000000000
         C           -2.456437600068    -1.418313281354     0.932768947887    12.000000000000
         C            1.226704841943    -3.543474242421     0.933429161009    12.000000000000
         C           -2.455125398508     2.834216662119     0.933046595195    12.000000000000
         C            4.914524380782    -1.427186910459     0.942596201574    12.000000000000
         C            1.221424613699     4.970134064745     0.942734635833    12.000000000000
         C            4.893008229321     2.825187999512     0.940840127198    12.000000000000
         C           -1.226697008489    -3.543470997592     0.933696365418    12.000000000000
         C           -3.681818976526     0.709324966217     0.933155456289    12.000000000000
         C            3.693147101150    -3.542801341905     0.942714092134    12.000000000000
         C           -1.221432251994     4.970128297348     0.942918131206    12.000000000000
         C            6.134770972926     0.680547946591     0.940393233389    12.000000000000
         C            3.656788880610     4.972953243053     0.940581896258    12.000000000000
         C           -2.455126907733    -2.834215093576     0.948818993662    12.000000000000
         C           -3.681819179061    -0.709325703983     0.949332881407    12.000000000000
         C            4.893012617914    -2.825200106147     0.941451279093    12.000000000000
         C           -0.000001073113     5.650447365518     0.941686822499    12.000000000000
         C            6.134775112332    -0.680554854590     0.941658553905    12.000000000000
         C            2.478131482856     5.653576750817     0.941870675908    12.000000000000
         C            1.221422404738    -4.970127055448     0.939935138811    12.000000000000
         C           -3.693162383965     3.542796953677     0.939838765935    12.000000000000
         C           -1.221428520945    -4.970118304111     0.939822376978    12.000000000000
         C           -4.914521807942     1.427175446480     0.939700403846    12.000000000000
         C            3.656787019679    -4.972955226754     0.942032396792    12.000000000000
         C           -2.478138530106     5.653574422014     0.942155200916    12.000000000000
         C           -3.693141738564    -3.542790219494     0.942597965979    12.000000000000
         C           -4.914512483053    -1.427181000542     0.942630898747    12.000000000000
         C           -0.000006008926    -5.650438287528     0.941291318378    12.000000000000
         C           -4.893020484101     2.825188598404     0.940830045338    12.000000000000
         C            2.478125993298    -5.653573544403     0.940941796000    12.000000000000
         C           -3.656798710258     4.972956181527     0.940758576632    12.000000000000
         C           -4.892999478856    -2.825191767575     0.941297243395    12.000000000000
         C           -2.478128498083    -5.653566170521     0.940666608352    12.000000000000
         C           -6.134770503331     0.680548765741     0.940367681686    12.000000000000
         C           -3.656788833189    -4.972944023485     0.941818108975    12.000000000000
         C           -6.134765042913    -0.680553915997     0.941638078110    12.000000000000
         H            5.835288495816     3.369275894439     0.945199452860     1.007825032230
         H            7.073859172747     1.228217248385     0.940854876782     1.007825032230
         H            4.600663264174     5.512380801938     0.941087097010     1.007825032230
         H            5.835283387305    -3.369306057244     0.936996811779     1.007825032230
         H           -0.000012151306     6.738530673622     0.937337577491     1.007825032230
         H            7.073861171831    -1.228226943259     0.941149815810     1.007825032230
         H            2.473313731799     6.740684290880     0.941403954977     1.007825032230
         H            4.600668491381    -5.512376129691     0.941622399623     1.007825032230
         H           -2.473318680537     6.740681719092     0.941705301602     1.007825032230
         H           -0.000010268228    -6.738528176967     0.945821003362     1.007825032230
         H           -5.835301914343     3.369270949781     0.945335475009     1.007825032230
         H            2.473307923831    -6.740685374944     0.941512126425     1.007825032230
         H           -4.600674841208     5.512378026089     0.941252425333     1.007825032230
         H           -5.835279506835    -3.369288964294     0.936717505898     1.007825032230
         H           -2.473300347440    -6.740679078655     0.941062809880     1.007825032230
         H           -7.073857766768     1.228220472326     0.940770885301     1.007825032230
         H           -4.600673786085    -5.512362670301     0.941450091601     1.007825032230
         H           -7.073856934409    -1.228220632492     0.941054959344     1.007825032230

  Charge       = 0
  Multiplicity = 1
  Basis Set: JUN-CC-PVDZ
    Blend: JUN-CC-PVDZ
  Basis Set: (JUN-CC-PVDZ AUX)
    Blend: JUN-CC-PVDZ-JKFIT

    Orbital Energies [Eh]
    ---------------------

    Doubly Occupied:

       1A    -11.260650     2A    -11.260207     3A    -11.260205
       4A    -11.259496     5A    -11.259495     6A    -11.259326
       7A    -11.259117     8A    -11.259040     9A    -11.259038
      10A    -11.258715    11A    -11.258711    12A    -11.258643
      13A    -11.258581    14A    -11.258576    15A    -11.258573
      16A    -11.258545    17A    -11.258538    18A    -11.258522
      19A    -11.258509    20A    -11.258503    21A    -11.258497
      22A    -11.258398    23A    -11.258395    24A    -11.258095
      25A    -11.257437    26A    -11.257375    27A    -11.257373
      28A    -11.257239    29A    -11.257238    30A    -11.257154
      31A    -11.256531    32A    -11.256460    33A    -11.256460
      34A    -11.256351    35A    -11.256350    36A    -11.256303
      37A    -11.252384    38A    -11.252383    39A    -11.252381
      40A    -11.252380    41A    -11.252376    42A    -11.252374
      43A    -11.251513    44A    -11.251511    45A    -11.251509
      46A    -11.251504    47A    -11.251503    48A    -11.251499
      49A    -11.250945    50A    -11.250944    51A    -11.250942
      52A    -11.250941    53A    -11.250937    54A    -11.250936
      55A     -1.244257    56A     -1.219986    57A     -1.219983
      58A     -1.189696    59A     -1.189689    60A     -1.181130
      61A     -1.157700    62A     -1.149128    63A     -1.135672
      64A     -1.135662    65A     -1.113331    66A     -1.113327
      67A     -1.082598    68A     -1.082590    69A     -1.078779
      70A     -1.066116    71A     -1.066111    72A     -1.039551
      73A     -1.024454    74A     -1.021956    75A     -1.021910
      76A     -1.017863    77A     -1.012926    78A     -0.987189
      79A     -0.987142    80A     -0.962023    81A     -0.961973
      82A     -0.894440    83A     -0.894414    84A     -0.888126
      85A     -0.886373    86A     -0.886318    87A     -0.881567
      88A     -0.881519    89A     -0.862047    90A     -0.837531
      91A     -0.818362    92A     -0.816796    93A     -0.812305
      94A     -0.812297    95A     -0.794829    96A     -0.794818
      97A     -0.746803    98A     -0.745031    99A     -0.733595
     100A     -0.733589   101A     -0.732326   102A     -0.732303
     103A     -0.716666   104A     -0.699124   105A     -0.699110
     106A     -0.693747   107A     -0.693727   108A     -0.661374
     109A     -0.653296   110A     -0.651342   111A     -0.650392
     112A     -0.650386   113A     -0.639505   114A     -0.639499
     115A     -0.629881   116A     -0.627691   117A     -0.627677
     118A     -0.606471   119A     -0.605916   120A     -0.601832
     121A     -0.599893   122A     -0.599856   123A     -0.593793
     124A     -0.591416   125A     -0.591401   126A     -0.585399
     127A     -0.576431   128A     -0.576402   129A     -0.567455
     130A     -0.567440   131A     -0.566130   132A     -0.566112
     133A     -0.558905   134A     -0.554995   135A     -0.554990
     136A     -0.538734   137A     -0.538732   138A     -0.538272
     139A     -0.538270   140A     -0.529867   141A     -0.528210
     142A     -0.523024   143A     -0.523014   144A     -0.500643
     145A     -0.495704   146A     -0.493380   147A     -0.487930
     148A     -0.485235   149A     -0.481915   150A     -0.481909
     151A     -0.470418   152A     -0.470410   153A     -0.451211
     154A     -0.451135   155A     -0.439172   156A     -0.439163
     157A     -0.404850   158A     -0.404827   159A     -0.403474
     160A     -0.375526   161A     -0.375523   162A     -0.349229
     163A     -0.337692   164A     -0.336658   165A     -0.336604
     166A     -0.311205   167A     -0.298195   168A     -0.284457
     169A     -0.284406   170A     -0.225028   171A     -0.224963

  @DF-RHF Final Energy: -2055.89193353612973

   => Energetics <=

    Nuclear Repulsion Energy =           6452.5568002797781446
    One-Electron Energy =              -15636.4354667158277152
    Two-Electron Energy =                7127.9867328999189340
    Total Energy =                      -2055.8919335361297271
 Dipole X            :          0.0001043           -0.0000085            0.0000958
 Dipole Y            :         -0.0000380            0.0000167           -0.0000213
 Dipole Z            :       -608.2997682          608.3041468            0.0043786
 Magnitude           :                                                    0.0043797

    SAPT Results
  --------------------------------------------------------------------------------------------------------
    Electrostatics                 -7.22717564 [mEh]      -4.53512119 [kcal/mol]     -18.97494704 [kJ/mol]
      Elst10,r                     -7.22717564 [mEh]      -4.53512119 [kcal/mol]     -18.97494704 [kJ/mol]

    Exchange                       -0.00014386 [mEh]      -0.00009028 [kcal/mol]      -0.00037771 [kJ/mol]
      Exch10                       -0.00014386 [mEh]      -0.00009028 [kcal/mol]      -0.00037771 [kJ/mol]
      Exch10(S^2)                  -0.00014386 [mEh]      -0.00009028 [kcal/mol]      -0.00037771 [kJ/mol]

    Induction                      -2.26068539 [mEh]      -1.41860150 [kcal/mol]      -5.93542867 [kJ/mol]
      Ind20,r                      -2.21724028 [mEh]      -1.39133928 [kcal/mol]      -5.82136354 [kJ/mol]
      Exch-Ind20,r                  0.00037727 [mEh]       0.00023674 [kcal/mol]       0.00099051 [kJ/mol]
      delta HF,r (2)               -0.04382238 [mEh]      -0.02749896 [kcal/mol]      -0.11505564 [kJ/mol]

    Dispersion                     -1.16788168 [mEh]      -0.73285682 [kcal/mol]      -3.06627292 [kJ/mol]
      Disp20                       -1.16801899 [mEh]      -0.73294298 [kcal/mol]      -3.06663343 [kJ/mol]
      Exch-Disp20                   0.00013731 [mEh]       0.00008616 [kcal/mol]       0.00036050 [kJ/mol]
      Disp20 (SS)                  -0.58400949 [mEh]      -0.36647149 [kcal/mol]      -1.53331671 [kJ/mol]
      Disp20 (OS)                  -0.58400949 [mEh]      -0.36647149 [kcal/mol]      -1.53331671 [kJ/mol]
      Exch-Disp20 (SS)              0.00010460 [mEh]       0.00006564 [kcal/mol]       0.00027463 [kJ/mol]
      Exch-Disp20 (OS)              0.00003271 [mEh]       0.00002053 [kcal/mol]       0.00008588 [kJ/mol]

  Total HF                         -9.48800490 [mEh]      -5.95381296 [kcal/mol]     -24.91075342 [kJ/mol]
  Total SAPT0                     -10.65588657 [mEh]      -6.68666978 [kcal/mol]     -27.97702635 [kJ/mol]

  Special recipe for scaled SAPT0 (see Manual):
    Electrostatics sSAPT0          -7.22717564 [mEh]      -4.53512119 [kcal/mol]     -18.97494704 [kJ/mol]
    Exchange sSAPT0                -0.00014386 [mEh]      -0.00009028 [kcal/mol]      -0.00037771 [kJ/mol]
    Induction sSAPT0               -2.26068539 [mEh]      -1.41860150 [kcal/mol]      -5.93542867 [kJ/mol]
    Dispersion sSAPT0              -1.16788168 [mEh]      -0.73285682 [kcal/mol]      -3.06627292 [kJ/mol]
  Total sSAPT0                    -10.65588657 [mEh]      -6.68666978 [kcal/mol]     -27.97702635 [kJ/mol]
  --------------------------------------------------------------------------------------------------------

*** Psi4 exiting successfully. Buy a developer a beer!
