                               Psi4 1.9 release

  ==> Input File <==

--------------------------------------------------------------------------
memory 64 GB # how much memory is available ! Depends on the nodes/cores !

molecule dimer {
# monomer A
+1 1    # Charge and multiplicity
C  0.680067 -1.215929 6.408042
C -0.680504 -1.215545 6.406014
N -1.085635  0.102779 6.405016
C  0.000108  0.884180 6.401740
C -2.477365  0.570758 6.355610
N  1.085222  0.102779 6.405016
H  1.385146 -2.033368 6.415870
H -1.385302 -2.033214 6.406204
H -0.000009  1.965269 6.399993
C  2.478117  0.567877 6.421908
H  2.490592  1.658130 6.394563
H  2.967028  0.220701 7.335354
H  3.001428  0.176405 5.546425
H -2.857359  0.490799 5.333539
H -3.082679 -0.042306 7.025694
H -2.518128  1.610706 6.682594
--
# monomer B
0 1     # Charge and multiplicity
C   -3.66844126402057      7.80375217008252      0.00190004133558
C   -4.84759871934653      7.13124183134024     -0.00046653359696
C   -4.89495929917518      5.69633040353158     -0.00103944469517
C   -3.65374067877320      4.98073034095895      0.00662099703436
C   -2.40942512149445      7.11398103667468      0.00209438359570
C   -2.42547734410473      5.68112195090346     -0.00491050527438
C   -1.19474401643570      7.78614419430947      0.00356656413763
C   0.03795902893699      7.09942164575698      0.00139585983271
C   0.03033258741920      5.66948955970466     -0.00408752508301
C   -1.20098450790502      4.96927034791531      0.00488220885047
C   1.27795782581485      7.77285944319479      0.00277170839332
C   2.48535808472416      7.08769688523756      0.00049722048857
C   2.48612868491717      5.65477081024076     -0.00644052849921
C   1.25408291964399      4.95607811366431      0.00518741308898
C   3.75171459140595      7.76391215098033      0.00062407186893
C   4.92356605618520      7.07878077698995     -0.00143240883900
C   4.95560727132542      5.64344746336949     -0.00159282164606
C   3.70680153420475      4.94121020833308      0.00349873852374
H   -3.65852113775815      8.89082741913536      0.00358502958574
H   -1.18921332975660      8.87412108735996      0.00753844057883
H   1.28429423888630      8.86083343548850      0.00693053253426
H   3.75354208679975      8.85103527897216      0.00214659618464
H   5.86995870320703      7.61379483465560     -0.00235777588134
H   -5.78823170750226      7.67630221293400     -0.00202638095293
C   -6.09197395869619      4.99326001364347     -0.00291168518608
C   -6.12866148031747      3.58258016879823     -0.00171050815740
C   -3.66457974004527      3.56418217974434     -0.00463560277484
C   -4.89429820469869      2.86108077590057      0.00453338221034
C   -2.43733499489796      2.84761165708481      0.00719617576166
C   -1.20922785759670      3.54788693497833     -0.00648285103018
C   1.24714157216223      3.53468075142962     -0.00729145743546
C   0.01517603956900      2.83311183930540      0.00439272578912
C   2.46764517244071      2.82128997725533      0.00449278391269
C   3.70254947457969      3.52466015442405     -0.00899517692985
C   6.14498038638375      4.92757236613191     -0.00282626685777
C   6.16658835886151      3.51658447594213     -0.00065971342101
C   4.92460995845939      2.80840792535402      0.00587903281610
H   7.08990550964105      5.46688776622306     -0.00658814770723
H   -7.03104175110130      5.54268795285765     -0.00714490013730
C   -7.33969804112295      2.85841153457957     -0.00333767559888
C   -7.36488195805880      1.47032337158330     -0.00157213747140
C   -4.90350460894690      1.44442681216000     -0.00628840166334
C   -6.13225715261081      0.73993935705394      0.00600164231964
C   -3.67687480051673      0.72669714267312      0.00433931473643
C   -2.44565658606518      1.42964113326212     -0.00597039546461
C   -1.22360068130162      0.71532450163492      0.00545886906656
C   0.00763786931376      1.41738314923765      0.00392452278437
C   1.23121980774686      0.70211669058719     -0.01490206287210
C   2.46082110053113      1.40329203612573      0.00460244601878
C   3.68443025419614      0.68719842821222      0.00377365974158
C   4.91870890153864      1.39173456118907     -0.00862816189375
C   7.36980207796101      2.77948220318441     -0.00242013321349
C   7.38016266612146      1.39121750785509     -0.00087345036788
C   6.13979953912259      0.67411862320065      0.00545489144369
H   -8.27919079934664      3.40711804112415     -0.00763522772059
H   8.31511347147953      3.31811809662368     -0.00663070901292
C   -8.59175593758115      0.72483255304480     -0.00123170985383
C   -8.59902460370342     -0.63263980622873      0.00089141472904
C   -6.13981313911873     -0.67413663715361     -0.00609792660607
C   -7.38018411213749     -1.39126618958160      0.00131813493501
C   -4.91868448025621     -1.39175501803000      0.00624257154343
C   -3.68443829568458     -0.68723731573599     -0.00478966852105
C   -2.46081704024768     -1.40334517882457      0.00575341766833
C   -1.23116201232071     -0.70217386488055     -0.00636696112346
C   -0.00756962538737     -1.41741884941102      0.00108956317991
C   1.22364771588843     -0.71527537726392      0.01109518512883
C   2.44567064933149     -1.42964328900682     -0.00065482763106
C   3.67686670284649     -0.72670743155550     -0.00479541202602
C   6.13224884641929     -0.73997883984993     -0.00632338623858
C   4.90351914550401     -1.44445752054090      0.00751768830159
C   8.59901484869081      0.63260386666793     -0.00101133422380
C   8.59174548810050     -0.72485086719319      0.00072504603735
C   7.36486276438985     -1.47033266560598      0.00049486934466
H   -9.52830597181814      1.27684744919284     -0.00270163681798
H   9.54141097460619      1.17457248844457     -0.00206336648518
C   -7.36983790976868     -2.77954514593389      0.00312634335708
C   -4.92459910905015     -2.80843725734101     -0.00460528907921
C   -6.16662249566744     -3.51665219282533      0.00169655107992
C   -3.70251035970491     -3.52468154912026      0.00571878010666
C   -2.46764698511392     -2.82132596280400     -0.00632585824990
C   -0.01513347410770     -2.83314164539971     -0.00604426974092
C   -1.24712184122656     -3.53473217556300      0.00551968366725
C   1.20924506964357     -3.54791467864352      0.00805871345849
C   2.43733602215464     -2.84764173817541     -0.00608104485234
C   4.89430234377080     -2.86112296828604     -0.00526030478103
C   3.66461525504104     -3.56421984553201      0.00761911515957
C   6.12863901474565     -3.58258405771778      0.00096495711699
C   7.33967266469532     -2.85841330737039      0.00248018319869
H   -9.54144911125902     -1.17456346666430      0.00226083090216
H   9.52826186807155     -1.27691907390448      0.00197485379837
H   -8.31516504384864     -3.31814985321231      0.00729857188773
H   8.27915514249207     -3.40714078989363      0.00681973918158
C   -6.14499418870218     -4.92764727278338      0.00302254913999
C   -3.70678334799751     -4.94126171411716     -0.00679841894792
C   -4.95559005800169     -5.64349397349412      0.00116871569699
C   -2.48612132622665     -5.65478557440947      0.00614125209662
C   -1.25405833548005     -4.95612205000132     -0.00503435388927
C   1.20101257386816     -4.96928038819302     -0.00385322963129
C   -0.03033667441341     -5.66952030313900      0.00398997003238
C   3.65375010132847     -4.98074377541453     -0.00309522988330
C   2.42549269587528     -5.68117463552727      0.00628170066869
C   6.09196561781097     -4.99325796338655      0.00325918379042
C   4.89497644461045     -5.69634842095790      0.00202298796027
H   -7.08989238804069     -5.46699984223871      0.00742531082125
H   7.03105520920009     -5.54265853633254      0.00683896355417
C   -4.92354532219813     -7.07882109967734      0.00061394679214
C   -2.48534208823777     -7.08772807792913     -0.00189594564379
C   -3.75168589177895     -7.76394715763627     -0.00170126671874
C   -0.03794895698805     -7.09946487446944     -0.00168022049625
C   -1.27795610040136     -7.77290438466689     -0.00366491325785
C   2.40944432072629     -7.11402201200282     -0.00081701968533
C   1.19474993715296     -7.78618536556242     -0.00296931056689
C   4.84762105249800     -7.13126211057943      0.00168979497423
C   3.66847160587561     -7.80378799294376     -0.00065863938960
H   -5.86994035041618     -7.61383059804164      0.00215798365757
H   5.78824962538815     -7.67633218931421      0.00281691445618
H   -3.75352693944918     -8.85107156923607     -0.00353718114765
H   -1.28430440589466     -8.86087539249706     -0.00809229711623
H   1.18922157469537     -8.87416062058945     -0.00706194725726
H   3.65854661482387     -8.89086063405326     -0.00231318081200

    units angstrom      # Angstroms are the default
    no_reorient         # Geometry fixed, default
    symmetry c1         # C1 symmetry, default
}

set {
    scf_type DF         # Density fitting, faster than exact integrals
    freeze_core True    # Freeze core electrons
    basis jun-cc-pVDZ   # Jun-cc-pVDZ basis set, recommended for sSAPT0 in https://doi.org/10.1063/1.4867135
}

energy('ssapt0')        # Compute sSAPT0 energy, includes also SAPT0
--------------------------------------------------------------------------

  //              Dimer HF             //
    Molecular point group: c1
  Charge       = 1
  Multiplicity = 1
  Basis Set: JUN-CC-PVDZ
    Blend: JUN-CC-PVDZ
  Basis Set: (JUN-CC-PVDZ AUX)
    Blend: JUN-CC-PVDZ-JKFIT
  @DF-RHF Final Energy: -3953.64758611086518
    Total Energy =                      -3953.6475861108665413
 Dipole X            :          0.0018285            0.0004804            0.0023089
 Dipole Y            :         -1.5509689            1.8866171            0.3356482
 Dipole Z            :        -28.7462969           38.8119308           10.0656339
 Magnitude           :                                                   10.0712289
  //            Monomer A HF           //
    Molecular point group: c1
  Multiplicity = 1
  Basis Set: JUN-CC-PVDZ
    Blend: JUN-CC-PVDZ
  Basis Set: (JUN-CC-PVDZ AUX)
    Blend: JUN-CC-PVDZ-JKFIT
  @DF-RHF Final Energy:  -303.29734487159664
    Total Energy =                       -303.2973448715966356
  //            Monomer B HF           //
    Molecular point group: c1

    Geometry (in Angstrom), charge = 0, multiplicity = 1:

       Center              X                  Y                   Z               Mass
    ------------   -----------------  -----------------  -----------------  -----------------
      Gh(C)           0.680062820275    -1.215917226251     5.920088325208    12.000000000000
      Gh(C)          -0.680508179725    -1.215533226251     5.918060325208    12.000000000000
      Gh(N)          -1.085639179725     0.102790773749     5.917062325208    14.003074004430
      Gh(C)           0.000103820275     0.884191773749     5.913786325208    12.000000000000
      Gh(C)          -2.477369179725     0.570769773749     5.867656325208    12.000000000000
      Gh(N)           1.085217820275     0.102790773749     5.917062325208    14.003074004430
      Gh(H)           1.385141820275    -2.033356226251     5.927916325208     1.007825032230
      Gh(H)          -1.385306179725    -2.033202226251     5.918250325208     1.007825032230
      Gh(H)          -0.000013179725     1.965280773749     5.912039325208     1.007825032230
      Gh(C)           2.478112820275     0.567888773749     5.933954325208    12.000000000000
      Gh(H)           2.490587820275     1.658141773750     5.906609325208     1.007825032230
      Gh(H)           2.967023820275     0.220712773749     6.847400325208     1.007825032230
      Gh(H)           3.001423820275     0.176416773749     5.058471325208     1.007825032230
      Gh(H)          -2.857363179725     0.490810773749     4.845585325208     1.007825032230
      Gh(H)          -3.082683179725    -0.042294226251     6.537740325208     1.007825032230
      Gh(H)          -2.518132179725     1.610717773749     6.194640325208     1.007825032230
         C           -3.668445443746     7.803763943832    -0.486053633456    12.000000000000
         C           -4.847602899072     7.131253605090    -0.488420208389    12.000000000000
         C           -4.894963478901     5.696342177281    -0.488993119487    12.000000000000
         C           -3.653744858499     4.980742114708    -0.481332677758    12.000000000000
         C           -2.409429301220     7.113992810424    -0.485859291196    12.000000000000
         C           -2.425481523830     5.681133724653    -0.492864180066    12.000000000000
         C           -1.194748196161     7.786155968059    -0.484387110654    12.000000000000
         C            0.037954849212     7.099433419506    -0.486557814959    12.000000000000
         C            0.030328407694     5.669501333454    -0.492041199875    12.000000000000
         C           -1.200988687630     4.969282121665    -0.483071465941    12.000000000000
         C            1.277953646089     7.772871216944    -0.485181966399    12.000000000000
         C            2.485353904999     7.087708658987    -0.487456454303    12.000000000000
         C            2.486124505192     5.654782583990    -0.494394203291    12.000000000000
         C            1.254078739919     4.956089887414    -0.482766261703    12.000000000000
         C            3.751710411681     7.763923924730    -0.487329602923    12.000000000000
         C            4.923561876460     7.078792550739    -0.489386083631    12.000000000000
         C            4.955603091600     5.643459237119    -0.489546496438    12.000000000000
         C            3.706797354479     4.941221982083    -0.484454936268    12.000000000000
         H           -3.658525317484     8.890839192885    -0.484368645206     1.007825032230
         H           -1.189217509482     8.874132861109    -0.480415234213     1.007825032230
         H            1.284290059161     8.860845209238    -0.481023142258     1.007825032230
         H            3.753537907074     8.851047052722    -0.485807078607     1.007825032230
         H            5.869954523482     7.613806608405    -0.490311450673     1.007825032230
         H           -5.788235887228     7.676313986684    -0.489980055745     1.007825032230
         C           -6.091978138422     4.993271787393    -0.490865359978    12.000000000000
         C           -6.128665660043     3.582591942548    -0.489664182949    12.000000000000
         C           -3.664583919771     3.564193953494    -0.492589277567    12.000000000000
         C           -4.894302384424     2.861092549650    -0.483420292582    12.000000000000
         C           -2.437339174623     2.847623430834    -0.480757499030    12.000000000000
         C           -1.209232037322     3.547898708728    -0.494436525822    12.000000000000
         C            1.247137392437     3.534692525179    -0.495245132227    12.000000000000
         C            0.015171859844     2.833123613055    -0.483560949003    12.000000000000
         C            2.467640992715     2.821301751005    -0.483460890879    12.000000000000
         C            3.702545294854     3.524671928174    -0.496948851722    12.000000000000
         C            6.144976206658     4.927584139881    -0.490779941650    12.000000000000
         C            6.166584179136     3.516596249692    -0.488613388213    12.000000000000
         C            4.924605778734     2.808419699104    -0.482074641976    12.000000000000
         H            7.089901329916     5.466899539973    -0.494541822499     1.007825032230
         H           -7.031045930827     5.542699726607    -0.495098574929     1.007825032230
         C           -7.339702220848     2.858423308329    -0.491291350391    12.000000000000
         C           -7.364886137784     1.470335145333    -0.489525812263    12.000000000000
         C           -4.903508788672     1.444438585909    -0.494242076455    12.000000000000
         C           -6.132261332336     0.739951130803    -0.481952032472    12.000000000000
         C           -3.676878980242     0.726708916423    -0.483614360055    12.000000000000
         C           -2.445660765791     1.429652907012    -0.493924070256    12.000000000000
         C           -1.223604861027     0.715336275384    -0.482494805725    12.000000000000
         C            0.007633689588     1.417394922987    -0.484029152008    12.000000000000
         C            1.231215628021     0.702128464337    -0.502855737664    12.000000000000
         C            2.460816920806     1.403303809875    -0.483351228773    12.000000000000
         C            3.684426074471     0.687210201962    -0.484180015050    12.000000000000
         C            4.918704721813     1.391746334939    -0.496581836686    12.000000000000
         C            7.369797898236     2.779493976934    -0.490373808005    12.000000000000
         C            7.380158486396     1.391229281605    -0.488827125160    12.000000000000
         C            6.139795359397     0.674130396950    -0.482498783348    12.000000000000
         H           -8.279194979072     3.407129814874    -0.495588902512     1.007825032230
         H            8.315109291754     3.318129870373    -0.494584383805     1.007825032230
         C           -8.591760117307     0.724844326794    -0.489185384646    12.000000000000
         C           -8.599028783429    -0.632628032479    -0.487062260063    12.000000000000
         C           -6.139817318844    -0.674124863404    -0.494051601398    12.000000000000
         C           -7.380188291863    -1.391254415832    -0.486635539857    12.000000000000
         C           -4.918688659982    -1.391743244281    -0.481711103248    12.000000000000
         C           -3.684442475410    -0.687225541986    -0.492743343313    12.000000000000
         C           -2.460821219973    -1.403333405075    -0.482200257124    12.000000000000
         C           -1.231166192046    -0.702162091131    -0.494320635915    12.000000000000
         C           -0.007573805113    -1.417407075662    -0.486864111612    12.000000000000
         C            1.223643536163    -0.715263603514    -0.476858489663    12.000000000000
         C            2.445666469606    -1.429631515257    -0.488608502423    12.000000000000
         C            3.676862523121    -0.726695657806    -0.492749086818    12.000000000000
         C            6.132244666694    -0.739967066100    -0.494277061030    12.000000000000
         C            4.903514965779    -1.444445746791    -0.480435986490    12.000000000000
         C            8.599010668965     0.632615640417    -0.488965009016    12.000000000000
         C            8.591741308375    -0.724839093444    -0.487228628755    12.000000000000
         C            7.364858584664    -1.470320891856    -0.487458805447    12.000000000000
         H           -9.528310151544     1.276859222942    -0.490655311610     1.007825032230
         H            9.541406794881     1.174584262194    -0.490017041277     1.007825032230
         C           -7.369842089494    -2.779533372184    -0.484827331435    12.000000000000
         C           -4.924603288776    -2.808425483592    -0.492558963871    12.000000000000
         C           -6.166626675393    -3.516640419076    -0.486257123712    12.000000000000
         C           -3.702514539430    -3.524669775371    -0.482234894685    12.000000000000
         C           -2.467651164839    -2.821314189055    -0.494279533042    12.000000000000
         C           -0.015137653833    -2.833129871650    -0.493997944533    12.000000000000
         C           -1.247126020952    -3.534720401814    -0.482433991125    12.000000000000
         C            1.209240889918    -3.547902904894    -0.479894961333    12.000000000000
         C            2.437331842429    -2.847629964426    -0.494034719644    12.000000000000
         C            4.894298164045    -2.861111194537    -0.493213979573    12.000000000000
         C            3.664611075316    -3.564208071783    -0.480334559632    12.000000000000
         C            6.128634835020    -3.582572283968    -0.486988717675    12.000000000000
         C            7.339668484970    -2.858401533621    -0.485473491593    12.000000000000
         H           -9.541453290984    -1.174551692915    -0.485692843890     1.007825032230
         H            9.528257688346    -1.276907300155    -0.485978820994     1.007825032230
         H           -8.315169223574    -3.318138079463    -0.480655102904     1.007825032230
         H            8.279150962767    -3.407129016144    -0.481133935610     1.007825032230
         C           -6.144998368428    -4.927635499034    -0.484931125652    12.000000000000
         C           -3.706787527723    -4.941249940368    -0.494752093740    12.000000000000
         C           -4.955594237727    -5.643482199745    -0.486784959095    12.000000000000
         C           -2.486125505952    -5.654773800660    -0.481812422695    12.000000000000
         C           -1.254062515205    -4.956110276252    -0.492988028681    12.000000000000
         C            1.201008394143    -4.969268614444    -0.491806904423    12.000000000000
         C           -0.030340854139    -5.669508529390    -0.483963704760    12.000000000000
         C            3.653745921603    -4.980732001665    -0.491048904675    12.000000000000
         C            2.425488516150    -5.681162861778    -0.481671974123    12.000000000000
         C            6.091961438086    -4.993246189637    -0.484694491001    12.000000000000
         C            4.894972264885    -5.696336647208    -0.485930686832    12.000000000000
         H           -7.089896567766    -5.466988068489    -0.480528363971     1.007825032230
         H            7.031051029475    -5.542646762583    -0.481114711238     1.007825032230
         C           -4.923549501924    -7.078809325928    -0.487339728000    12.000000000000
         C           -2.485346267963    -7.087716304180    -0.489849620436    12.000000000000
         C           -3.751690071504    -7.763935383887    -0.489654941511    12.000000000000
         C           -0.037953136713    -7.099453100720    -0.489633895288    12.000000000000
         C           -1.277960280127    -7.772892610917    -0.491618588050    12.000000000000
         C            2.409440141001    -7.114010238253    -0.488770694477    12.000000000000
         C            1.194745757428    -7.786173591813    -0.490922985359    12.000000000000
         C            4.847616872773    -7.131250336830    -0.486263879818    12.000000000000
         C            3.668467426150    -7.803776219194    -0.488612314181    12.000000000000
         H           -5.869944530142    -7.613818824292    -0.485795691134     1.007825032230
         H            5.788245445663    -7.676320415565    -0.485136760336     1.007825032230
         H           -3.753531119175    -8.851059795487    -0.491490855940     1.007825032230
         H           -1.284308585620    -8.860863618748    -0.496045971908     1.007825032230
         H            1.189217394970    -8.874148846840    -0.495015622049     1.007825032230
         H            3.658542435098    -8.890848860304    -0.490266855604     1.007825032230

  Charge       = 0
  Multiplicity = 1
  Basis Set: JUN-CC-PVDZ
    Blend: JUN-CC-PVDZ
  Basis Set: (JUN-CC-PVDZ AUX)
    Blend: JUN-CC-PVDZ-JKFIT

    Orbital Energies [Eh]
    ---------------------

    Doubly Occupied:

       1A    -11.264030     2A    -11.263716     3A    -11.263715
       4A    -11.263375     5A    -11.263373     6A    -11.263337
       7A    -11.263180     8A    -11.263153     9A    -11.263150
      10A    -11.262995    11A    -11.262834    12A    -11.262831
      13A    -11.262352    14A    -11.262350    15A    -11.262276
      16A    -11.262275    17A    -11.262225    18A    -11.262191
      19A    -11.262146    20A    -11.262108    21A    -11.262106
      22A    -11.261952    23A    -11.261947    24A    -11.261831
      25A    -11.261817    26A    -11.261803    27A    -11.261799
      28A    -11.261751    29A    -11.261743    30A    -11.261670
      31A    -11.261643    32A    -11.261640    33A    -11.261614
      34A    -11.261612    35A    -11.261591    36A    -11.261540
      37A    -11.261408    38A    -11.261397    39A    -11.261391
      40A    -11.261384    41A    -11.261379    42A    -11.261370
      43A    -11.261365    44A    -11.261350    45A    -11.261345
      46A    -11.261323    47A    -11.261319    48A    -11.261315
      49A    -11.261158    50A    -11.261126    51A    -11.261124
      52A    -11.261042    53A    -11.261041    54A    -11.260970
      55A    -11.260006    56A    -11.259993    57A    -11.259990
      58A    -11.259961    59A    -11.259959    60A    -11.259943
      61A    -11.259383    62A    -11.259358    63A    -11.259355
      64A    -11.259304    65A    -11.259301    66A    -11.259272
      67A    -11.259010    68A    -11.258992    69A    -11.258991
      70A    -11.258963    71A    -11.258961    72A    -11.258949
      73A    -11.254585    74A    -11.254583    75A    -11.254581
      76A    -11.254579    77A    -11.254574    78A    -11.254571
      79A    -11.253733    80A    -11.253731    81A    -11.253728
      82A    -11.253727    83A    -11.253724    84A    -11.253719
      85A    -11.253648    86A    -11.253647    87A    -11.253644
      88A    -11.253642    89A    -11.253640    90A    -11.253635
      91A    -11.253112    92A    -11.253111    93A    -11.253110
      94A    -11.253107    95A    -11.253102    96A    -11.253099
      97A     -1.254112    98A     -1.239126    99A     -1.239125
     100A     -1.220573   101A     -1.220568   102A     -1.215591
     103A     -1.201136   104A     -1.195705   105A     -1.188283
     106A     -1.188281   107A     -1.173856   108A     -1.173853
     109A     -1.155759   110A     -1.155755   111A     -1.152861
     112A     -1.144810   113A     -1.144807   114A     -1.128684
     115A     -1.114840   116A     -1.113251   117A     -1.112622
     118A     -1.112609   119A     -1.111701   120A     -1.088545
     121A     -1.088530   122A     -1.077048   123A     -1.077046
     124A     -1.067738   125A     -1.067708   126A     -1.065106
     127A     -1.046906   128A     -1.046898   129A     -1.040593
     130A     -1.038820   131A     -1.038820   132A     -1.025372
     133A     -1.021540   134A     -1.021490   135A     -1.007278
     136A     -1.006919   137A     -1.003896   138A     -1.000616
     139A     -1.000568   140A     -0.991156   141A     -0.971106
     142A     -0.971058   143A     -0.955978   144A     -0.955923
     145A     -0.905741   146A     -0.905700   147A     -0.905629
     148A     -0.905588   149A     -0.904495   150A     -0.892511
     151A     -0.892452   152A     -0.890498   153A     -0.890441
     154A     -0.889576   155A     -0.872309   156A     -0.869126
     157A     -0.851637   158A     -0.847994   159A     -0.847973
     160A     -0.845730   161A     -0.843136   162A     -0.834669
     163A     -0.834657   164A     -0.828202   165A     -0.828198
     166A     -0.784659   167A     -0.784648   168A     -0.783783
     169A     -0.783757   170A     -0.782403   171A     -0.782382
     172A     -0.782164   173A     -0.767095   174A     -0.760934
     175A     -0.750711   176A     -0.733574   177A     -0.727176
     178A     -0.727162   179A     -0.725198   180A     -0.724644
     181A     -0.724625   182A     -0.718637   183A     -0.713902
     184A     -0.713896   185A     -0.699679   186A     -0.699666
     187A     -0.686269   188A     -0.686047   189A     -0.686044
     190A     -0.682269   191A     -0.682259   192A     -0.678899
     193A     -0.653731   194A     -0.650979   195A     -0.650949
     196A     -0.649947   197A     -0.649932   198A     -0.649655
     199A     -0.641067   200A     -0.641039   201A     -0.640179
     202A     -0.639245   203A     -0.636143   204A     -0.636116
     205A     -0.629246   206A     -0.617668   207A     -0.615389
     208A     -0.615369   209A     -0.608899   210A     -0.608893
     211A     -0.599168   212A     -0.599136   213A     -0.598854
     214A     -0.598725   215A     -0.598701   216A     -0.598176
     217A     -0.595156   218A     -0.595143   219A     -0.594824
     220A     -0.594378   221A     -0.592070   222A     -0.592067
     223A     -0.587534   224A     -0.577866   225A     -0.577856
     226A     -0.575726   227A     -0.575722   228A     -0.573474
     229A     -0.569567   230A     -0.568275   231A     -0.568251
     232A     -0.566860   233A     -0.566851   234A     -0.560986
     235A     -0.558837   236A     -0.558817   237A     -0.558502
     238A     -0.554472   239A     -0.550618   240A     -0.547544
     241A     -0.544328   242A     -0.535029   243A     -0.534999
     244A     -0.533636   245A     -0.533614   246A     -0.528166
     247A     -0.528150   248A     -0.527932   249A     -0.517295
     250A     -0.517261   251A     -0.515413   252A     -0.515408
     253A     -0.509728   254A     -0.509712   255A     -0.498121
     256A     -0.496552   257A     -0.496525   258A     -0.493833
     259A     -0.493825   260A     -0.489467   261A     -0.481537
     262A     -0.477476   263A     -0.477473   264A     -0.474087
     265A     -0.469552   266A     -0.466630   267A     -0.466626
     268A     -0.458863   269A     -0.446833   270A     -0.446772
     271A     -0.441086   272A     -0.440814   273A     -0.440788
     274A     -0.434745   275A     -0.433962   276A     -0.407435
     277A     -0.407411   278A     -0.386471   279A     -0.386423
     280A     -0.385786   281A     -0.385785   282A     -0.383815
     283A     -0.354386   284A     -0.354369   285A     -0.350723
     286A     -0.338153   287A     -0.335651   288A     -0.335583
     289A     -0.332768   290A     -0.332762   291A     -0.307148
     292A     -0.302010   293A     -0.301949   294A     -0.300900
     295A     -0.286229   296A     -0.256517   297A     -0.253562
     298A     -0.253510   299A     -0.204322   300A     -0.204233

  @DF-RHF Final Energy: -3650.33795675494821

   => Energetics <=

    Nuclear Repulsion Energy =          15611.4211649754324753
    One-Electron Energy =              -36072.0889439989769016
    Two-Electron Energy =               16810.3298222685953078
    Total Energy =                      -3650.3379567549491185
 Dipole X            :         -0.0009023            0.0002112           -0.0006911
 Dipole Y            :          0.0041674           -0.0044281           -0.0002607
 Dipole Z            :        553.2489537         -553.2558925           -0.0069387
 Magnitude           :                                                    0.0069780

    SAPT Results
  --------------------------------------------------------------------------------------------------------
    Electrostatics                 -8.86711842 [mEh]      -5.56420081 [kcal/mol]     -23.28061620 [kJ/mol]
      Elst10,r                     -8.86711842 [mEh]      -5.56420081 [kcal/mol]     -23.28061620 [kJ/mol]

    Exchange                       -0.00057586 [mEh]      -0.00036135 [kcal/mol]      -0.00151191 [kJ/mol]
      Exch10                       -0.00057586 [mEh]      -0.00036135 [kcal/mol]      -0.00151191 [kJ/mol]
      Exch10(S^2)                  -0.00057586 [mEh]      -0.00036135 [kcal/mol]      -0.00151191 [kJ/mol]

    Induction                      -3.41679005 [mEh]      -2.14406812 [kcal/mol]      -8.97078103 [kJ/mol]
      Ind20,r                      -3.36431516 [mEh]      -2.11113964 [kcal/mol]      -8.83300823 [kJ/mol]
      Exch-Ind20,r                  0.00108296 [mEh]       0.00067957 [kcal/mol]       0.00284331 [kJ/mol]
      delta HF,r (2)               -0.05355785 [mEh]      -0.03360806 [kcal/mol]      -0.14061611 [kJ/mol]

    Dispersion                     -2.22606970 [mEh]      -1.39687983 [kcal/mol]      -5.84454520 [kJ/mol]
      Disp20                       -2.22656022 [mEh]      -1.39718763 [kcal/mol]      -5.84583306 [kJ/mol]
      Exch-Disp20                   0.00049052 [mEh]       0.00030781 [kcal/mol]       0.00128787 [kJ/mol]
      Disp20 (SS)                  -1.11328011 [mEh]      -0.69859382 [kcal/mol]      -2.92291653 [kJ/mol]
      Disp20 (OS)                  -1.11328011 [mEh]      -0.69859382 [kcal/mol]      -2.92291653 [kJ/mol]
      Exch-Disp20 (SS)              0.00037675 [mEh]       0.00023641 [kcal/mol]       0.00098915 [kJ/mol]
      Exch-Disp20 (OS)              0.00011377 [mEh]       0.00007139 [kcal/mol]       0.00029871 [kJ/mol]

  Total HF                        -12.28448432 [mEh]      -7.70863029 [kcal/mol]     -32.25290914 [kJ/mol]
  Total SAPT0                     -14.51055402 [mEh]      -9.10551012 [kcal/mol]     -38.09745433 [kJ/mol]

  Special recipe for scaled SAPT0 (see Manual):
    Electrostatics sSAPT0          -8.86711842 [mEh]      -5.56420081 [kcal/mol]     -23.28061620 [kJ/mol]
    Exchange sSAPT0                -0.00057586 [mEh]      -0.00036135 [kcal/mol]      -0.00151191 [kJ/mol]
    Induction sSAPT0               -3.41679005 [mEh]      -2.14406812 [kcal/mol]      -8.97078103 [kJ/mol]
    Dispersion sSAPT0              -2.22606970 [mEh]      -1.39687983 [kcal/mol]      -5.84454520 [kJ/mol]
  Total sSAPT0                    -14.51055402 [mEh]      -9.10551012 [kcal/mol]     -38.09745433 [kJ/mol]
  --------------------------------------------------------------------------------------------------------

*** Psi4 exiting successfully. Buy a developer a beer!
