                               Psi4 1.9 release

  ==> Input File <==

--------------------------------------------------------------------------
memory 32 GB # how much memory is available ! Depends on the nodes/cores !

molecule dimer {
# monomer A
+1 1    # Charge and multiplicity
C  0.680067 -1.215929 2.008042
C -0.680504 -1.215545 2.006014
N -1.085635  0.102779 2.005016
C  0.000108  0.884180 2.001740
C -2.477365  0.570758 1.955610
N  1.085222  0.102779 2.005016
H  1.385146 -2.033368 2.015870
H -1.385302 -2.033214 2.006204
H -0.000009  1.965269 1.999993
C  2.478117  0.567877 2.021908
H  2.490592  1.658130 1.994563
H  2.967028  0.220701 2.935354
H  3.001428  0.176405 1.146425
H -2.857359  0.490799 0.933539
H -3.082679 -0.042306 2.625694
H -2.518128  1.610706 2.282594
--
# monomer B
0 1     # Charge and multiplicity
C   1.22531237526482      0.70753866091955      0.00613762728373
C   1.22532433589282     -0.70753852257020     -0.00619318228664
C   -0.00000567409046      1.41496628609039     -0.00672680580738
C   2.45644923379077      1.41832825917820      0.00902448468363
C   0.00001130712078     -1.41497612663474      0.00347275151708
C   -1.22530046906674      0.70754574598412      0.00838914760619
C   2.45643823516184     -1.41832293188077     -0.00843833914343
C   -0.00000085313587      2.83680140328112     -0.00913035594137
C   3.68182717731192      0.70931832800114     -0.00808954934571
C   2.45512052870677      2.83422403348893     -0.00819210630633
C   3.68182158506039     -0.70933346742900      0.00798293467272
C   -1.22531311884624     -0.70752714354401     -0.00512042085974
C   1.22670006104402      3.54346985599427      0.00816696660346
C   0.00000526469929     -2.83678176723568      0.00832091913869
C   -2.45643555300670      1.41831729028492      0.00842454345199
C   2.45512389762097     -2.83422965658853      0.00783102630520
C   -1.22671388474763      3.54346943575023      0.00827029982280
C   4.91451777504333      1.42717324448953     -0.00160886631602
C   3.69315067131765      3.54279566454522     -0.00155906667985
C   -2.45643712022637     -1.41831290883911     -0.00846337726810
C   1.22670532178455     -3.54347386990643     -0.00780316414624
C   -2.45512491866593      2.83421703463423     -0.00818572995999
C   4.91452486062398     -1.42718653794377      0.00136387641845
C   1.22142509354026      4.97013443726031      0.00150231067809
C   4.89300870916237      2.82518837202648     -0.00039219795739
C   -1.22669652864725     -3.54347062507680     -0.00753595973677
C   -3.68181849668397      0.70932533873199     -0.00807686886569
C   3.69314758099218     -3.54280096939050      0.00148176697923
C   -1.22143177215231      4.97012866986289      0.00168580605083
C   6.13477145276790      0.68054831910577     -0.00083909176631
C   3.65678936045204      4.97295361556775     -0.00065042889723
C   -2.45512642789169     -2.83421472106065      0.00758666850712
C   -3.68181869921921     -0.70932533146830      0.00810055625144
C   4.89301309775526     -2.82519973363176      0.00021895393805
C   -0.00000059327114      5.65044773803267      0.00045449734393
C   6.13477559217374     -0.68055448207492      0.00042622874941
C   2.47813196269732      5.65357712333155      0.00063835075260
C   1.22142288457925     -4.97012668293268     -0.00129718634452
C   -3.69316190412301      3.54279732619245     -0.00139355922051
C   -1.22142804110313     -4.97011793159564     -0.00140994817719
C   -4.91452132810043      1.42717581899491     -0.00153192130862
C   3.65678749952045     -4.97295485423912      0.00080007163680
C   -2.47813805026426      5.65357479452875      0.00092287576113
C   -3.69314125872231     -3.54278984697859      0.00136564082345
C   -4.91451200321153     -1.42718062802730      0.00139857359209
C   -0.00000552908399     -5.65043791501335      0.00005899322272
C   -4.89302000425900      2.82518897091939     -0.00040227981744
C   2.47812647313991     -5.65357317188818     -0.00029052915548
C   -3.65679823041642      4.97295655404175     -0.00047374852278
C   -4.89299899901461     -2.82519139505969      0.00006491824035
C   -2.47812801824129     -5.65356579800621     -0.00056571680280
C   -6.13477002348955      0.68054913825639     -0.00086464346868
C   -3.65678835334731     -4.97294365097028      0.00058578382008
C   -6.13476456307132     -0.68055354348201      0.00040575295444
H   5.83528897565761      3.36927626695423      0.00396712770529
H   7.07385965258860      1.22821762089947     -0.00037744837300
H   4.60066374401555      5.51238117445323     -0.00014522814529
H   5.83528386714679     -3.36930568472863     -0.00423551337640
H   -0.00001167146422      6.73853104613662     -0.00389474766392
H   7.07386165167227     -1.22822657074368     -0.00008250934481
H   2.47331421164041      6.74068466339473      0.00017162982210
H   4.60066897122302     -5.51237575717576      0.00039007446835
H   -2.47331820069565      6.74068209160650      0.00047297644710
H   -0.00000978838621     -6.73852780445195      0.00458867820736
H   -5.83530143450167      3.36927132229595      0.00410314985360
H   2.47330840367253     -6.74068500242887      0.00027980126949
H   -4.60067436136587      5.51237839860371      0.00002010017831
H   -5.83527902699321     -3.36928859177951     -0.00451481925734
H   -2.47329986759855     -6.74067870613986     -0.00016951527498
H   -7.07385728692578      1.22822084484047     -0.00046143985387
H   -4.60067330624313     -5.51236229778631      0.00021776644566
H   -7.07385645456741     -1.22822025997701     -0.00017736581114

    units angstrom      # Angstroms are the default
    no_reorient         # Geometry fixed, default
    symmetry c1         # C1 symmetry, default
}

set {
    scf_type DF         # Density fitting, faster than exact integrals
    freeze_core True    # Freeze core electrons
    basis jun-cc-pVDZ   # Jun-cc-pVDZ basis set, recommended for sSAPT0 in https://doi.org/10.1063/1.4867135
}

energy('ssapt0')        # Compute sSAPT0 energy, includes also SAPT0
--------------------------------------------------------------------------

  //              Dimer HF             //
    Molecular point group: c1
  Charge       = 1
  Multiplicity = 1
  Basis Set: JUN-CC-PVDZ
    Blend: JUN-CC-PVDZ
  Basis Set: (JUN-CC-PVDZ AUX)
    Blend: JUN-CC-PVDZ-JKFIT
  @DF-RHF Final Energy: -2358.38560209085199
    Total Energy =                      -2358.3856020908515347
 Dipole X            :          0.0502834            0.0006313            0.0509147
 Dipole Y            :         -2.1474824            1.8864948           -0.2609876
 Dipole Z            :         -8.8187896           10.3694728            1.5506833
 Magnitude           :                                                    1.5733167
  //            Monomer A HF           //
    Molecular point group: c1
  Multiplicity = 1
  Basis Set: JUN-CC-PVDZ
    Blend: JUN-CC-PVDZ
  Basis Set: (JUN-CC-PVDZ AUX)
    Blend: JUN-CC-PVDZ-JKFIT
  @DF-RHF Final Energy:  -303.30246973933356
    Total Energy =                       -303.3024697393335600
  //            Monomer B HF           //
    Molecular point group: c1

    Geometry (in Angstrom), charge = 0, multiplicity = 1:

       Center              X                  Y                   Z               Mass
    ------------   -----------------  -----------------  -----------------  -----------------
      Gh(C)           0.680066520158    -1.215933861162     1.753656451385    12.000000000000
      Gh(C)          -0.680504479842    -1.215549861162     1.751628451385    12.000000000000
      Gh(N)          -1.085635479842     0.102774138838     1.750630451385    14.003074004430
      Gh(C)           0.000107520158     0.884175138838     1.747354451385    12.000000000000
      Gh(C)          -2.477365479842     0.570753138838     1.701224451385    12.000000000000
      Gh(N)           1.085221520158     0.102774138838     1.750630451385    14.003074004430
      Gh(H)           1.385145520158    -2.033372861162     1.761484451385     1.007825032230
      Gh(H)          -1.385302479842    -2.033218861162     1.751818451385     1.007825032230
      Gh(H)          -0.000009479842     1.965264138838     1.745607451385     1.007825032230
      Gh(C)           2.478116520158     0.567872138838     1.767522451385    12.000000000000
      Gh(H)           2.490591520158     1.658125138838     1.740177451385     1.007825032230
      Gh(H)           2.967027520158     0.220696138838     2.680968451385     1.007825032230
      Gh(H)           3.001427520158     0.176400138838     0.892039451385     1.007825032230
      Gh(H)          -2.857359479842     0.490794138838     0.679153451385     1.007825032230
      Gh(H)          -3.082679479842    -0.042310861162     2.371308451385     1.007825032230
      Gh(H)          -2.518128479842     1.610701138838     2.028208451385     1.007825032230
         C            1.225311895423     0.707533799757    -0.248247921331    12.000000000000
         C            1.225323856051    -0.707543383733    -0.260578730901    12.000000000000
         C           -0.000006153932     1.414961424928    -0.261112354422    12.000000000000
         C            2.456448753949     1.418323398016    -0.245361063931    12.000000000000
         C            0.000010827279    -1.414980987797    -0.250912797098    12.000000000000
         C           -1.225300948908     0.707540884822    -0.245996401009    12.000000000000
         C            2.456437755320    -1.418327793043    -0.262823887758    12.000000000000
         C           -0.000001332978     2.836796542119    -0.263515904556    12.000000000000
         C            3.681826697470     0.709313466839    -0.262475097960    12.000000000000
         C            2.455120048865     2.834219172327    -0.262577654921    12.000000000000
         C            3.681821105219    -0.709338328591    -0.246402613942    12.000000000000
         C           -1.225313598688    -0.707532004706    -0.259505969474    12.000000000000
         C            1.226699581202     3.543464994832    -0.246218582011    12.000000000000
         C            0.000004784858    -2.836786628398    -0.246064629476    12.000000000000
         C           -2.456436032848     1.418312429123    -0.245961005163    12.000000000000
         C            2.455123417779    -2.834234517751    -0.246554522310    12.000000000000
         C           -1.226714364589     3.543464574588    -0.246115248792    12.000000000000
         C            4.914517295202     1.427168383327    -0.255994414931    12.000000000000
         C            3.693150191476     3.542790803383    -0.255944615295    12.000000000000
         C           -2.456437600068    -1.418317770001    -0.262848925883    12.000000000000
         C            1.226704841943    -3.543478731069    -0.262188712761    12.000000000000
         C           -2.455125398508     2.834212173472    -0.262571278575    12.000000000000
         C            4.914524380782    -1.427191399106    -0.253021672196    12.000000000000
         C            1.221424613699     4.970129576098    -0.252883237937    12.000000000000
         C            4.893008229321     2.825183510864    -0.254777746572    12.000000000000
         C           -1.226697008489    -3.543475486239    -0.261921508352    12.000000000000
         C           -3.681818976526     0.709320477570    -0.262462417480    12.000000000000
         C            3.693147101150    -3.542805830553    -0.252903781636    12.000000000000
         C           -1.221432251994     4.970123808701    -0.252699742564    12.000000000000
         C            6.134770972926     0.680543457943    -0.255224640381    12.000000000000
         C            3.656788880610     4.972948754405    -0.255035977512    12.000000000000
         C           -2.455126907733    -2.834219582223    -0.246798880108    12.000000000000
         C           -3.681819179061    -0.709330192631    -0.246284992363    12.000000000000
         C            4.893012617914    -2.825204594794    -0.254166594677    12.000000000000
         C           -0.000001073113     5.650442876870    -0.253931051271    12.000000000000
         C            6.134775112332    -0.680559343237    -0.253959319865    12.000000000000
         C            2.478131482856     5.653572262169    -0.253747197862    12.000000000000
         C            1.221422404738    -4.970131544095    -0.255682734959    12.000000000000
         C           -3.693162383965     3.542792465030    -0.255779107835    12.000000000000
         C           -1.221428520945    -4.970122792758    -0.255795496792    12.000000000000
         C           -4.914521807942     1.427170957833    -0.255917469923    12.000000000000
         C            3.656787019679    -4.972959715401    -0.253585476978    12.000000000000
         C           -2.478138530106     5.653569933366    -0.253462672854    12.000000000000
         C           -3.693141738564    -3.542794708141    -0.253019907791    12.000000000000
         C           -4.914512483053    -1.427185489190    -0.252986975023    12.000000000000
         C           -0.000006008926    -5.650442776176    -0.254326555392    12.000000000000
         C           -4.893020484101     2.825184109757    -0.254787828432    12.000000000000
         C            2.478125993298    -5.653578033051    -0.254676077770    12.000000000000
         C           -3.656798710258     4.972951692879    -0.254859297138    12.000000000000
         C           -4.892999478856    -2.825196256222    -0.254320630374    12.000000000000
         C           -2.478128498083    -5.653570659169    -0.254951265418    12.000000000000
         C           -6.134770503331     0.680544277094    -0.255250192083    12.000000000000
         C           -3.656788833189    -4.972948512133    -0.253799764795    12.000000000000
         C           -6.134765042913    -0.680558404644    -0.253979795660    12.000000000000
         H            5.835288495816     3.369271405792    -0.250418420909     1.007825032230
         H            7.073859172747     1.228212759737    -0.254762996988     1.007825032230
         H            4.600663264174     5.512376313291    -0.254530776760     1.007825032230
         H            5.835283387305    -3.369310545891    -0.258621061991     1.007825032230
         H           -0.000012151306     6.738526184974    -0.258280296279     1.007825032230
         H            7.073861171831    -1.228231431906    -0.254468057960     1.007825032230
         H            2.473313731799     6.740679802232    -0.254213918793     1.007825032230
         H            4.600668491381    -5.512380618338    -0.253995474146     1.007825032230
         H           -2.473318680537     6.740677230444    -0.253912572168     1.007825032230
         H           -0.000010268228    -6.738532665614    -0.249796870407     1.007825032230
         H           -5.835301914343     3.369266461134    -0.250282398761     1.007825032230
         H            2.473307923831    -6.740689863591    -0.254105747345     1.007825032230
         H           -4.600674841208     5.512373537441    -0.254365448436     1.007825032230
         H           -5.835279506835    -3.369293452942    -0.258900367872     1.007825032230
         H           -2.473300347440    -6.740683567302    -0.254555063890     1.007825032230
         H           -7.073857766768     1.228215983678    -0.254846988469     1.007825032230
         H           -4.600673786085    -5.512367158949    -0.254167782169     1.007825032230
         H           -7.073856934409    -1.228225121139    -0.254562914426     1.007825032230

  Charge       = 0
  Multiplicity = 1
  Basis Set: JUN-CC-PVDZ
    Blend: JUN-CC-PVDZ
  Basis Set: (JUN-CC-PVDZ AUX)
    Blend: JUN-CC-PVDZ-JKFIT

    Orbital Energies [Eh]
    ---------------------

    Doubly Occupied:

       1A    -11.260462     2A    -11.260015     3A    -11.259993
       4A    -11.259267     5A    -11.259255     6A    -11.259076
       7A    -11.258839     8A    -11.258764     9A    -11.258756
      10A    -11.258433    11A    -11.258423    12A    -11.258318
      13A    -11.258279    14A    -11.258268    15A    -11.258243
      16A    -11.258224    17A    -11.258219    18A    -11.258208
      19A    -11.258201    20A    -11.258185    21A    -11.258174
      22A    -11.258123    23A    -11.258117    24A    -11.257866
      25A    -11.257119    26A    -11.257062    27A    -11.257043
      28A    -11.256926    29A    -11.256919    30A    -11.256832
      31A    -11.256213    32A    -11.256143    33A    -11.256124
      34A    -11.256033    35A    -11.256025    36A    -11.255967
      37A    -11.252105    38A    -11.252097    39A    -11.252066
      40A    -11.252062    41A    -11.252050    42A    -11.252048
      43A    -11.251184    44A    -11.251148    45A    -11.251143
      46A    -11.251140    47A    -11.251127    48A    -11.251125
      49A    -11.250666    50A    -11.250658    51A    -11.250627
      52A    -11.250622    53A    -11.250611    54A    -11.250609
      55A     -1.243612    56A     -1.219450    57A     -1.219396
      58A     -1.189197    59A     -1.189174    60A     -1.180531
      61A     -1.157241    62A     -1.148641    63A     -1.135110
      64A     -1.135051    65A     -1.112880    66A     -1.112877
      67A     -1.082036    68A     -1.082032    69A     -1.078201
      70A     -1.065683    71A     -1.065673    72A     -1.039041
      73A     -1.023837    74A     -1.021348    75A     -1.021261
      76A     -1.017422    77A     -1.012505    78A     -0.986627
      79A     -0.986576    80A     -0.961559    81A     -0.961499
      82A     -0.893957    83A     -0.893933    84A     -0.887502
      85A     -0.885738    86A     -0.885705    87A     -0.880988
      88A     -0.880951    89A     -0.861564    90A     -0.837134
      91A     -0.817847    92A     -0.816183    93A     -0.811742
      94A     -0.811725    95A     -0.794366    96A     -0.794349
      97A     -0.746206    98A     -0.744468    99A     -0.733009
     100A     -0.732989   101A     -0.731846   102A     -0.731822
     103A     -0.716109   104A     -0.698642   105A     -0.698604
     106A     -0.693228   107A     -0.693176   108A     -0.660895
     109A     -0.652703   110A     -0.650728   111A     -0.649935
     112A     -0.649931   113A     -0.639038   114A     -0.639005
     115A     -0.629337   116A     -0.627123   117A     -0.627116
     118A     -0.606435   119A     -0.605567   120A     -0.601251
     121A     -0.599400   122A     -0.599324   123A     -0.593243
     124A     -0.590776   125A     -0.590740   126A     -0.585001
     127A     -0.576393   128A     -0.576301   129A     -0.567026
     130A     -0.567005   131A     -0.565554   132A     -0.565547
     133A     -0.558310   134A     -0.554521   135A     -0.554509
     136A     -0.538268   137A     -0.538262   138A     -0.538111
     139A     -0.538101   140A     -0.529351   141A     -0.528083
     142A     -0.522538   143A     -0.522495   144A     -0.500176
     145A     -0.495470   146A     -0.492898   147A     -0.487684
     148A     -0.484685   149A     -0.481374   150A     -0.481369
     151A     -0.470201   152A     -0.470197   153A     -0.450577
     154A     -0.450524   155A     -0.438913   156A     -0.438898
     157A     -0.404560   158A     -0.404533   159A     -0.403173
     160A     -0.375241   161A     -0.375238   162A     -0.348928
     163A     -0.337331   164A     -0.336289   165A     -0.336235
     166A     -0.310871   167A     -0.297927   168A     -0.284058
     169A     -0.284031   170A     -0.224680   171A     -0.224608

  @DF-RHF Final Energy: -2055.89907597298543

   => Energetics <=

    Nuclear Repulsion Energy =           6452.5568002797772351
    One-Electron Energy =              -15636.5916580784451071
    Two-Electron Energy =                7128.1357818256828978
    Total Energy =                      -2055.8990759729849742
 Dipole X            :         -0.0003607           -0.0000085           -0.0003692
 Dipole Y            :          0.0003415           -0.0028843           -0.0025428
 Dipole Z            :        164.4123422         -164.4073468            0.0049954
 Magnitude           :                                                    0.0056174

    SAPT Results
  --------------------------------------------------------------------------------------------------------
    Electrostatics               -573.39433808 [mEh]    -359.81037935 [kcal/mol]   -1505.44662722 [kJ/mol]
      Elst10,r                   -573.39433808 [mEh]    -359.81037935 [kcal/mol]   -1505.44662722 [kJ/mol]

    Exchange                     1533.08757296 [mEh]     962.02697616 [kcal/mol]    4025.12086825 [kJ/mol]
      Exch10                     1533.08757296 [mEh]     962.02697616 [kcal/mol]    4025.12086825 [kJ/mol]
      Exch10(S^2)                1347.64790265 [mEh]     845.66182623 [kcal/mol]    3538.24908094 [kJ/mol]

    Induction                    -143.74961341 [mEh]     -90.20424427 [kcal/mol]    -377.41455801 [kJ/mol]
      Ind20,r                    -934.31098662 [mEh]    -586.28899556 [kcal/mol]   -2453.03315743 [kJ/mol]
      Exch-Ind20,r                636.21954258 [mEh]     399.23379037 [kcal/mol]    1670.39417892 [kJ/mol]
      delta HF,r (2)              154.34183063 [mEh]      96.85096092 [kcal/mol]     405.22442050 [kJ/mol]

    Dispersion                   -279.48167273 [mEh]    -175.37739739 [kcal/mol]    -733.77903067 [kJ/mol]
      Disp20                     -358.18722662 [mEh]    -224.76587809 [kcal/mol]    -940.42043393 [kJ/mol]
      Exch-Disp20                  78.70555389 [mEh]      49.38848070 [kcal/mol]     206.64140326 [kJ/mol]
      Disp20 (SS)                -179.09361331 [mEh]    -112.38293904 [kcal/mol]    -470.21021696 [kJ/mol]
      Disp20 (OS)                -179.09361331 [mEh]    -112.38293904 [kcal/mol]    -470.21021696 [kJ/mol]
      Exch-Disp20 (SS)             45.16094980 [mEh]      28.33892384 [kcal/mol]     118.57005736 [kJ/mol]
      Exch-Disp20 (OS)             33.54460409 [mEh]      21.04955686 [kcal/mol]      88.07134589 [kJ/mol]

  Total HF                        815.94362147 [mEh]     512.01235254 [kcal/mol]    2142.25968302 [kJ/mol]
  Total SAPT0                     536.46194873 [mEh]     336.63495515 [kcal/mol]    1408.48065236 [kJ/mol]

  Special recipe for scaled SAPT0 (see Manual):
    Electrostatics sSAPT0        -573.39433808 [mEh]    -359.81037935 [kcal/mol]   -1505.44662722 [kJ/mol]
    Exchange sSAPT0              1533.08757296 [mEh]     962.02697616 [kcal/mol]    4025.12086825 [kJ/mol]
    Induction sSAPT0              156.68351474 [mEh]      98.32038988 [kcal/mol]     411.37251127 [kJ/mol]
    Dispersion sSAPT0            -242.31564092 [mEh]    -152.05536032 [kcal/mol]    -636.19962760 [kJ/mol]
  Total sSAPT0                    874.06110869 [mEh]     548.48162636 [kcal/mol]    2294.84712471 [kJ/mol]
  --------------------------------------------------------------------------------------------------------

*** Psi4 exiting successfully. Buy a developer a beer!
