                               Psi4 1.9 release

  ==> Input File <==

--------------------------------------------------------------------------
memory 64 GB # how much memory is available ! Depends on the nodes/cores !

molecule dimer {
# monomer A
-1 1    # Charge and multiplicity
B -1.977592e-04  2.742729e-04 -6.199966
F  1.123153e-16  1.430594e-17 -4.787181
F  1.147860e+00  6.757812e-01 -6.671107
F  1.191806e-02 -1.332011e+00 -6.670905
F -1.159666e+00  6.560735e-01 -6.670826
--
# monomer B
0 1     # Charge and multiplicity
C   -3.66844126402057      7.80375217008252      0.00190004133558
C   -4.84759871934653      7.13124183134024     -0.00046653359696
C   -4.89495929917518      5.69633040353158     -0.00103944469517
C   -3.65374067877320      4.98073034095895      0.00662099703436
C   -2.40942512149445      7.11398103667468      0.00209438359570
C   -2.42547734410473      5.68112195090346     -0.00491050527438
C   -1.19474401643570      7.78614419430947      0.00356656413763
C   0.03795902893699      7.09942164575698      0.00139585983271
C   0.03033258741920      5.66948955970466     -0.00408752508301
C   -1.20098450790502      4.96927034791531      0.00488220885047
C   1.27795782581485      7.77285944319479      0.00277170839332
C   2.48535808472416      7.08769688523756      0.00049722048857
C   2.48612868491717      5.65477081024076     -0.00644052849921
C   1.25408291964399      4.95607811366431      0.00518741308898
C   3.75171459140595      7.76391215098033      0.00062407186893
C   4.92356605618520      7.07878077698995     -0.00143240883900
C   4.95560727132542      5.64344746336949     -0.00159282164606
C   3.70680153420475      4.94121020833308      0.00349873852374
H   -3.65852113775815      8.89082741913536      0.00358502958574
H   -1.18921332975660      8.87412108735996      0.00753844057883
H   1.28429423888630      8.86083343548850      0.00693053253426
H   3.75354208679975      8.85103527897216      0.00214659618464
H   5.86995870320703      7.61379483465560     -0.00235777588134
H   -5.78823170750226      7.67630221293400     -0.00202638095293
C   -6.09197395869619      4.99326001364347     -0.00291168518608
C   -6.12866148031747      3.58258016879823     -0.00171050815740
C   -3.66457974004527      3.56418217974434     -0.00463560277484
C   -4.89429820469869      2.86108077590057      0.00453338221034
C   -2.43733499489796      2.84761165708481      0.00719617576166
C   -1.20922785759670      3.54788693497833     -0.00648285103018
C   1.24714157216223      3.53468075142962     -0.00729145743546
C   0.01517603956900      2.83311183930540      0.00439272578912
C   2.46764517244071      2.82128997725533      0.00449278391269
C   3.70254947457969      3.52466015442405     -0.00899517692985
C   6.14498038638375      4.92757236613191     -0.00282626685777
C   6.16658835886151      3.51658447594213     -0.00065971342101
C   4.92460995845939      2.80840792535402      0.00587903281610
H   7.08990550964105      5.46688776622306     -0.00658814770723
H   -7.03104175110130      5.54268795285765     -0.00714490013730
C   -7.33969804112295      2.85841153457957     -0.00333767559888
C   -7.36488195805880      1.47032337158330     -0.00157213747140
C   -4.90350460894690      1.44442681216000     -0.00628840166334
C   -6.13225715261081      0.73993935705394      0.00600164231964
C   -3.67687480051673      0.72669714267312      0.00433931473643
C   -2.44565658606518      1.42964113326212     -0.00597039546461
C   -1.22360068130162      0.71532450163492      0.00545886906656
C   0.00763786931376      1.41738314923765      0.00392452278437
C   1.23121980774686      0.70211669058719     -0.01490206287210
C   2.46082110053113      1.40329203612573      0.00460244601878
C   3.68443025419614      0.68719842821222      0.00377365974158
C   4.91870890153864      1.39173456118907     -0.00862816189375
C   7.36980207796101      2.77948220318441     -0.00242013321349
C   7.38016266612146      1.39121750785509     -0.00087345036788
C   6.13979953912259      0.67411862320065      0.00545489144369
H   -8.27919079934664      3.40711804112415     -0.00763522772059
H   8.31511347147953      3.31811809662368     -0.00663070901292
C   -8.59175593758115      0.72483255304480     -0.00123170985383
C   -8.59902460370342     -0.63263980622873      0.00089141472904
C   -6.13981313911873     -0.67413663715361     -0.00609792660607
C   -7.38018411213749     -1.39126618958160      0.00131813493501
C   -4.91868448025621     -1.39175501803000      0.00624257154343
C   -3.68443829568458     -0.68723731573599     -0.00478966852105
C   -2.46081704024768     -1.40334517882457      0.00575341766833
C   -1.23116201232071     -0.70217386488055     -0.00636696112346
C   -0.00756962538737     -1.41741884941102      0.00108956317991
C   1.22364771588843     -0.71527537726392      0.01109518512883
C   2.44567064933149     -1.42964328900682     -0.00065482763106
C   3.67686670284649     -0.72670743155550     -0.00479541202602
C   6.13224884641929     -0.73997883984993     -0.00632338623858
C   4.90351914550401     -1.44445752054090      0.00751768830159
C   8.59901484869081      0.63260386666793     -0.00101133422380
C   8.59174548810050     -0.72485086719319      0.00072504603735
C   7.36486276438985     -1.47033266560598      0.00049486934466
H   -9.52830597181814      1.27684744919284     -0.00270163681798
H   9.54141097460619      1.17457248844457     -0.00206336648518
C   -7.36983790976868     -2.77954514593389      0.00312634335708
C   -4.92459910905015     -2.80843725734101     -0.00460528907921
C   -6.16662249566744     -3.51665219282533      0.00169655107992
C   -3.70251035970491     -3.52468154912026      0.00571878010666
C   -2.46764698511392     -2.82132596280400     -0.00632585824990
C   -0.01513347410770     -2.83314164539971     -0.00604426974092
C   -1.24712184122656     -3.53473217556300      0.00551968366725
C   1.20924506964357     -3.54791467864352      0.00805871345849
C   2.43733602215464     -2.84764173817541     -0.00608104485234
C   4.89430234377080     -2.86112296828604     -0.00526030478103
C   3.66461525504104     -3.56421984553201      0.00761911515957
C   6.12863901474565     -3.58258405771778      0.00096495711699
C   7.33967266469532     -2.85841330737039      0.00248018319869
H   -9.54144911125902     -1.17456346666430      0.00226083090216
H   9.52826186807155     -1.27691907390448      0.00197485379837
H   -8.31516504384864     -3.31814985321231      0.00729857188773
H   8.27915514249207     -3.40714078989363      0.00681973918158
C   -6.14499418870218     -4.92764727278338      0.00302254913999
C   -3.70678334799751     -4.94126171411716     -0.00679841894792
C   -4.95559005800169     -5.64349397349412      0.00116871569699
C   -2.48612132622665     -5.65478557440947      0.00614125209662
C   -1.25405833548005     -4.95612205000132     -0.00503435388927
C   1.20101257386816     -4.96928038819302     -0.00385322963129
C   -0.03033667441341     -5.66952030313900      0.00398997003238
C   3.65375010132847     -4.98074377541453     -0.00309522988330
C   2.42549269587528     -5.68117463552727      0.00628170066869
C   6.09196561781097     -4.99325796338655      0.00325918379042
C   4.89497644461045     -5.69634842095790      0.00202298796027
H   -7.08989238804069     -5.46699984223871      0.00742531082125
H   7.03105520920009     -5.54265853633254      0.00683896355417
C   -4.92354532219813     -7.07882109967734      0.00061394679214
C   -2.48534208823777     -7.08772807792913     -0.00189594564379
C   -3.75168589177895     -7.76394715763627     -0.00170126671874
C   -0.03794895698805     -7.09946487446944     -0.00168022049625
C   -1.27795610040136     -7.77290438466689     -0.00366491325785
C   2.40944432072629     -7.11402201200282     -0.00081701968533
C   1.19474993715296     -7.78618536556242     -0.00296931056689
C   4.84762105249800     -7.13126211057943      0.00168979497423
C   3.66847160587561     -7.80378799294376     -0.00065863938960
H   -5.86994035041618     -7.61383059804164      0.00215798365757
H   5.78824962538815     -7.67633218931421      0.00281691445618
H   -3.75352693944918     -8.85107156923607     -0.00353718114765
H   -1.28430440589466     -8.86087539249706     -0.00809229711623
H   1.18922157469537     -8.87416062058945     -0.00706194725726
H   3.65854661482387     -8.89086063405326     -0.00231318081200

    units angstrom      # Angstroms are the default
    no_reorient         # Geometry fixed, default
    symmetry c1         # C1 symmetry, default
}

set {
    scf_type DF         # Density fitting, faster than exact integrals
    freeze_core True    # Freeze core electrons
    basis jun-cc-pVDZ   # Jun-cc-pVDZ basis set, recommended for sSAPT0 in https://doi.org/10.1063/1.4867135
}

energy('ssapt0')        # Compute sSAPT0 energy, includes also SAPT0
--------------------------------------------------------------------------

  //              Dimer HF             //
    Molecular point group: c1
  Charge       = -1
  Multiplicity = 1
  Basis Set: JUN-CC-PVDZ
    Blend: JUN-CC-PVDZ
  Basis Set: (JUN-CC-PVDZ AUX)
    Blend: JUN-CC-PVDZ-JKFIT
  @DF-RHF Final Energy: -4073.10509772218802
    Total Energy =                      -4073.1050977221893845
 Dipole X            :         -0.0004968           -0.0000548           -0.0005515
 Dipole Y            :          0.0009316           -0.0002464            0.0006852
 Dipole Z            :        -27.0620493           36.8966713            9.8346220
 Magnitude           :                                                    9.8346220
  //            Monomer A HF           //
    Molecular point group: c1
  Multiplicity = 1
  Basis Set: JUN-CC-PVDZ
    Blend: JUN-CC-PVDZ
  Basis Set: (JUN-CC-PVDZ AUX)
    Blend: JUN-CC-PVDZ-JKFIT
  @DF-RHF Final Energy:  -422.77166507578812
    Total Energy =                       -422.7716650757881212
  //            Monomer B HF           //
    Molecular point group: c1

    Geometry (in Angstrom), charge = 0, multiplicity = 1:

       Center              X                  Y                   Z               Mass
    ------------   -----------------  -----------------  -----------------  -----------------
      Gh(B)          -0.000201921932     0.000288800891    -5.772940908471    11.009305360000
      Gh(F)          -0.000004162732     0.000014527991    -4.360155908471    18.998403162730
      Gh(F)           1.147855837268     0.675795727991    -6.244081908471    18.998403162730
      Gh(F)           0.011913897268    -1.331996472009    -6.243879908471    18.998403162730
      Gh(F)          -1.159670162732     0.656088027991    -6.243800908471    18.998403162730
         C           -3.668445426752     7.803766698073     0.428925132864    12.000000000000
         C           -4.847602882078     7.131256359331     0.426558557932    12.000000000000
         C           -4.894963461907     5.696344931522     0.425985646833    12.000000000000
         C           -3.653744841505     4.980744868950     0.433646088563    12.000000000000
         C           -2.409429284226     7.113995564665     0.429119475124    12.000000000000
         C           -2.425481506836     5.681136478894     0.422114586254    12.000000000000
         C           -1.194748179167     7.786158722300     0.430591655666    12.000000000000
         C            0.037954866205     7.099436173748     0.428420951361    12.000000000000
         C            0.030328424687     5.669504087695     0.422937566446    12.000000000000
         C           -1.200988670637     4.969284875906     0.431907300379    12.000000000000
         C            1.277953663083     7.772873971185     0.429796799922    12.000000000000
         C            2.485353921992     7.087711413228     0.427522312017    12.000000000000
         C            2.486124522185     5.654785338231     0.420584563029    12.000000000000
         C            1.254078756912     4.956092641655     0.432212504618    12.000000000000
         C            3.751710428674     7.763926678971     0.427649163398    12.000000000000
         C            4.923561893453     7.078795304981     0.425592682690    12.000000000000
         C            4.955603108594     5.643461991360     0.425432269883    12.000000000000
         C            3.706797371473     4.941224736324     0.430523830052    12.000000000000
         H           -3.658525300490     8.890841947126     0.430610121114     1.007825032230
         H           -1.189217492488     8.874135615351     0.434563532107     1.007825032230
         H            1.284290076155     8.860847963479     0.433955624063     1.007825032230
         H            3.753537924068     8.851049806963     0.429171687713     1.007825032230
         H            5.869954540475     7.613809362646     0.424667315647     1.007825032230
         H           -5.788235870234     7.676316740925     0.424998710576     1.007825032230
         C           -6.091978121428     4.993274541634     0.424113406343    12.000000000000
         C           -6.128665643049     3.582594696789     0.425314583371    12.000000000000
         C           -3.664583902777     3.564196707735     0.422389488754    12.000000000000
         C           -4.894302367430     2.861095303891     0.431558473739    12.000000000000
         C           -2.437339157630     2.847626185075     0.434221267290    12.000000000000
         C           -1.209232020328     3.547901462969     0.420542240498    12.000000000000
         C            1.247137409430     3.534695279420     0.419733634093    12.000000000000
         C            0.015171876837     2.833126367296     0.431417817318    12.000000000000
         C            2.467641009709     2.821304505246     0.431517875441    12.000000000000
         C            3.702545311848     3.524674682415     0.418029914599    12.000000000000
         C            6.144976223652     4.927586894122     0.424198824671    12.000000000000
         C            6.166584196130     3.516599003933     0.426365378108    12.000000000000
         C            4.924605795728     2.808422453345     0.432904124345    12.000000000000
         H            7.089901346909     5.466902294214     0.420436943821     1.007825032230
         H           -7.031045913833     5.542702480848     0.419880191391     1.007825032230
         C           -7.339702203855     2.858426062570     0.423687415930    12.000000000000
         C           -7.364886120791     1.470337899574     0.425452954057    12.000000000000
         C           -4.903508771679     1.444441340151     0.420736689865    12.000000000000
         C           -6.132261315343     0.739953885044     0.433026733848    12.000000000000
         C           -3.676878963248     0.726711670664     0.431364406265    12.000000000000
         C           -2.445660748797     1.429655661253     0.421054696064    12.000000000000
         C           -1.223604844033     0.715339029625     0.432483960595    12.000000000000
         C            0.007633706582     1.417397677228     0.430949614313    12.000000000000
         C            1.231215645015     0.702131218578     0.412123028657    12.000000000000
         C            2.460816937799     1.403306564116     0.431627537547    12.000000000000
         C            3.684426091464     0.687212956203     0.430798751270    12.000000000000
         C            4.918704738807     1.391749089180     0.418396929635    12.000000000000
         C            7.369797915229     2.779496731175     0.424604958315    12.000000000000
         C            7.380158503390     1.391232035846     0.426151641161    12.000000000000
         C            6.139795376391     0.674133151191     0.432479982972    12.000000000000
         H           -8.279194962078     3.407132569115     0.419389863808     1.007825032230
         H            8.315109308748     3.318132624614     0.420394382516     1.007825032230
         C           -8.591760100313     0.724847081035     0.425793381675    12.000000000000
         C           -8.599028766435    -0.632625278238     0.427916506258    12.000000000000
         C           -6.139817301850    -0.674122109163     0.420927164923    12.000000000000
         C           -7.380188274869    -1.391251661591     0.428343226464    12.000000000000
         C           -4.918688642988    -1.391740490039     0.433267663072    12.000000000000
         C           -3.684442458416    -0.687222787745     0.422235423008    12.000000000000
         C           -2.460821202979    -1.403330650834     0.432778509197    12.000000000000
         C           -1.231166175052    -0.702159336890     0.420658130405    12.000000000000
         C           -0.007573788119    -1.417404321420     0.428114654709    12.000000000000
         C            1.223643553157    -0.715260849273     0.438120276657    12.000000000000
         C            2.445666486600    -1.429628761016     0.426370263898    12.000000000000
         C            3.676862540115    -0.726692903565     0.422229679503    12.000000000000
         C            6.132244683688    -0.739964311859     0.420701705290    12.000000000000
         C            4.903514982772    -1.444442992550     0.434542779830    12.000000000000
         C            8.599010685959     0.632618394658     0.426013757305    12.000000000000
         C            8.591741325369    -0.724836339203     0.427750137566    12.000000000000
         C            7.364858601658    -1.470318137615     0.427519960873    12.000000000000
         H           -9.528310134550     1.276861977183     0.424323454711     1.007825032230
         H            9.541406811874     1.174587016435     0.424961725043     1.007825032230
         C           -7.369842072500    -2.779530617943     0.430151434886    12.000000000000
         C           -4.924603271782    -2.808422729350     0.422419802449    12.000000000000
         C           -6.166626658399    -3.516637664835     0.428721642609    12.000000000000
         C           -3.702514522437    -3.524667021130     0.432743871635    12.000000000000
         C           -2.467651147846    -2.821311434813     0.420699233279    12.000000000000
         C           -0.015137636839    -2.833127117409     0.420980821788    12.000000000000
         C           -1.247126003958    -3.534717647572     0.432544775196    12.000000000000
         C            1.209240906912    -3.547900150653     0.435083804987    12.000000000000
         C            2.437331859423    -2.847627210185     0.420944046676    12.000000000000
         C            4.894298181039    -2.861108440295     0.421764786748    12.000000000000
         C            3.664611092309    -3.564205317541     0.434644206688    12.000000000000
         C            6.128634852014    -3.582569529727     0.427990048646    12.000000000000
         C            7.339668501964    -2.858398779380     0.429505274727    12.000000000000
         H           -9.541453273991    -1.174548938674     0.429285922431     1.007825032230
         H            9.528257705340    -1.276904545914     0.428999945327     1.007825032230
         H           -8.315169206580    -3.318135325222     0.434323663416     1.007825032230
         H            8.279150979760    -3.407126261903     0.433844830710     1.007825032230
         C           -6.144998351434    -4.927632744793     0.430047640669    12.000000000000
         C           -3.706787510729    -4.941247186127     0.420226672581    12.000000000000
         C           -4.955594220733    -5.643479445504     0.428193807226    12.000000000000
         C           -2.486125488958    -5.654771046419     0.433166343625    12.000000000000
         C           -1.254062498212    -4.956107522011     0.421990737639    12.000000000000
         C            1.201008411136    -4.969265860202     0.423171861897    12.000000000000
         C           -0.030340837145    -5.669505775148     0.431015061561    12.000000000000
         C            3.653745938597    -4.980729247424     0.423929861645    12.000000000000
         C            2.425488533144    -5.681160107537     0.433306792197    12.000000000000
         C            6.091961455079    -4.993243435396     0.430284275319    12.000000000000
         C            4.894972281879    -5.696333892967     0.429048079489    12.000000000000
         H           -7.089896550772    -5.466985314248     0.434450402350     1.007825032230
         H            7.031051046468    -5.542644008342     0.433864055083     1.007825032230
         C           -4.923549484930    -7.078806571687     0.427639038321    12.000000000000
         C           -2.485346250970    -7.087713549939     0.425129145885    12.000000000000
         C           -3.751690054511    -7.763932629646     0.425323824810    12.000000000000
         C           -0.037953119720    -7.099450346479     0.425344871032    12.000000000000
         C           -1.277960263133    -7.772889856676     0.423360178271    12.000000000000
         C            2.409440157995    -7.114007484012     0.426208071843    12.000000000000
         C            1.194745774421    -7.786170837572     0.424055780962    12.000000000000
         C            4.847616889766    -7.131247582589     0.428714886503    12.000000000000
         C            3.668467443144    -7.803773464953     0.426366452139    12.000000000000
         H           -5.869944513148    -7.613816070051     0.429183075186     1.007825032230
         H            5.788245462656    -7.676317661324     0.429842005985     1.007825032230
         H           -3.753531102181    -8.851057041246     0.423487910381     1.007825032230
         H           -1.284308568626    -8.860860864507     0.418932794412     1.007825032230
         H            1.189217411964    -8.874146092599     0.419963144271     1.007825032230
         H            3.658542452092    -8.890846106063     0.424711910717     1.007825032230

  Charge       = 0
  Multiplicity = 1
  Basis Set: JUN-CC-PVDZ
    Blend: JUN-CC-PVDZ
  Basis Set: (JUN-CC-PVDZ AUX)
    Blend: JUN-CC-PVDZ-JKFIT

    Orbital Energies [Eh]
    ---------------------

    Doubly Occupied:

       1A    -11.264050     2A    -11.263724     3A    -11.263721
       4A    -11.263365     5A    -11.263361     6A    -11.263334
       7A    -11.263167     8A    -11.263160     9A    -11.263158
      10A    -11.262985    11A    -11.262830    12A    -11.262824
      13A    -11.262346    14A    -11.262343    15A    -11.262282
      16A    -11.262281    17A    -11.262220    18A    -11.262190
      19A    -11.262140    20A    -11.262105    21A    -11.262103
      22A    -11.261959    23A    -11.261956    24A    -11.261828
      25A    -11.261818    26A    -11.261802    27A    -11.261797
      28A    -11.261752    29A    -11.261745    30A    -11.261669
      31A    -11.261642    32A    -11.261639    33A    -11.261611
      34A    -11.261609    35A    -11.261587    36A    -11.261558
      37A    -11.261407    38A    -11.261397    39A    -11.261390
      40A    -11.261383    41A    -11.261379    42A    -11.261371
      43A    -11.261364    44A    -11.261349    45A    -11.261344
      46A    -11.261322    47A    -11.261318    48A    -11.261314
      49A    -11.261154    50A    -11.261120    51A    -11.261117
      52A    -11.261034    53A    -11.261033    54A    -11.260964
      55A    -11.260007    56A    -11.259993    57A    -11.259991
      58A    -11.259962    59A    -11.259960    60A    -11.259944
      61A    -11.259383    62A    -11.259357    63A    -11.259355
      64A    -11.259303    65A    -11.259301    66A    -11.259272
      67A    -11.259011    68A    -11.258993    69A    -11.258991
      70A    -11.258963    71A    -11.258961    72A    -11.258950
      73A    -11.254585    74A    -11.254583    75A    -11.254582
      76A    -11.254579    77A    -11.254574    78A    -11.254572
      79A    -11.253732    80A    -11.253731    81A    -11.253728
      82A    -11.253727    83A    -11.253725    84A    -11.253719
      85A    -11.253648    86A    -11.253646    87A    -11.253644
      88A    -11.253643    89A    -11.253640    90A    -11.253635
      91A    -11.253112    92A    -11.253111    93A    -11.253110
      94A    -11.253107    95A    -11.253102    96A    -11.253100
      97A     -1.254099    98A     -1.239124    99A     -1.239124
     100A     -1.220573   101A     -1.220569   102A     -1.215574
     103A     -1.201137   104A     -1.195706   105A     -1.188272
     106A     -1.188271   107A     -1.173858   108A     -1.173855
     109A     -1.155755   110A     -1.155751   111A     -1.152848
     112A     -1.144811   113A     -1.144808   114A     -1.128685
     115A     -1.114840   116A     -1.113251   117A     -1.112609
     118A     -1.112595   119A     -1.111703   120A     -1.088544
     121A     -1.088529   122A     -1.077047   123A     -1.077046
     124A     -1.067733   125A     -1.067704   126A     -1.065099
     127A     -1.046907   128A     -1.046900   129A     -1.040593
     130A     -1.038820   131A     -1.038820   132A     -1.025368
     133A     -1.021528   134A     -1.021478   135A     -1.007278
     136A     -1.006925   137A     -1.003895   138A     -1.000613
     139A     -1.000565   140A     -0.991157   141A     -0.971104
     142A     -0.971056   143A     -0.955977   144A     -0.955922
     145A     -0.905734   146A     -0.905692   147A     -0.905630
     148A     -0.905590   149A     -0.904485   150A     -0.892511
     151A     -0.892452   152A     -0.890491   153A     -0.890434
     154A     -0.889576   155A     -0.872308   156A     -0.869127
     157A     -0.851637   158A     -0.847993   159A     -0.847971
     160A     -0.845724   161A     -0.843141   162A     -0.834669
     163A     -0.834657   164A     -0.828201   165A     -0.828198
     166A     -0.784655   167A     -0.784644   168A     -0.783776
     169A     -0.783750   170A     -0.782403   171A     -0.782383
     172A     -0.782159   173A     -0.767096   174A     -0.760931
     175A     -0.750700   176A     -0.733574   177A     -0.727177
     178A     -0.727164   179A     -0.725200   180A     -0.724645
     181A     -0.724627   182A     -0.718626   183A     -0.713898
     184A     -0.713892   185A     -0.699679   186A     -0.699667
     187A     -0.686261   188A     -0.686050   189A     -0.686048
     190A     -0.682272   191A     -0.682261   192A     -0.678884
     193A     -0.653725   194A     -0.650976   195A     -0.650947
     196A     -0.649940   197A     -0.649924   198A     -0.649656
     199A     -0.641061   200A     -0.641034   201A     -0.640182
     202A     -0.639248   203A     -0.636137   204A     -0.636110
     205A     -0.629249   206A     -0.617719   207A     -0.615391
     208A     -0.615371   209A     -0.608900   210A     -0.608893
     211A     -0.599166   212A     -0.599129   213A     -0.598852
     214A     -0.598729   215A     -0.598703   216A     -0.598161
     217A     -0.595158   218A     -0.595145   219A     -0.594826
     220A     -0.594370   221A     -0.592068   222A     -0.592065
     223A     -0.587530   224A     -0.577868   225A     -0.577858
     226A     -0.575718   227A     -0.575715   228A     -0.573478
     229A     -0.569619   230A     -0.568265   231A     -0.568241
     232A     -0.566860   233A     -0.566850   234A     -0.560987
     235A     -0.558834   236A     -0.558816   237A     -0.558503
     238A     -0.554473   239A     -0.550617   240A     -0.547546
     241A     -0.544326   242A     -0.535026   243A     -0.534986
     244A     -0.533632   245A     -0.533609   246A     -0.528166
     247A     -0.528151   248A     -0.527927   249A     -0.517283
     250A     -0.517249   251A     -0.515412   252A     -0.515407
     253A     -0.509730   254A     -0.509714   255A     -0.498124
     256A     -0.496550   257A     -0.496524   258A     -0.493824
     259A     -0.493813   260A     -0.489495   261A     -0.481539
     262A     -0.477476   263A     -0.477473   264A     -0.474089
     265A     -0.469555   266A     -0.466632   267A     -0.466627
     268A     -0.458862   269A     -0.446826   270A     -0.446765
     271A     -0.441082   272A     -0.440816   273A     -0.440793
     274A     -0.434745   275A     -0.433963   276A     -0.407432
     277A     -0.407407   278A     -0.386467   279A     -0.386419
     280A     -0.385786   281A     -0.385785   282A     -0.383817
     283A     -0.354386   284A     -0.354370   285A     -0.350723
     286A     -0.338139   287A     -0.335656   288A     -0.335587
     289A     -0.332769   290A     -0.332762   291A     -0.307149
     292A     -0.302003   293A     -0.301940   294A     -0.300901
     295A     -0.286227   296A     -0.256517   297A     -0.253564
     298A     -0.253512   299A     -0.204318   300A     -0.204229

  @DF-RHF Final Energy: -3650.33804002820216

   => Energetics <=

    Nuclear Repulsion Energy =          15611.4211649754324753
    One-Electron Energy =              -36072.0898416012205416
    Two-Electron Energy =               16810.3306365975840890
    Total Energy =                      -3650.3380400282039773
 Dipole X            :         -0.0008467            0.0002304           -0.0006162
 Dipole Y            :          0.0011060           -0.0013052           -0.0001992
 Dipole Z            :       -484.1761711          484.1796749            0.0035038
 Magnitude           :                                                    0.0035632

    SAPT Results
  --------------------------------------------------------------------------------------------------------
    Electrostatics                  9.38799469 [mEh]       5.89105561 [kcal/mol]      24.64817666 [kJ/mol]
      Elst10,r                      9.38799469 [mEh]       5.89105561 [kcal/mol]      24.64817666 [kJ/mol]

    Exchange                        0.00277747 [mEh]       0.00174289 [kcal/mol]       0.00729224 [kJ/mol]
      Exch10                        0.00277747 [mEh]       0.00174289 [kcal/mol]       0.00729224 [kJ/mol]
      Exch10(S^2)                   0.00277751 [mEh]       0.00174291 [kcal/mol]       0.00729234 [kJ/mol]

    Induction                      -4.78339035 [mEh]      -3.00162276 [kcal/mol]     -12.55878964 [kJ/mol]
      Ind20,r                      -4.81752535 [mEh]      -3.02304280 [kcal/mol]     -12.64841107 [kJ/mol]
      Exch-Ind20,r                  0.00313602 [mEh]       0.00196788 [kcal/mol]       0.00823362 [kJ/mol]
      delta HF,r (2)                0.03099898 [mEh]       0.01945215 [kcal/mol]       0.08138781 [kJ/mol]

    Dispersion                     -0.93755127 [mEh]      -0.58832230 [kcal/mol]      -2.46154052 [kJ/mol]
      Disp20                       -0.94022642 [mEh]      -0.59000098 [kcal/mol]      -2.46856412 [kJ/mol]
      Exch-Disp20                   0.00267515 [mEh]       0.00167868 [kcal/mol]       0.00702360 [kJ/mol]
      Disp20 (SS)                  -0.47011321 [mEh]      -0.29500049 [kcal/mol]      -1.23428206 [kJ/mol]
      Disp20 (OS)                  -0.47011321 [mEh]      -0.29500049 [kcal/mol]      -1.23428206 [kJ/mol]
      Exch-Disp20 (SS)              0.00200819 [mEh]       0.00126016 [kcal/mol]       0.00527250 [kJ/mol]
      Exch-Disp20 (OS)              0.00066696 [mEh]       0.00041852 [kcal/mol]       0.00175110 [kJ/mol]

  Total HF                          4.60738180 [mEh]       2.89117573 [kcal/mol]      12.09667925 [kJ/mol]
  Total SAPT0                       3.66983053 [mEh]       2.30285343 [kcal/mol]       9.63513873 [kJ/mol]

  Special recipe for scaled SAPT0 (see Manual):
    Electrostatics sSAPT0           9.38799469 [mEh]       5.89105561 [kcal/mol]      24.64817666 [kJ/mol]
    Exchange sSAPT0                 0.00277747 [mEh]       0.00174289 [kcal/mol]       0.00729224 [kJ/mol]
    Induction sSAPT0               -4.78339035 [mEh]      -3.00162276 [kcal/mol]     -12.55878964 [kJ/mol]
    Dispersion sSAPT0              -0.93755127 [mEh]      -0.58832230 [kcal/mol]      -2.46154052 [kJ/mol]
  Total sSAPT0                      3.66983053 [mEh]       2.30285343 [kcal/mol]       9.63513873 [kJ/mol]
  --------------------------------------------------------------------------------------------------------

*** Psi4 exiting successfully. Buy a developer a beer!
