                               Psi4 1.9 release

  ==> Input File <==

--------------------------------------------------------------------------
memory 32 GB # how much memory is available ! Depends on the nodes/cores !

molecule dimer {
# monomer A
+1 1    # Charge and multiplicity
C  0.680067 -0.008042 -6.815929
C -0.680504 -0.006014 -6.815545
N -1.085635 -0.005016 -5.497221
C  0.000108 -0.001740 -4.715820
C -2.477365  0.044390 -5.029242
N  1.085222 -0.005016 -5.497221
H  1.385146 -0.015870 -7.633368
H -1.385302 -0.006204 -7.633214
H -0.000009  0.000007 -3.634731
C  2.478117 -0.021908 -5.032123
H  2.490592  0.005437 -3.941870
H  2.967028 -0.935354 -5.379299
H  3.001428  0.853575 -5.423595
H -2.857359  1.066461 -5.109201
H -3.082679 -0.625694 -5.642306
H -2.518128 -0.282594 -3.989294
--
# monomer B
0 1     # Charge and multiplicity
C   1.22531237526482      0.70753866091955      0.00613762728373
C   1.22532433589282     -0.70753852257020     -0.00619318228664
C   -0.00000567409046      1.41496628609039     -0.00672680580738
C   2.45644923379077      1.41832825917820      0.00902448468363
C   0.00001130712078     -1.41497612663474      0.00347275151708
C   -1.22530046906674      0.70754574598412      0.00838914760619
C   2.45643823516184     -1.41832293188077     -0.00843833914343
C   -0.00000085313587      2.83680140328112     -0.00913035594137
C   3.68182717731192      0.70931832800114     -0.00808954934571
C   2.45512052870677      2.83422403348893     -0.00819210630633
C   3.68182158506039     -0.70933346742900      0.00798293467272
C   -1.22531311884624     -0.70752714354401     -0.00512042085974
C   1.22670006104402      3.54346985599427      0.00816696660346
C   0.00000526469929     -2.83678176723568      0.00832091913869
C   -2.45643555300670      1.41831729028492      0.00842454345199
C   2.45512389762097     -2.83422965658853      0.00783102630520
C   -1.22671388474763      3.54346943575023      0.00827029982280
C   4.91451777504333      1.42717324448953     -0.00160886631602
C   3.69315067131765      3.54279566454522     -0.00155906667985
C   -2.45643712022637     -1.41831290883911     -0.00846337726810
C   1.22670532178455     -3.54347386990643     -0.00780316414624
C   -2.45512491866593      2.83421703463423     -0.00818572995999
C   4.91452486062398     -1.42718653794377      0.00136387641845
C   1.22142509354026      4.97013443726031      0.00150231067809
C   4.89300870916237      2.82518837202648     -0.00039219795739
C   -1.22669652864725     -3.54347062507680     -0.00753595973677
C   -3.68181849668397      0.70932533873199     -0.00807686886569
C   3.69314758099218     -3.54280096939050      0.00148176697923
C   -1.22143177215231      4.97012866986289      0.00168580605083
C   6.13477145276790      0.68054831910577     -0.00083909176631
C   3.65678936045204      4.97295361556775     -0.00065042889723
C   -2.45512642789169     -2.83421472106065      0.00758666850712
C   -3.68181869921921     -0.70932533146830      0.00810055625144
C   4.89301309775526     -2.82519973363176      0.00021895393805
C   -0.00000059327114      5.65044773803267      0.00045449734393
C   6.13477559217374     -0.68055448207492      0.00042622874941
C   2.47813196269732      5.65357712333155      0.00063835075260
C   1.22142288457925     -4.97012668293268     -0.00129718634452
C   -3.69316190412301      3.54279732619245     -0.00139355922051
C   -1.22142804110313     -4.97011793159564     -0.00140994817719
C   -4.91452132810043      1.42717581899491     -0.00153192130862
C   3.65678749952045     -4.97295485423912      0.00080007163680
C   -2.47813805026426      5.65357479452875      0.00092287576113
C   -3.69314125872231     -3.54278984697859      0.00136564082345
C   -4.91451200321153     -1.42718062802730      0.00139857359209
C   -0.00000552908399     -5.65043791501335      0.00005899322272
C   -4.89302000425900      2.82518897091939     -0.00040227981744
C   2.47812647313991     -5.65357317188818     -0.00029052915548
C   -3.65679823041642      4.97295655404175     -0.00047374852278
C   -4.89299899901461     -2.82519139505969      0.00006491824035
C   -2.47812801824129     -5.65356579800621     -0.00056571680280
C   -6.13477002348955      0.68054913825639     -0.00086464346868
C   -3.65678835334731     -4.97294365097028      0.00058578382008
C   -6.13476456307132     -0.68055354348201      0.00040575295444
H   5.83528897565761      3.36927626695423      0.00396712770529
H   7.07385965258860      1.22821762089947     -0.00037744837300
H   4.60066374401555      5.51238117445323     -0.00014522814529
H   5.83528386714679     -3.36930568472863     -0.00423551337640
H   -0.00001167146422      6.73853104613662     -0.00389474766392
H   7.07386165167227     -1.22822657074368     -0.00008250934481
H   2.47331421164041      6.74068466339473      0.00017162982210
H   4.60066897122302     -5.51237575717576      0.00039007446835
H   -2.47331820069565      6.74068209160650      0.00047297644710
H   -0.00000978838621     -6.73852780445195      0.00458867820736
H   -5.83530143450167      3.36927132229595      0.00410314985360
H   2.47330840367253     -6.74068500242887      0.00027980126949
H   -4.60067436136587      5.51237839860371      0.00002010017831
H   -5.83527902699321     -3.36928859177951     -0.00451481925734
H   -2.47329986759855     -6.74067870613986     -0.00016951527498
H   -7.07385728692578      1.22822084484047     -0.00046143985387
H   -4.60067330624313     -5.51236229778631      0.00021776644566
H   -7.07385645456741     -1.22822025997701     -0.00017736581114

    units angstrom      # Angstroms are the default
    no_reorient         # Geometry fixed, default
    symmetry c1         # C1 symmetry, default
}

set {
    scf_type DF         # Density fitting, faster than exact integrals
    freeze_core True    # Freeze core electrons
    basis jun-cc-pVDZ   # Jun-cc-pVDZ basis set, recommended for sSAPT0 in https://doi.org/10.1063/1.4867135
}

energy('ssapt0')        # Compute sSAPT0 energy, includes also SAPT0
--------------------------------------------------------------------------

  //              Dimer HF             //
    Molecular point group: c1
  Charge       = 1
  Multiplicity = 1
  Basis Set: JUN-CC-PVDZ
    Blend: JUN-CC-PVDZ
  Basis Set: (JUN-CC-PVDZ AUX)
    Blend: JUN-CC-PVDZ-JKFIT
  @DF-RHF Final Energy: -2359.20716141218054
    Total Energy =                      -2359.2071614121814491
 Dipole X            :         -0.0015250            0.0006313           -0.0008937
 Dipole Y            :         -0.0492125            0.0560211            0.0068086
 Dipole Z            :         19.7343651          -27.3041965           -7.5698314
 Magnitude           :                                                    7.5698345
  //            Monomer A HF           //
    Molecular point group: c1
  Multiplicity = 1
  Basis Set: JUN-CC-PVDZ
    Blend: JUN-CC-PVDZ
  Basis Set: (JUN-CC-PVDZ AUX)
    Blend: JUN-CC-PVDZ-JKFIT
  @DF-RHF Final Energy:  -303.29754917386992
    Total Energy =                       -303.2975491738699247
  //            Monomer B HF           //
    Molecular point group: c1

    Geometry (in Angstrom), charge = 0, multiplicity = 1:

       Center              X                  Y                   Z               Mass
    ------------   -----------------  -----------------  -----------------  -----------------
      Gh(C)           0.680066520158    -0.008042372515    -6.103645630242    12.000000000000
      Gh(C)          -0.680504479842    -0.006014372515    -6.103261630242    12.000000000000
      Gh(N)          -1.085635479842    -0.005016372515    -4.784937630242    14.003074004430
      Gh(C)           0.000107520158    -0.001740372515    -4.003536630242    12.000000000000
      Gh(C)          -2.477365479842     0.044389627485    -4.316958630242    12.000000000000
      Gh(N)           1.085221520158    -0.005016372515    -4.784937630242    14.003074004430
      Gh(H)           1.385145520158    -0.015870372515    -6.921084630242     1.007825032230
      Gh(H)          -1.385302479842    -0.006204372515    -6.920930630242     1.007825032230
      Gh(H)          -0.000009479842     0.000006627485    -2.922447630242     1.007825032230
      Gh(C)           2.478116520158    -0.021908372515    -4.319839630242    12.000000000000
      Gh(H)           2.490591520158     0.005436627485    -3.229586630242     1.007825032230
      Gh(H)           2.967027520158    -0.935354372515    -4.667015630242     1.007825032230
      Gh(H)           3.001427520158     0.853574627485    -4.711311630242     1.007825032230
      Gh(H)          -2.857359479842     1.066460627485    -4.396917630242     1.007825032230
      Gh(H)          -3.082679479842    -0.625694372515    -4.930022630242     1.007825032230
      Gh(H)          -2.518128479842    -0.282594372515    -3.277010630242     1.007825032230
         C            1.225311895423     0.707538288405     0.718420997042    12.000000000000
         C            1.225323856051    -0.707538895085     0.706090187471    12.000000000000
         C           -0.000006153932     1.414965913575     0.705556563951    12.000000000000
         C            2.456448753949     1.418327886663     0.721307854442    12.000000000000
         C            0.000010827279    -1.414976499150     0.715756121275    12.000000000000
         C           -1.225300948908     0.707545373469     0.720672517364    12.000000000000
         C            2.456437755320    -1.418323304396     0.703845030614    12.000000000000
         C           -0.000001332978     2.836801030766     0.703153013817    12.000000000000
         C            3.681826697470     0.709317955486     0.704193820412    12.000000000000
         C            2.455120048865     2.834223660974     0.704091263452    12.000000000000
         C            3.681821105219    -0.709333839944     0.720266304431    12.000000000000
         C           -1.225313598688    -0.707527516059     0.707162948898    12.000000000000
         C            1.226699581202     3.543469483479     0.720450336361    12.000000000000
         C            0.000004784858    -2.836782139751     0.720604288897    12.000000000000
         C           -2.456436032848     1.418316917770     0.720707913210    12.000000000000
         C            2.455123417779    -2.834230029103     0.720114396063    12.000000000000
         C           -1.226714364589     3.543469063235     0.720553669581    12.000000000000
         C            4.914517295202     1.427172871975     0.710674503442    12.000000000000
         C            3.693150191476     3.542795292030     0.710724303078    12.000000000000
         C           -2.456437600068    -1.418313281354     0.703819992490    12.000000000000
         C            1.226704841943    -3.543474242421     0.704480205612    12.000000000000
         C           -2.455125398508     2.834216662119     0.704097639798    12.000000000000
         C            4.914524380782    -1.427186910459     0.713647246176    12.000000000000
         C            1.221424613699     4.970134064745     0.713785680436    12.000000000000
         C            4.893008229321     2.825187999512     0.711891171800    12.000000000000
         C           -1.226697008489    -3.543470997592     0.704747410021    12.000000000000
         C           -3.681818976526     0.709324966217     0.704206500892    12.000000000000
         C            3.693147101150    -3.542801341905     0.713765136737    12.000000000000
         C           -1.221432251994     4.970128297348     0.713969175809    12.000000000000
         C            6.134770972926     0.680547946591     0.711444277992    12.000000000000
         C            3.656788880610     4.972953243053     0.711632940861    12.000000000000
         C           -2.455126907733    -2.834215093576     0.719870038265    12.000000000000
         C           -3.681819179061    -0.709325703983     0.720383926009    12.000000000000
         C            4.893012617914    -2.825200106147     0.712502323696    12.000000000000
         C           -0.000001073113     5.650447365518     0.712737867102    12.000000000000
         C            6.134775112332    -0.680554854590     0.712709598507    12.000000000000
         C            2.478131482856     5.653576750817     0.712921720510    12.000000000000
         C            1.221422404738    -4.970127055448     0.710986183413    12.000000000000
         C           -3.693162383965     3.542796953677     0.710889810537    12.000000000000
         C           -1.221428520945    -4.970118304111     0.710873421581    12.000000000000
         C           -4.914521807942     1.427175446480     0.710751448449    12.000000000000
         C            3.656787019679    -4.972955226754     0.713083441395    12.000000000000
         C           -2.478138530106     5.653574422014     0.713206245519    12.000000000000
         C           -3.693141738564    -3.542790219494     0.713649010581    12.000000000000
         C           -4.914512483053    -1.427181000542     0.713681943350    12.000000000000
         C           -0.000006008926    -5.650438287528     0.712342362981    12.000000000000
         C           -4.893020484101     2.825188598404     0.711881089940    12.000000000000
         C            2.478125993298    -5.653573544403     0.711992840602    12.000000000000
         C           -3.656798710258     4.972956181527     0.711809621235    12.000000000000
         C           -4.892999478856    -2.825191767575     0.712348287998    12.000000000000
         C           -2.478128498083    -5.653566170521     0.711717652955    12.000000000000
         C           -6.134770503331     0.680548765741     0.711418726289    12.000000000000
         C           -3.656788833189    -4.972944023485     0.712869153578    12.000000000000
         C           -6.134765042913    -0.680553915997     0.712689122712    12.000000000000
         H            5.835288495816     3.369275894439     0.716250497463     1.007825032230
         H            7.073859172747     1.228217248385     0.711905921385     1.007825032230
         H            4.600663264174     5.512380801938     0.712138141613     1.007825032230
         H            5.835283387305    -3.369306057244     0.708047856381     1.007825032230
         H           -0.000012151306     6.738530673622     0.708388622094     1.007825032230
         H            7.073861171831    -1.228226943259     0.712200860413     1.007825032230
         H            2.473313731799     6.740684290880     0.712454999580     1.007825032230
         H            4.600668491381    -5.512376129691     0.712673444226     1.007825032230
         H           -2.473318680537     6.740681719092     0.712756346205     1.007825032230
         H           -0.000010268228    -6.738528176967     0.716872047965     1.007825032230
         H           -5.835301914343     3.369270949781     0.716386519611     1.007825032230
         H            2.473307923831    -6.740685374944     0.712563171027     1.007825032230
         H           -4.600674841208     5.512378026089     0.712303469936     1.007825032230
         H           -5.835279506835    -3.369288964294     0.707768550501     1.007825032230
         H           -2.473300347440    -6.740679078655     0.712113854483     1.007825032230
         H           -7.073857766768     1.228220472326     0.711821929904     1.007825032230
         H           -4.600673786085    -5.512362670301     0.712501136204     1.007825032230
         H           -7.073856934409    -1.228220632492     0.712106003947     1.007825032230

  Charge       = 0
  Multiplicity = 1
  Basis Set: JUN-CC-PVDZ
    Blend: JUN-CC-PVDZ
  Basis Set: (JUN-CC-PVDZ AUX)
    Blend: JUN-CC-PVDZ-JKFIT

    Orbital Energies [Eh]
    ---------------------

    Doubly Occupied:

       1A    -11.260604     2A    -11.260162     3A    -11.260150
       4A    -11.259429     5A    -11.259418     6A    -11.259244
       7A    -11.259024     8A    -11.258953     9A    -11.258942
      10A    -11.258626    11A    -11.258621    12A    -11.258536
      13A    -11.258476    14A    -11.258470    15A    -11.258469
      16A    -11.258438    17A    -11.258429    18A    -11.258413
      19A    -11.258405    20A    -11.258397    21A    -11.258393
      22A    -11.258313    23A    -11.258310    24A    -11.258037
      25A    -11.257335    26A    -11.257284    27A    -11.257262
      28A    -11.257148    29A    -11.257127    30A    -11.257053
      31A    -11.256432    32A    -11.256375    33A    -11.256346
      34A    -11.256261    35A    -11.256237    36A    -11.256201
      37A    -11.252289    38A    -11.252288    39A    -11.252286
      40A    -11.252286    41A    -11.252274    42A    -11.252273
      43A    -11.251401    44A    -11.251400    45A    -11.251395
      46A    -11.251391    47A    -11.251388    48A    -11.251385
      49A    -11.250851    50A    -11.250850    51A    -11.250847
      52A    -11.250846    53A    -11.250835    54A    -11.250834
      55A     -1.244067    56A     -1.219822    57A     -1.219804
      58A     -1.189545    59A     -1.189530    60A     -1.180954
      61A     -1.157559    62A     -1.148978    63A     -1.135502
      64A     -1.135482    65A     -1.113191    66A     -1.113188
      67A     -1.082430    68A     -1.082422    69A     -1.078608
      70A     -1.065983    71A     -1.065974    72A     -1.039395
      73A     -1.024272    74A     -1.021775    75A     -1.021718
      76A     -1.017725    77A     -1.012797    78A     -0.987023
      79A     -0.986968    80A     -0.961880    81A     -0.961828
      82A     -0.894288    83A     -0.894264    84A     -0.887932
      85A     -0.886179    86A     -0.886132    87A     -0.881390
      88A     -0.881344    89A     -0.861897    90A     -0.837409
      91A     -0.818203    92A     -0.816611    93A     -0.812128
      94A     -0.812127    95A     -0.794689    96A     -0.794675
      97A     -0.746620    98A     -0.744855    99A     -0.733412
     100A     -0.733408   101A     -0.732179   102A     -0.732155
     103A     -0.716496   104A     -0.698977   105A     -0.698951
     106A     -0.693591   107A     -0.693554   108A     -0.661229
     109A     -0.653112   110A     -0.651154   111A     -0.650253
     112A     -0.650245   113A     -0.639362   114A     -0.639343
     115A     -0.629711   116A     -0.627517   117A     -0.627505
     118A     -0.606495   119A     -0.605809   120A     -0.601652
     121A     -0.599744   122A     -0.599686   123A     -0.593626
     124A     -0.591222   125A     -0.591194   126A     -0.585277
     127A     -0.576456   128A     -0.576343   129A     -0.567324
     130A     -0.567304   131A     -0.565954   132A     -0.565940
     133A     -0.558721   134A     -0.554845   135A     -0.554842
     136A     -0.538589   137A     -0.538589   138A     -0.538232
     139A     -0.538191   140A     -0.529711   141A     -0.528204
     142A     -0.522876   143A     -0.522850   144A     -0.500500
     145A     -0.495629   146A     -0.493231   147A     -0.487840
     148A     -0.485062   149A     -0.481747   150A     -0.481745
     151A     -0.470360   152A     -0.470318   153A     -0.451010
     154A     -0.450941   155A     -0.439075   156A     -0.439069
     157A     -0.404773   158A     -0.404719   159A     -0.403408
     160A     -0.375432   161A     -0.375423   162A     -0.349139
     163A     -0.337583   164A     -0.336542   165A     -0.336522
     166A     -0.311098   167A     -0.298112   168A     -0.284342
     169A     -0.284295   170A     -0.224918   171A     -0.224860

  @DF-RHF Final Energy: -2055.89351177442904

   => Energetics <=

    Nuclear Repulsion Energy =           6452.5568002797781446
    One-Electron Energy =              -15636.4823411120632954
    Two-Electron Energy =                7128.0320290578574713
    Total Energy =                      -2055.8935117744285890
 Dipole X            :          0.0001449           -0.0000085            0.0001364
 Dipole Y            :         -0.0000759            0.0000167           -0.0000592
 Dipole Z            :       -460.3295721          460.3375655            0.0079934
 Magnitude           :                                                    0.0079948

    SAPT Results
  --------------------------------------------------------------------------------------------------------
    Electrostatics                -10.42880571 [mEh]      -6.54417439 [kcal/mol]     -27.38082563 [kJ/mol]
      Elst10,r                    -10.42880571 [mEh]      -6.54417439 [kcal/mol]     -27.38082563 [kJ/mol]

    Exchange                        0.16271176 [mEh]       0.10210317 [kcal/mol]       0.42719967 [kJ/mol]
      Exch10                        0.16271176 [mEh]       0.10210317 [kcal/mol]       0.42719967 [kJ/mol]
      Exch10(S^2)                   0.16270013 [mEh]       0.10209587 [kcal/mol]       0.42716912 [kJ/mol]

    Induction                      -5.83436993 [mEh]      -3.66112240 [kcal/mol]     -15.31813614 [kJ/mol]
      Ind20,r                      -5.57458246 [mEh]      -3.49810330 [kcal/mol]     -14.63606423 [kJ/mol]
      Exch-Ind20,r                  0.02905787 [mEh]       0.01823409 [kcal/mol]       0.07629143 [kJ/mol]
      delta HF,r (2)               -0.28884534 [mEh]      -0.18125319 [kcal/mol]      -0.75836333 [kJ/mol]

    Dispersion                     -5.07909145 [mEh]      -3.18717801 [kcal/mol]     -13.33515278 [kJ/mol]
      Disp20                       -5.10166974 [mEh]      -3.20134609 [kcal/mol]     -13.39443205 [kJ/mol]
      Exch-Disp20                   0.02257828 [mEh]       0.01416809 [kcal/mol]       0.05927928 [kJ/mol]
      Disp20 (SS)                  -2.55083487 [mEh]      -1.60067305 [kcal/mol]      -6.69721603 [kJ/mol]
      Disp20 (OS)                  -2.55083487 [mEh]      -1.60067305 [kcal/mol]      -6.69721603 [kJ/mol]
      Exch-Disp20 (SS)              0.01505112 [mEh]       0.00944472 [kcal/mol]       0.03951670 [kJ/mol]
      Exch-Disp20 (OS)              0.00752717 [mEh]       0.00472337 [kcal/mol]       0.01976257 [kJ/mol]

  Total HF                        -16.10046388 [mEh]     -10.10319362 [kcal/mol]     -42.27176210 [kJ/mol]
  Total SAPT0                     -21.17955534 [mEh]     -13.29037162 [kcal/mol]     -55.60691487 [kJ/mol]

  Special recipe for scaled SAPT0 (see Manual):
    Electrostatics sSAPT0         -10.42880571 [mEh]      -6.54417439 [kcal/mol]     -27.38082563 [kJ/mol]
    Exchange sSAPT0                 0.16271176 [mEh]       0.10210317 [kcal/mol]       0.42719967 [kJ/mol]
    Induction sSAPT0               -5.83436369 [mEh]      -3.66111849 [kcal/mol]     -15.31811977 [kJ/mol]
    Dispersion sSAPT0              -5.07908661 [mEh]      -3.18717497 [kcal/mol]     -13.33514006 [kJ/mol]
  Total sSAPT0                    -21.17954426 [mEh]     -13.29036467 [kcal/mol]     -55.60688579 [kJ/mol]
  --------------------------------------------------------------------------------------------------------

*** Psi4 exiting successfully. Buy a developer a beer!
