                               Psi4 1.9 release

  ==> Input File <==

--------------------------------------------------------------------------
memory 64 GB # how much memory is available ! Depends on the nodes/cores !

molecule dimer {
# monomer A
-1 1    # Charge and multiplicity
B -1.977592e-04  2.742729e-04 -3.399966
F  1.123153e-16  1.430594e-17 -1.987181
F  1.147860e+00  6.757812e-01 -3.871107
F  1.191806e-02 -1.332011e+00 -3.870905
F -1.159666e+00  6.560735e-01 -3.870826
--
# monomer B
0 1     # Charge and multiplicity
C   -3.66844126402057      7.80375217008252      0.00190004133558
C   -4.84759871934653      7.13124183134024     -0.00046653359696
C   -4.89495929917518      5.69633040353158     -0.00103944469517
C   -3.65374067877320      4.98073034095895      0.00662099703436
C   -2.40942512149445      7.11398103667468      0.00209438359570
C   -2.42547734410473      5.68112195090346     -0.00491050527438
C   -1.19474401643570      7.78614419430947      0.00356656413763
C   0.03795902893699      7.09942164575698      0.00139585983271
C   0.03033258741920      5.66948955970466     -0.00408752508301
C   -1.20098450790502      4.96927034791531      0.00488220885047
C   1.27795782581485      7.77285944319479      0.00277170839332
C   2.48535808472416      7.08769688523756      0.00049722048857
C   2.48612868491717      5.65477081024076     -0.00644052849921
C   1.25408291964399      4.95607811366431      0.00518741308898
C   3.75171459140595      7.76391215098033      0.00062407186893
C   4.92356605618520      7.07878077698995     -0.00143240883900
C   4.95560727132542      5.64344746336949     -0.00159282164606
C   3.70680153420475      4.94121020833308      0.00349873852374
H   -3.65852113775815      8.89082741913536      0.00358502958574
H   -1.18921332975660      8.87412108735996      0.00753844057883
H   1.28429423888630      8.86083343548850      0.00693053253426
H   3.75354208679975      8.85103527897216      0.00214659618464
H   5.86995870320703      7.61379483465560     -0.00235777588134
H   -5.78823170750226      7.67630221293400     -0.00202638095293
C   -6.09197395869619      4.99326001364347     -0.00291168518608
C   -6.12866148031747      3.58258016879823     -0.00171050815740
C   -3.66457974004527      3.56418217974434     -0.00463560277484
C   -4.89429820469869      2.86108077590057      0.00453338221034
C   -2.43733499489796      2.84761165708481      0.00719617576166
C   -1.20922785759670      3.54788693497833     -0.00648285103018
C   1.24714157216223      3.53468075142962     -0.00729145743546
C   0.01517603956900      2.83311183930540      0.00439272578912
C   2.46764517244071      2.82128997725533      0.00449278391269
C   3.70254947457969      3.52466015442405     -0.00899517692985
C   6.14498038638375      4.92757236613191     -0.00282626685777
C   6.16658835886151      3.51658447594213     -0.00065971342101
C   4.92460995845939      2.80840792535402      0.00587903281610
H   7.08990550964105      5.46688776622306     -0.00658814770723
H   -7.03104175110130      5.54268795285765     -0.00714490013730
C   -7.33969804112295      2.85841153457957     -0.00333767559888
C   -7.36488195805880      1.47032337158330     -0.00157213747140
C   -4.90350460894690      1.44442681216000     -0.00628840166334
C   -6.13225715261081      0.73993935705394      0.00600164231964
C   -3.67687480051673      0.72669714267312      0.00433931473643
C   -2.44565658606518      1.42964113326212     -0.00597039546461
C   -1.22360068130162      0.71532450163492      0.00545886906656
C   0.00763786931376      1.41738314923765      0.00392452278437
C   1.23121980774686      0.70211669058719     -0.01490206287210
C   2.46082110053113      1.40329203612573      0.00460244601878
C   3.68443025419614      0.68719842821222      0.00377365974158
C   4.91870890153864      1.39173456118907     -0.00862816189375
C   7.36980207796101      2.77948220318441     -0.00242013321349
C   7.38016266612146      1.39121750785509     -0.00087345036788
C   6.13979953912259      0.67411862320065      0.00545489144369
H   -8.27919079934664      3.40711804112415     -0.00763522772059
H   8.31511347147953      3.31811809662368     -0.00663070901292
C   -8.59175593758115      0.72483255304480     -0.00123170985383
C   -8.59902460370342     -0.63263980622873      0.00089141472904
C   -6.13981313911873     -0.67413663715361     -0.00609792660607
C   -7.38018411213749     -1.39126618958160      0.00131813493501
C   -4.91868448025621     -1.39175501803000      0.00624257154343
C   -3.68443829568458     -0.68723731573599     -0.00478966852105
C   -2.46081704024768     -1.40334517882457      0.00575341766833
C   -1.23116201232071     -0.70217386488055     -0.00636696112346
C   -0.00756962538737     -1.41741884941102      0.00108956317991
C   1.22364771588843     -0.71527537726392      0.01109518512883
C   2.44567064933149     -1.42964328900682     -0.00065482763106
C   3.67686670284649     -0.72670743155550     -0.00479541202602
C   6.13224884641929     -0.73997883984993     -0.00632338623858
C   4.90351914550401     -1.44445752054090      0.00751768830159
C   8.59901484869081      0.63260386666793     -0.00101133422380
C   8.59174548810050     -0.72485086719319      0.00072504603735
C   7.36486276438985     -1.47033266560598      0.00049486934466
H   -9.52830597181814      1.27684744919284     -0.00270163681798
H   9.54141097460619      1.17457248844457     -0.00206336648518
C   -7.36983790976868     -2.77954514593389      0.00312634335708
C   -4.92459910905015     -2.80843725734101     -0.00460528907921
C   -6.16662249566744     -3.51665219282533      0.00169655107992
C   -3.70251035970491     -3.52468154912026      0.00571878010666
C   -2.46764698511392     -2.82132596280400     -0.00632585824990
C   -0.01513347410770     -2.83314164539971     -0.00604426974092
C   -1.24712184122656     -3.53473217556300      0.00551968366725
C   1.20924506964357     -3.54791467864352      0.00805871345849
C   2.43733602215464     -2.84764173817541     -0.00608104485234
C   4.89430234377080     -2.86112296828604     -0.00526030478103
C   3.66461525504104     -3.56421984553201      0.00761911515957
C   6.12863901474565     -3.58258405771778      0.00096495711699
C   7.33967266469532     -2.85841330737039      0.00248018319869
H   -9.54144911125902     -1.17456346666430      0.00226083090216
H   9.52826186807155     -1.27691907390448      0.00197485379837
H   -8.31516504384864     -3.31814985321231      0.00729857188773
H   8.27915514249207     -3.40714078989363      0.00681973918158
C   -6.14499418870218     -4.92764727278338      0.00302254913999
C   -3.70678334799751     -4.94126171411716     -0.00679841894792
C   -4.95559005800169     -5.64349397349412      0.00116871569699
C   -2.48612132622665     -5.65478557440947      0.00614125209662
C   -1.25405833548005     -4.95612205000132     -0.00503435388927
C   1.20101257386816     -4.96928038819302     -0.00385322963129
C   -0.03033667441341     -5.66952030313900      0.00398997003238
C   3.65375010132847     -4.98074377541453     -0.00309522988330
C   2.42549269587528     -5.68117463552727      0.00628170066869
C   6.09196561781097     -4.99325796338655      0.00325918379042
C   4.89497644461045     -5.69634842095790      0.00202298796027
H   -7.08989238804069     -5.46699984223871      0.00742531082125
H   7.03105520920009     -5.54265853633254      0.00683896355417
C   -4.92354532219813     -7.07882109967734      0.00061394679214
C   -2.48534208823777     -7.08772807792913     -0.00189594564379
C   -3.75168589177895     -7.76394715763627     -0.00170126671874
C   -0.03794895698805     -7.09946487446944     -0.00168022049625
C   -1.27795610040136     -7.77290438466689     -0.00366491325785
C   2.40944432072629     -7.11402201200282     -0.00081701968533
C   1.19474993715296     -7.78618536556242     -0.00296931056689
C   4.84762105249800     -7.13126211057943      0.00168979497423
C   3.66847160587561     -7.80378799294376     -0.00065863938960
H   -5.86994035041618     -7.61383059804164      0.00215798365757
H   5.78824962538815     -7.67633218931421      0.00281691445618
H   -3.75352693944918     -8.85107156923607     -0.00353718114765
H   -1.28430440589466     -8.86087539249706     -0.00809229711623
H   1.18922157469537     -8.87416062058945     -0.00706194725726
H   3.65854661482387     -8.89086063405326     -0.00231318081200

    units angstrom      # Angstroms are the default
    no_reorient         # Geometry fixed, default
    symmetry c1         # C1 symmetry, default
}

set {
    scf_type DF         # Density fitting, faster than exact integrals
    freeze_core True    # Freeze core electrons
    basis jun-cc-pVDZ   # Jun-cc-pVDZ basis set, recommended for sSAPT0 in https://doi.org/10.1063/1.4867135
}

energy('ssapt0')        # Compute sSAPT0 energy, includes also SAPT0
--------------------------------------------------------------------------

  //              Dimer HF             //
    Molecular point group: c1
  Charge       = -1
  Multiplicity = 1
  Basis Set: JUN-CC-PVDZ
    Blend: JUN-CC-PVDZ
  Basis Set: (JUN-CC-PVDZ AUX)
    Blend: JUN-CC-PVDZ-JKFIT
  @DF-RHF Final Energy: -4073.08169686657129
    Total Energy =                      -4073.0816968665712920
 Dipole X            :          0.0006978           -0.0000548            0.0006430
 Dipole Y            :          0.0006447           -0.0002464            0.0003983
 Dipole Z            :        -15.9134810           20.2334748            4.3199938
 Magnitude           :                                                    4.3199938
  //            Monomer A HF           //
    Molecular point group: c1
  Multiplicity = 1
  Basis Set: JUN-CC-PVDZ
    Blend: JUN-CC-PVDZ
  Basis Set: (JUN-CC-PVDZ AUX)
    Blend: JUN-CC-PVDZ-JKFIT
  @DF-RHF Final Energy:  -422.77416242340462
    Total Energy =                       -422.7741624234046185
  //            Monomer B HF           //
    Molecular point group: c1

    Geometry (in Angstrom), charge = 0, multiplicity = 1:

       Center              X                  Y                   Z               Mass
    ------------   -----------------  -----------------  -----------------  -----------------
      Gh(B)          -0.000201921932     0.000288800891    -3.165792365348    11.009305360000
      Gh(F)          -0.000004162732     0.000014527991    -1.753007365348    18.998403162730
      Gh(F)           1.147855837268     0.675795727991    -3.636933365348    18.998403162730
      Gh(F)           0.011913897268    -1.331996472009    -3.636731365348    18.998403162730
      Gh(F)          -1.159670162732     0.656088027991    -3.636652365348    18.998403162730
         C           -3.668445426752     7.803766698073     0.236073675988    12.000000000000
         C           -4.847602882078     7.131256359331     0.233707101055    12.000000000000
         C           -4.894963461907     5.696344931522     0.233134189957    12.000000000000
         C           -3.653744841505     4.980744868950     0.240794631686    12.000000000000
         C           -2.409429284226     7.113995564665     0.236268018248    12.000000000000
         C           -2.425481506836     5.681136478894     0.229263129378    12.000000000000
         C           -1.194748179167     7.786158722300     0.237740198790    12.000000000000
         C            0.037954866205     7.099436173748     0.235569494485    12.000000000000
         C            0.030328424687     5.669504087695     0.230086109569    12.000000000000
         C           -1.200988670637     4.969284875906     0.239055843503    12.000000000000
         C            1.277953663083     7.772873971185     0.236945343045    12.000000000000
         C            2.485353921992     7.087711413228     0.234670855141    12.000000000000
         C            2.486124522185     5.654785338231     0.227733106153    12.000000000000
         C            1.254078756912     4.956092641655     0.239361047741    12.000000000000
         C            3.751710428674     7.763926678971     0.234797706521    12.000000000000
         C            4.923561893453     7.078795304981     0.232741225813    12.000000000000
         C            4.955603108594     5.643461991360     0.232580813006    12.000000000000
         C            3.706797371473     4.941224736324     0.237672373176    12.000000000000
         H           -3.658525300490     8.890841947126     0.237758664238     1.007825032230
         H           -1.189217492488     8.874135615351     0.241712075231     1.007825032230
         H            1.284290076155     8.860847963479     0.241104167186     1.007825032230
         H            3.753537924068     8.851049806963     0.236320230837     1.007825032230
         H            5.869954540475     7.613809362646     0.231815858771     1.007825032230
         H           -5.788235870234     7.676316740925     0.232147253699     1.007825032230
         C           -6.091978121428     4.993274541634     0.231261949466    12.000000000000
         C           -6.128665643049     3.582594696789     0.232463126495    12.000000000000
         C           -3.664583902777     3.564196707735     0.229538031877    12.000000000000
         C           -4.894302367430     2.861095303891     0.238707016862    12.000000000000
         C           -2.437339157630     2.847626185075     0.241369810414    12.000000000000
         C           -1.209232020328     3.547901462969     0.227690783622    12.000000000000
         C            1.247137409430     3.534695279420     0.226882177217    12.000000000000
         C            0.015171876837     2.833126367296     0.238566360441    12.000000000000
         C            2.467641009709     2.821304505246     0.238666418565    12.000000000000
         C            3.702545311848     3.524674682415     0.225178457722    12.000000000000
         C            6.144976223652     4.927586894122     0.231347367794    12.000000000000
         C            6.166584196130     3.516599003933     0.233513921231    12.000000000000
         C            4.924605795728     2.808422453345     0.240052667468    12.000000000000
         H            7.089901346909     5.466902294214     0.227585486945     1.007825032230
         H           -7.031045913833     5.542702480848     0.227028734515     1.007825032230
         C           -7.339702203855     2.858426062570     0.230835959053    12.000000000000
         C           -7.364886120791     1.470337899574     0.232601497181    12.000000000000
         C           -4.903508771679     1.444441340151     0.227885232989    12.000000000000
         C           -6.132261315343     0.739953885044     0.240175276972    12.000000000000
         C           -3.676878963248     0.726711670664     0.238512949388    12.000000000000
         C           -2.445660748797     1.429655661253     0.228203239187    12.000000000000
         C           -1.223604844033     0.715339029625     0.239632503719    12.000000000000
         C            0.007633706582     1.417397677228     0.238098157436    12.000000000000
         C            1.231215645015     0.702131218578     0.219271571780    12.000000000000
         C            2.460816937799     1.403306564116     0.238776080671    12.000000000000
         C            3.684426091464     0.687212956203     0.237947294394    12.000000000000
         C            4.918704738807     1.391749089180     0.225545472758    12.000000000000
         C            7.369797915229     2.779496731175     0.231753501439    12.000000000000
         C            7.380158503390     1.391232035846     0.233300184284    12.000000000000
         C            6.139795376391     0.674133151191     0.239628526096    12.000000000000
         H           -8.279194962078     3.407132569115     0.226538406931     1.007825032230
         H            8.315109308748     3.318132624614     0.227542925639     1.007825032230
         C           -8.591760100313     0.724847081035     0.232941924798    12.000000000000
         C           -8.599028766435    -0.632625278238     0.235065049381    12.000000000000
         C           -6.139817301850    -0.674122109163     0.228075708046    12.000000000000
         C           -7.380188274869    -1.391251661591     0.235491769587    12.000000000000
         C           -4.918688642988    -1.391740490039     0.240416206195    12.000000000000
         C           -3.684442458416    -0.687222787745     0.229383966131    12.000000000000
         C           -2.460821202979    -1.403330650834     0.239927052320    12.000000000000
         C           -1.231166175052    -0.702159336890     0.227806673529    12.000000000000
         C           -0.007573788119    -1.417404321420     0.235263197832    12.000000000000
         C            1.223643553157    -0.715260849273     0.245268819781    12.000000000000
         C            2.445666486600    -1.429628761016     0.233518807021    12.000000000000
         C            3.676862540115    -0.726692903565     0.229378222626    12.000000000000
         C            6.132244683688    -0.739964311859     0.227850248413    12.000000000000
         C            4.903514982772    -1.444442992550     0.241691322954    12.000000000000
         C            8.599010685959     0.632618394658     0.233162300428    12.000000000000
         C            8.591741325369    -0.724836339203     0.234898680689    12.000000000000
         C            7.364858601658    -1.470318137615     0.234668503997    12.000000000000
         H           -9.528310134550     1.276861977183     0.231471997834     1.007825032230
         H            9.541406811874     1.174587016435     0.232110268167     1.007825032230
         C           -7.369842072500    -2.779530617943     0.237299978009    12.000000000000
         C           -4.924603271782    -2.808422729350     0.229568345573    12.000000000000
         C           -6.166626658399    -3.516637664835     0.235870185732    12.000000000000
         C           -3.702514522437    -3.524667021130     0.239892414759    12.000000000000
         C           -2.467651147846    -2.821311434813     0.227847776402    12.000000000000
         C           -0.015137636839    -2.833127117409     0.228129364911    12.000000000000
         C           -1.247126003958    -3.534717647572     0.239693318319    12.000000000000
         C            1.209240906912    -3.547900150653     0.242232348111    12.000000000000
         C            2.437331859423    -2.847627210185     0.228092589800    12.000000000000
         C            4.894298181039    -2.861108440295     0.228913329871    12.000000000000
         C            3.664611092309    -3.564205317541     0.241792749812    12.000000000000
         C            6.128634852014    -3.582569529727     0.235138591769    12.000000000000
         C            7.339668501964    -2.858398779380     0.236653817851    12.000000000000
         H           -9.541453273991    -1.174548938674     0.236434465554     1.007825032230
         H            9.528257705340    -1.276904545914     0.236148488450     1.007825032230
         H           -8.315169206580    -3.318135325222     0.241472206540     1.007825032230
         H            8.279150979760    -3.407126261903     0.240993373834     1.007825032230
         C           -6.144998351434    -4.927632744793     0.237196183792    12.000000000000
         C           -3.706787510729    -4.941247186127     0.227375215704    12.000000000000
         C           -4.955594220733    -5.643479445504     0.235342350349    12.000000000000
         C           -2.486125488958    -5.654771046419     0.240314886749    12.000000000000
         C           -1.254062498212    -4.956107522011     0.229139280763    12.000000000000
         C            1.201008411136    -4.969265860202     0.230320405021    12.000000000000
         C           -0.030340837145    -5.669505775148     0.238163604684    12.000000000000
         C            3.653745938597    -4.980729247424     0.231078404769    12.000000000000
         C            2.425488533144    -5.681160107537     0.240455335321    12.000000000000
         C            6.091961455079    -4.993243435396     0.237432818442    12.000000000000
         C            4.894972281879    -5.696333892967     0.236196622612    12.000000000000
         H           -7.089896550772    -5.466985314248     0.241598945473     1.007825032230
         H            7.031051046468    -5.542644008342     0.241012598206     1.007825032230
         C           -4.923549484930    -7.078806571687     0.234787581444    12.000000000000
         C           -2.485346250970    -7.087713549939     0.232277689008    12.000000000000
         C           -3.751690054511    -7.763932629646     0.232472367933    12.000000000000
         C           -0.037953119720    -7.099450346479     0.232493414156    12.000000000000
         C           -1.277960263133    -7.772889856676     0.230508721394    12.000000000000
         C            2.409440157995    -7.114007484012     0.233356614967    12.000000000000
         C            1.194745774421    -7.786170837572     0.231204324085    12.000000000000
         C            4.847616889766    -7.131247582589     0.235863429626    12.000000000000
         C            3.668467443144    -7.803773464953     0.233514995262    12.000000000000
         H           -5.869944513148    -7.613816070051     0.236331618310     1.007825032230
         H            5.788245462656    -7.676317661324     0.236990549108     1.007825032230
         H           -3.753531102181    -8.851057041246     0.230636453504     1.007825032230
         H           -1.284308568626    -8.860860864507     0.226081337536     1.007825032230
         H            1.189217411964    -8.874146092599     0.227111687395     1.007825032230
         H            3.658542452092    -8.890846106063     0.231860453840     1.007825032230

  Charge       = 0
  Multiplicity = 1
  Basis Set: JUN-CC-PVDZ
    Blend: JUN-CC-PVDZ
  Basis Set: (JUN-CC-PVDZ AUX)
    Blend: JUN-CC-PVDZ-JKFIT

    Orbital Energies [Eh]
    ---------------------

    Doubly Occupied:

       1A    -11.264145     2A    -11.263769     3A    -11.263756
       4A    -11.263308     5A    -11.263304     6A    -11.263268
       7A    -11.263134     8A    -11.263129     9A    -11.263114
      10A    -11.262875    11A    -11.262764    12A    -11.262759
      13A    -11.262267    14A    -11.262258    15A    -11.262255
      16A    -11.262253    17A    -11.262129    18A    -11.262120
      19A    -11.262071    20A    -11.262033    21A    -11.262030
      22A    -11.261937    23A    -11.261933    24A    -11.261771
      25A    -11.261761    26A    -11.261737    27A    -11.261729
      28A    -11.261696    29A    -11.261688    30A    -11.261593
      31A    -11.261590    32A    -11.261569    33A    -11.261566
      34A    -11.261536    35A    -11.261533    36A    -11.261511
      37A    -11.261344    38A    -11.261337    39A    -11.261331
      40A    -11.261326    41A    -11.261320    42A    -11.261317
      43A    -11.261298    44A    -11.261281    45A    -11.261277
      46A    -11.261254    47A    -11.261251    48A    -11.261245
      49A    -11.261059    50A    -11.261025    51A    -11.261021
      52A    -11.260943    53A    -11.260942    54A    -11.260886
      55A    -11.259931    56A    -11.259917    57A    -11.259915
      58A    -11.259885    59A    -11.259884    60A    -11.259867
      61A    -11.259302    62A    -11.259277    63A    -11.259274
      64A    -11.259221    65A    -11.259219    66A    -11.259189
      67A    -11.258933    68A    -11.258915    69A    -11.258913
      70A    -11.258885    71A    -11.258883    72A    -11.258871
      73A    -11.254541    74A    -11.254539    75A    -11.254535
      76A    -11.254534    77A    -11.254534    78A    -11.254533
      79A    -11.253667    80A    -11.253666    81A    -11.253664
      82A    -11.253663    83A    -11.253660    84A    -11.253659
      85A    -11.253583    86A    -11.253582    87A    -11.253580
      88A    -11.253578    89A    -11.253576    90A    -11.253574
      91A    -11.253069    92A    -11.253067    93A    -11.253063
      94A    -11.253062    95A    -11.253062    96A    -11.253061
      97A     -1.253936    98A     -1.239000    99A     -1.238999
     100A     -1.220474   101A     -1.220469   102A     -1.215442
     103A     -1.201056   104A     -1.195618   105A     -1.188132
     106A     -1.188130   107A     -1.173779   108A     -1.173776
     109A     -1.155627   110A     -1.155623   111A     -1.152725
     112A     -1.144737   113A     -1.144734   114A     -1.128573
     115A     -1.114715   116A     -1.113178   117A     -1.112478
     118A     -1.112464   119A     -1.111634   120A     -1.088433
     121A     -1.088418   122A     -1.076975   123A     -1.076974
     124A     -1.067615   125A     -1.067585   126A     -1.064981
     127A     -1.046812   128A     -1.046804   129A     -1.040486
     130A     -1.038748   131A     -1.038747   132A     -1.025234
     133A     -1.021383   134A     -1.021333   135A     -1.007194
     136A     -1.006822   137A     -1.003802   138A     -1.000487
     139A     -1.000439   140A     -0.991087   141A     -0.970996
     142A     -0.970948   143A     -0.955892   144A     -0.955836
     145A     -0.905585   146A     -0.905564   147A     -0.905543
     148A     -0.905523   149A     -0.904338   150A     -0.892369
     151A     -0.892310   152A     -0.890362   153A     -0.890304
     154A     -0.889458   155A     -0.872231   156A     -0.869070
     157A     -0.851549   158A     -0.847872   159A     -0.847850
     160A     -0.845593   161A     -0.843024   162A     -0.834574
     163A     -0.834561   164A     -0.828128   165A     -0.828124
     166A     -0.784556   167A     -0.784545   168A     -0.783662
     169A     -0.783635   170A     -0.782294   171A     -0.782273
     172A     -0.782041   173A     -0.767003   174A     -0.760800
     175A     -0.750564   176A     -0.733494   177A     -0.727080
     178A     -0.727067   179A     -0.725088   180A     -0.724550
     181A     -0.724532   182A     -0.718478   183A     -0.713774
     184A     -0.713768   185A     -0.699580   186A     -0.699568
     187A     -0.686126   188A     -0.685968   189A     -0.685965
     190A     -0.682184   191A     -0.682173   192A     -0.678766
     193A     -0.653626   194A     -0.650876   195A     -0.650847
     196A     -0.649810   197A     -0.649794   198A     -0.649578
     199A     -0.640926   200A     -0.640899   201A     -0.640098
     202A     -0.639174   203A     -0.636016   204A     -0.635989
     205A     -0.629148   206A     -0.617738   207A     -0.615313
     208A     -0.615293   209A     -0.608810   210A     -0.608803
     211A     -0.599117   212A     -0.599082   213A     -0.598749
     214A     -0.598611   215A     -0.598587   216A     -0.598025
     217A     -0.595075   218A     -0.595063   219A     -0.594724
     220A     -0.594224   221A     -0.591955   222A     -0.591952
     223A     -0.587380   224A     -0.577806   225A     -0.577796
     226A     -0.575656   227A     -0.575653   228A     -0.573389
     229A     -0.569592   230A     -0.568139   231A     -0.568116
     232A     -0.566755   233A     -0.566745   234A     -0.560923
     235A     -0.558715   236A     -0.558696   237A     -0.558436
     238A     -0.554370   239A     -0.550553   240A     -0.547484
     241A     -0.544264   242A     -0.535013   243A     -0.534976
     244A     -0.533538   245A     -0.533517   246A     -0.528084
     247A     -0.528069   248A     -0.527784   249A     -0.517156
     250A     -0.517122   251A     -0.515353   252A     -0.515347
     253A     -0.509649   254A     -0.509633   255A     -0.498033
     256A     -0.496452   257A     -0.496426   258A     -0.493757
     259A     -0.493745   260A     -0.489446   261A     -0.481458
     262A     -0.477421   263A     -0.477418   264A     -0.473999
     265A     -0.469442   266A     -0.466527   267A     -0.466522
     268A     -0.458785   269A     -0.446676   270A     -0.446616
     271A     -0.441019   272A     -0.440785   273A     -0.440760
     274A     -0.434689   275A     -0.433908   276A     -0.407362
     277A     -0.407337   278A     -0.386380   279A     -0.386331
     280A     -0.385738   281A     -0.385737   282A     -0.383736
     283A     -0.354333   284A     -0.354317   285A     -0.350642
     286A     -0.338040   287A     -0.335587   288A     -0.335518
     289A     -0.332713   290A     -0.332706   291A     -0.307041
     292A     -0.301903   293A     -0.301839   294A     -0.300852
     295A     -0.286159   296A     -0.256473   297A     -0.253468
     298A     -0.253416   299A     -0.204252   300A     -0.204163

  @DF-RHF Final Energy: -3650.33989673617998

   => Energetics <=

    Nuclear Repulsion Energy =          15611.4211649754324753
    One-Electron Energy =              -36072.1439003090781625
    Two-Electron Energy =               16810.3828385974666162
    Total Energy =                      -3650.3398967361790710
 Dipole X            :          0.0002356            0.0002304            0.0004660
 Dipole Y            :          0.0014112           -0.0013052            0.0001059
 Dipole Z            :       -265.5155200          265.5178131            0.0022931
 Magnitude           :                                                    0.0023424

    SAPT Results
  --------------------------------------------------------------------------------------------------------
    Electrostatics                -22.27923940 [mEh]     -13.98043379 [kcal/mol]     -58.49413498 [kJ/mol]
      Elst10,r                    -22.27923940 [mEh]     -13.98043379 [kcal/mol]     -58.49413498 [kJ/mol]

    Exchange                       81.99941604 [mEh]      51.45541041 [kcal/mol]     215.28943715 [kJ/mol]
      Exch10                       81.99941604 [mEh]      51.45541041 [kcal/mol]     215.28943715 [kJ/mol]
      Exch10(S^2)                  81.26161631 [mEh]      50.99243409 [kcal/mol]     213.35234423 [kJ/mol]

    Induction                     -27.35788363 [mEh]     -17.16733116 [kcal/mol]     -71.82811357 [kJ/mol]
      Ind20,r                     -53.75743500 [mEh]     -33.73329975 [kcal/mol]    -141.14012616 [kJ/mol]
      Exch-Ind20,r                 29.95835236 [mEh]      18.79914993 [kcal/mol]      78.65564330 [kJ/mol]
      delta HF,r (2)               -3.55880099 [mEh]      -2.23318134 [kcal/mol]      -9.34363071 [kJ/mol]

    Dispersion                    -20.47675736 [mEh]     -12.84935923 [kcal/mol]     -53.76171903 [kJ/mol]
      Disp20                      -27.37347647 [mEh]     -17.17711581 [kcal/mol]     -71.86905256 [kJ/mol]
      Exch-Disp20                   6.89671911 [mEh]       4.32775658 [kcal/mol]      18.10733353 [kJ/mol]
      Disp20 (SS)                 -13.68673823 [mEh]      -8.58855791 [kcal/mol]     -35.93452628 [kJ/mol]
      Disp20 (OS)                 -13.68673823 [mEh]      -8.58855791 [kcal/mol]     -35.93452628 [kJ/mol]
      Exch-Disp20 (SS)              3.73467052 [mEh]       2.34354113 [kcal/mol]       9.80537609 [kJ/mol]
      Exch-Disp20 (OS)              3.16204859 [mEh]       1.98421545 [kcal/mol]       8.30195744 [kJ/mol]

  Total HF                         32.36229301 [mEh]      20.30764546 [kcal/mol]      84.96718860 [kJ/mol]
  Total SAPT0                      11.88553566 [mEh]       7.45828623 [kcal/mol]      31.20546957 [kJ/mol]

  Special recipe for scaled SAPT0 (see Manual):
    Electrostatics sSAPT0         -22.27923940 [mEh]     -13.98043379 [kcal/mol]     -58.49413498 [kJ/mol]
    Exchange sSAPT0                81.99941604 [mEh]      51.45541041 [kcal/mol]     215.28943715 [kJ/mol]
    Induction sSAPT0              -26.53444859 [mEh]     -16.65061787 [kcal/mol]     -69.66618517 [kJ/mol]
    Dispersion sSAPT0             -20.28719419 [mEh]     -12.73040655 [kcal/mol]     -53.26402100 [kJ/mol]
  Total sSAPT0                     12.89853387 [mEh]       8.09395220 [kcal/mol]      33.86509600 [kJ/mol]
  --------------------------------------------------------------------------------------------------------

*** Psi4 exiting successfully. Buy a developer a beer!
