                               Psi4 1.9 release

  ==> Input File <==

--------------------------------------------------------------------------
memory 32 GB # how much memory is available ! Depends on the nodes/cores !

molecule dimer {
# monomer A
-1 1    # Charge and multiplicity
B -1.977592e-04  2.742729e-04 6.200034
F  1.123153e-16  1.430594e-17 7.612819
F  1.147860e+00  6.757812e-01 5.728893
F  1.191806e-02 -1.332011e+00 5.729095
F -1.159666e+00  6.560735e-01 5.729174
--
# monomer B
0 1     # Charge and multiplicity
C   1.22531237526482      0.70753866091955      0.00613762728373
C   1.22532433589282     -0.70753852257020     -0.00619318228664
C   -0.00000567409046      1.41496628609039     -0.00672680580738
C   2.45644923379077      1.41832825917820      0.00902448468363
C   0.00001130712078     -1.41497612663474      0.00347275151708
C   -1.22530046906674      0.70754574598412      0.00838914760619
C   2.45643823516184     -1.41832293188077     -0.00843833914343
C   -0.00000085313587      2.83680140328112     -0.00913035594137
C   3.68182717731192      0.70931832800114     -0.00808954934571
C   2.45512052870677      2.83422403348893     -0.00819210630633
C   3.68182158506039     -0.70933346742900      0.00798293467272
C   -1.22531311884624     -0.70752714354401     -0.00512042085974
C   1.22670006104402      3.54346985599427      0.00816696660346
C   0.00000526469929     -2.83678176723568      0.00832091913869
C   -2.45643555300670      1.41831729028492      0.00842454345199
C   2.45512389762097     -2.83422965658853      0.00783102630520
C   -1.22671388474763      3.54346943575023      0.00827029982280
C   4.91451777504333      1.42717324448953     -0.00160886631602
C   3.69315067131765      3.54279566454522     -0.00155906667985
C   -2.45643712022637     -1.41831290883911     -0.00846337726810
C   1.22670532178455     -3.54347386990643     -0.00780316414624
C   -2.45512491866593      2.83421703463423     -0.00818572995999
C   4.91452486062398     -1.42718653794377      0.00136387641845
C   1.22142509354026      4.97013443726031      0.00150231067809
C   4.89300870916237      2.82518837202648     -0.00039219795739
C   -1.22669652864725     -3.54347062507680     -0.00753595973677
C   -3.68181849668397      0.70932533873199     -0.00807686886569
C   3.69314758099218     -3.54280096939050      0.00148176697923
C   -1.22143177215231      4.97012866986289      0.00168580605083
C   6.13477145276790      0.68054831910577     -0.00083909176631
C   3.65678936045204      4.97295361556775     -0.00065042889723
C   -2.45512642789169     -2.83421472106065      0.00758666850712
C   -3.68181869921921     -0.70932533146830      0.00810055625144
C   4.89301309775526     -2.82519973363176      0.00021895393805
C   -0.00000059327114      5.65044773803267      0.00045449734393
C   6.13477559217374     -0.68055448207492      0.00042622874941
C   2.47813196269732      5.65357712333155      0.00063835075260
C   1.22142288457925     -4.97012668293268     -0.00129718634452
C   -3.69316190412301      3.54279732619245     -0.00139355922051
C   -1.22142804110313     -4.97011793159564     -0.00140994817719
C   -4.91452132810043      1.42717581899491     -0.00153192130862
C   3.65678749952045     -4.97295485423912      0.00080007163680
C   -2.47813805026426      5.65357479452875      0.00092287576113
C   -3.69314125872231     -3.54278984697859      0.00136564082345
C   -4.91451200321153     -1.42718062802730      0.00139857359209
C   -0.00000552908399     -5.65043791501335      0.00005899322272
C   -4.89302000425900      2.82518897091939     -0.00040227981744
C   2.47812647313991     -5.65357317188818     -0.00029052915548
C   -3.65679823041642      4.97295655404175     -0.00047374852278
C   -4.89299899901461     -2.82519139505969      0.00006491824035
C   -2.47812801824129     -5.65356579800621     -0.00056571680280
C   -6.13477002348955      0.68054913825639     -0.00086464346868
C   -3.65678835334731     -4.97294365097028      0.00058578382008
C   -6.13476456307132     -0.68055354348201      0.00040575295444
H   5.83528897565761      3.36927626695423      0.00396712770529
H   7.07385965258860      1.22821762089947     -0.00037744837300
H   4.60066374401555      5.51238117445323     -0.00014522814529
H   5.83528386714679     -3.36930568472863     -0.00423551337640
H   -0.00001167146422      6.73853104613662     -0.00389474766392
H   7.07386165167227     -1.22822657074368     -0.00008250934481
H   2.47331421164041      6.74068466339473      0.00017162982210
H   4.60066897122302     -5.51237575717576      0.00039007446835
H   -2.47331820069565      6.74068209160650      0.00047297644710
H   -0.00000978838621     -6.73852780445195      0.00458867820736
H   -5.83530143450167      3.36927132229595      0.00410314985360
H   2.47330840367253     -6.74068500242887      0.00027980126949
H   -4.60067436136587      5.51237839860371      0.00002010017831
H   -5.83527902699321     -3.36928859177951     -0.00451481925734
H   -2.47329986759855     -6.74067870613986     -0.00016951527498
H   -7.07385728692578      1.22822084484047     -0.00046143985387
H   -4.60067330624313     -5.51236229778631      0.00021776644566
H   -7.07385645456741     -1.22822025997701     -0.00017736581114

    units angstrom      # Angstroms are the default
    no_reorient         # Geometry fixed, default
    symmetry c1         # C1 symmetry, default
}

set {
    scf_type DF         # Density fitting, faster than exact integrals
    freeze_core True    # Freeze core electrons
    basis jun-cc-pVDZ   # Jun-cc-pVDZ basis set, recommended for sSAPT0 in https://doi.org/10.1063/1.4867135
}

energy('ssapt0')        # Compute sSAPT0 energy, includes also SAPT0
--------------------------------------------------------------------------

  //              Dimer HF             //
    Molecular point group: c1
  Charge       = -1
  Multiplicity = 1
  Basis Set: JUN-CC-PVDZ
    Blend: JUN-CC-PVDZ
  Basis Set: (JUN-CC-PVDZ AUX)
    Blend: JUN-CC-PVDZ-JKFIT
  @DF-RHF Final Energy: -2478.65784518189184
    Total Energy =                      -2478.6578451818913891
 Dipole X            :         -0.0005510            0.0000481           -0.0005029
 Dipole Y            :          0.0010601           -0.0001453            0.0009148
 Dipole Z            :         28.5158915          -38.0079123           -9.4920209
 Magnitude           :                                                    9.4920209
  //            Monomer A HF           //
    Molecular point group: c1
  Multiplicity = 1
  Basis Set: JUN-CC-PVDZ
    Blend: JUN-CC-PVDZ
  Basis Set: (JUN-CC-PVDZ AUX)
    Blend: JUN-CC-PVDZ-JKFIT
  @DF-RHF Final Energy:  -422.77153589023607
    Total Energy =                       -422.7715358902360663
  //            Monomer B HF           //
    Molecular point group: c1

    Geometry (in Angstrom), charge = 0, multiplicity = 1:

       Center              X                  Y                   Z               Mass
    ------------   -----------------  -----------------  -----------------  -----------------
      Gh(B)          -0.000198161052     0.000273808717     5.483814270362    11.009305360000
      Gh(F)          -0.000000401852    -0.000000464183     6.896599270362    18.998403162730
      Gh(F)           1.147859598148     0.675780735817     5.012673270362    18.998403162730
      Gh(F)           0.011917658148    -1.332011464183     5.012875270362    18.998403162730
      Gh(F)          -1.159666401852     0.656073035817     5.012954270362    18.998403162730
         C            1.225311973413     0.707538196736    -0.710082102355    12.000000000000
         C            1.225323934041    -0.707538986754    -0.722412911925    12.000000000000
         C           -0.000006075942     1.414965821907    -0.722946535446    12.000000000000
         C            2.456448831939     1.418327794995    -0.707195244955    12.000000000000
         C            0.000010905269    -1.414976590818    -0.712746978121    12.000000000000
         C           -1.225300870919     0.707545281801    -0.707830582032    12.000000000000
         C            2.456437833310    -1.418323396064    -0.724658068782    12.000000000000
         C           -0.000001254988     2.836800939098    -0.725350085580    12.000000000000
         C            3.681826775460     0.709317863818    -0.724309278984    12.000000000000
         C            2.455120126855     2.834223569306    -0.724411835945    12.000000000000
         C            3.681821183209    -0.709333931612    -0.708236794966    12.000000000000
         C           -1.225313520698    -0.707527607727    -0.721340150498    12.000000000000
         C            1.226699659192     3.543469391811    -0.708052763035    12.000000000000
         C            0.000004862847    -2.836782231419    -0.707898810500    12.000000000000
         C           -2.456435954859     1.418316826102    -0.707795186186    12.000000000000
         C            2.455123495769    -2.834230120772    -0.708388703333    12.000000000000
         C           -1.226714286599     3.543468971567    -0.707949429816    12.000000000000
         C            4.914517373191     1.427172780306    -0.717828595954    12.000000000000
         C            3.693150269466     3.542795200362    -0.717778796318    12.000000000000
         C           -2.456437522078    -1.418313373022    -0.724683106907    12.000000000000
         C            1.226704919933    -3.543474334090    -0.724022893785    12.000000000000
         C           -2.455125320518     2.834216570451    -0.724405459598    12.000000000000
         C            4.914524458772    -1.427187002127    -0.714855853220    12.000000000000
         C            1.221424691688     4.970133973077    -0.714717418960    12.000000000000
         C            4.893008307311     2.825187907843    -0.716611927596    12.000000000000
         C           -1.226696930499    -3.543471089260    -0.723755689375    12.000000000000
         C           -3.681818898536     0.709324874549    -0.724296598504    12.000000000000
         C            3.693147179140    -3.542801433574    -0.714737962659    12.000000000000
         C           -1.221432174004     4.970128205680    -0.714533923588    12.000000000000
         C            6.134771050916     0.680547854922    -0.717058821405    12.000000000000
         C            3.656788958600     4.972953151384    -0.716870158536    12.000000000000
         C           -2.455126829744    -2.834215185244    -0.708633061131    12.000000000000
         C           -3.681819101071    -0.709325795652    -0.708119173387    12.000000000000
         C            4.893012695903    -2.825200197815    -0.716000775700    12.000000000000
         C           -0.000000995123     5.650447273849    -0.715765232295    12.000000000000
         C            6.134775190322    -0.680554946258    -0.715793500889    12.000000000000
         C            2.478131560845     5.653576659148    -0.715581378886    12.000000000000
         C            1.221422482727    -4.970127147116    -0.717516915983    12.000000000000
         C           -3.693162305975     3.542796862009    -0.717613288859    12.000000000000
         C           -1.221428442955    -4.970118395779    -0.717629677816    12.000000000000
         C           -4.914521729952     1.427175354812    -0.717751650947    12.000000000000
         C            3.656787097669    -4.972955318422    -0.715419658002    12.000000000000
         C           -2.478138452116     5.653574330345    -0.715296853877    12.000000000000
         C           -3.693141660574    -3.542790311162    -0.714854088815    12.000000000000
         C           -4.914512405063    -1.427181092211    -0.714821156046    12.000000000000
         C           -0.000005930936    -5.650438379197    -0.716160736416    12.000000000000
         C           -4.893020406111     2.825188506736    -0.716622009456    12.000000000000
         C            2.478126071288    -5.653573636072    -0.716510258794    12.000000000000
         C           -3.656798632268     4.972956089858    -0.716693478161    12.000000000000
         C           -4.892999400866    -2.825191859243    -0.716154811398    12.000000000000
         C           -2.478128420093    -5.653566262190    -0.716785446441    12.000000000000
         C           -6.134770425341     0.680548674073    -0.717084373107    12.000000000000
         C           -3.656788755199    -4.972944115154    -0.715633945818    12.000000000000
         C           -6.134764964923    -0.680554007665    -0.715813976684    12.000000000000
         H            5.835288573806     3.369275802771    -0.712252601933     1.007825032230
         H            7.073859250737     1.228217156716    -0.716597178011     1.007825032230
         H            4.600663342164     5.512380710270    -0.716364957784     1.007825032230
         H            5.835283465295    -3.369306148912    -0.720455243015     1.007825032230
         H           -0.000012073316     6.738530581953    -0.720114477302     1.007825032230
         H            7.073861249820    -1.228227034927    -0.716302238983     1.007825032230
         H            2.473313809789     6.740684199211    -0.716048099816     1.007825032230
         H            4.600668569371    -5.512376221359    -0.715829655170     1.007825032230
         H           -2.473318602548     6.740681627423    -0.715746753191     1.007825032230
         H           -0.000010190238    -6.738528268635    -0.711631051431     1.007825032230
         H           -5.835301836354     3.369270858113    -0.712116579785     1.007825032230
         H            2.473308001821    -6.740685466612    -0.715939928369     1.007825032230
         H           -4.600674763218     5.512377934420    -0.716199629460     1.007825032230
         H           -5.835279428845    -3.369289055963    -0.720734548896     1.007825032230
         H           -2.473300269450    -6.740679170323    -0.716389244913     1.007825032230
         H           -7.073857688778     1.228220380657    -0.716681169492     1.007825032230
         H           -4.600673708095    -5.512362761970    -0.716001963193     1.007825032230
         H           -7.073856856419    -1.228220724160    -0.716397095450     1.007825032230

  Charge       = 0
  Multiplicity = 1
  Basis Set: JUN-CC-PVDZ
    Blend: JUN-CC-PVDZ
  Basis Set: (JUN-CC-PVDZ AUX)
    Blend: JUN-CC-PVDZ-JKFIT

    Orbital Energies [Eh]
    ---------------------

    Doubly Occupied:

       1A    -11.260659     2A    -11.260216     3A    -11.260215
       4A    -11.259506     5A    -11.259506     6A    -11.259336
       7A    -11.259127     8A    -11.259049     9A    -11.259048
      10A    -11.258724    11A    -11.258720    12A    -11.258652
      13A    -11.258590    14A    -11.258585    15A    -11.258582
      16A    -11.258553    17A    -11.258547    18A    -11.258531
      19A    -11.258518    20A    -11.258513    21A    -11.258507
      22A    -11.258408    23A    -11.258404    24A    -11.258104
      25A    -11.257446    26A    -11.257384    27A    -11.257383
      28A    -11.257249    29A    -11.257248    30A    -11.257164
      31A    -11.256541    32A    -11.256470    33A    -11.256470
      34A    -11.256360    35A    -11.256360    36A    -11.256313
      37A    -11.252390    38A    -11.252390    39A    -11.252388
      40A    -11.252387    41A    -11.252385    42A    -11.252383
      43A    -11.251522    44A    -11.251519    45A    -11.251518
      46A    -11.251512    47A    -11.251512    48A    -11.251507
      49A    -11.250952    50A    -11.250951    51A    -11.250950
      52A    -11.250947    53A    -11.250946    54A    -11.250945
      55A     -1.244272    56A     -1.219997    57A     -1.219996
      58A     -1.189708    59A     -1.189700    60A     -1.181144
      61A     -1.157709    62A     -1.149140    63A     -1.135685
      64A     -1.135678    65A     -1.113342    66A     -1.113338
      67A     -1.082611    68A     -1.082604    69A     -1.078792
      70A     -1.066126    71A     -1.066122    72A     -1.039563
      73A     -1.024468    74A     -1.021969    75A     -1.021926
      76A     -1.017875    77A     -1.012937    78A     -0.987201
      79A     -0.987155    80A     -0.962034    81A     -0.961984
      82A     -0.894453    83A     -0.894426    84A     -0.888142
      85A     -0.886389    86A     -0.886331    87A     -0.881581
      88A     -0.881533    89A     -0.862058    90A     -0.837541
      91A     -0.818374    92A     -0.816809    93A     -0.812319
      94A     -0.812310    95A     -0.794840    96A     -0.794829
      97A     -0.746818    98A     -0.745045    99A     -0.733610
     100A     -0.733601   101A     -0.732338   102A     -0.732315
     103A     -0.716680   104A     -0.699134   105A     -0.699123
     106A     -0.693758   107A     -0.693743   108A     -0.661385
     109A     -0.653309   110A     -0.651355   111A     -0.650403
     112A     -0.650397   113A     -0.639515   114A     -0.639512
     115A     -0.629894   116A     -0.627705   117A     -0.627689
     118A     -0.606469   119A     -0.605925   120A     -0.601846
     121A     -0.599903   122A     -0.599872   123A     -0.593806
     124A     -0.591429   125A     -0.591418   126A     -0.585409
     127A     -0.576413   128A     -0.576407   129A     -0.567466
     130A     -0.567451   131A     -0.566144   132A     -0.566124
     133A     -0.558918   134A     -0.555007   135A     -0.555001
     136A     -0.538745   137A     -0.538743   138A     -0.538279
     139A     -0.538273   140A     -0.529880   141A     -0.528202
     142A     -0.523035   143A     -0.523028   144A     -0.500654
     145A     -0.495709   146A     -0.493392   147A     -0.487938
     148A     -0.485248   149A     -0.481929   150A     -0.481921
     151A     -0.470427   152A     -0.470409   153A     -0.451227
     154A     -0.451149   155A     -0.439179   156A     -0.439170
     157A     -0.404858   158A     -0.404835   159A     -0.403480
     160A     -0.375534   161A     -0.375531   162A     -0.349237
     163A     -0.337703   164A     -0.336669   165A     -0.336611
     166A     -0.311213   167A     -0.298202   168A     -0.284468
     169A     -0.284414   170A     -0.225037   171A     -0.224971

  @DF-RHF Final Energy: -2055.89182816265748

   => Energetics <=

    Nuclear Repulsion Energy =           6452.5568002797772351
    One-Electron Energy =              -15636.4317261782089190
    Two-Electron Energy =                7127.9830977357742086
    Total Energy =                      -2055.8918281626574753
 Dipole X            :          0.0000485            0.0000419            0.0000904
 Dipole Y            :          0.0000254           -0.0000426           -0.0000171
 Dipole Z            :        462.8814987         -462.8844670           -0.0029683
 Magnitude           :                                                    0.0029697

    SAPT Results
  --------------------------------------------------------------------------------------------------------
    Electrostatics                  8.83954502 [mEh]       5.54689824 [kcal/mol]      23.20822225 [kJ/mol]
      Elst10,r                      8.83954502 [mEh]       5.54689824 [kcal/mol]      23.20822225 [kJ/mol]

    Exchange                        0.00012729 [mEh]       0.00007987 [kcal/mol]       0.00033419 [kJ/mol]
      Exch10                        0.00012729 [mEh]       0.00007987 [kcal/mol]       0.00033419 [kJ/mol]
      Exch10(S^2)                   0.00012729 [mEh]       0.00007987 [kcal/mol]       0.00033420 [kJ/mol]

    Induction                      -3.32080130 [mEh]      -2.08383428 [kcal/mol]      -8.71876262 [kJ/mol]
      Ind20,r                      -3.34766414 [mEh]      -2.10069096 [kcal/mol]      -8.78929098 [kJ/mol]
      Exch-Ind20,r                  0.00046491 [mEh]       0.00029174 [kcal/mol]       0.00122062 [kJ/mol]
      delta HF,r (2)                0.02639792 [mEh]       0.01656495 [kcal/mol]       0.06930774 [kJ/mol]

    Dispersion                     -0.69123221 [mEh]      -0.43375476 [kcal/mol]      -1.81482992 [kJ/mol]
      Disp20                       -0.69177347 [mEh]      -0.43409441 [kcal/mol]      -1.81625101 [kJ/mol]
      Exch-Disp20                   0.00054126 [mEh]       0.00033965 [kcal/mol]       0.00142108 [kJ/mol]
      Disp20 (SS)                  -0.34588674 [mEh]      -0.21704720 [kcal/mol]      -0.90812550 [kJ/mol]
      Disp20 (OS)                  -0.34588674 [mEh]      -0.21704720 [kcal/mol]      -0.90812550 [kJ/mol]
      Exch-Disp20 (SS)              0.00041857 [mEh]       0.00026266 [kcal/mol]       0.00109896 [kJ/mol]
      Exch-Disp20 (OS)              0.00012269 [mEh]       0.00007699 [kcal/mol]       0.00032212 [kJ/mol]

  Total HF                          5.51887100 [mEh]       3.46314384 [kcal/mol]      14.48979382 [kJ/mol]
  Total SAPT0                       4.82763879 [mEh]       3.02938908 [kcal/mol]      12.67496390 [kJ/mol]

  Special recipe for scaled SAPT0 (see Manual):
    Electrostatics sSAPT0           8.83954502 [mEh]       5.54689824 [kcal/mol]      23.20822225 [kJ/mol]
    Exchange sSAPT0                 0.00012729 [mEh]       0.00007987 [kcal/mol]       0.00033419 [kJ/mol]
    Induction sSAPT0               -3.32080130 [mEh]      -2.08383428 [kcal/mol]      -8.71876262 [kJ/mol]
    Dispersion sSAPT0              -0.69123221 [mEh]      -0.43375476 [kcal/mol]      -1.81482992 [kJ/mol]
  Total sSAPT0                      4.82763879 [mEh]       3.02938908 [kcal/mol]      12.67496390 [kJ/mol]
  --------------------------------------------------------------------------------------------------------

*** Psi4 exiting successfully. Buy a developer a beer!
