                               Psi4 1.9 release

  ==> Input File <==

--------------------------------------------------------------------------
memory 80 GB # how much memory is available ! Depends on the nodes/cores !

molecule dimer {
# monomer A
+1 1    # Charge and multiplicity
C  0.680067 -1.215929 3.308042
C -0.680504 -1.215545 3.306014
N -1.085635  0.102779 3.305016
C  0.000108  0.884180 3.301740
C -2.477365  0.570758 3.255610
N  1.085222  0.102779 3.305016
H  1.385146 -2.033368 3.315870
H -1.385302 -2.033214 3.306204
H -0.000009  1.965269 3.299993
C  2.478117  0.567877 3.321908
H  2.490592  1.658130 3.294563
H  2.967028  0.220701 4.235354
H  3.001428  0.176405 2.446425
H -2.857359  0.490799 2.233539
H -3.082679 -0.042306 3.925694
H -2.518128  1.610706 3.582594
--
# monomer B
0 1     # Charge and multiplicity
C   -3.66844126402057      7.80375217008252      0.00190004133558
C   -4.84759871934653      7.13124183134024     -0.00046653359696
C   -4.89495929917518      5.69633040353158     -0.00103944469517
C   -3.65374067877320      4.98073034095895      0.00662099703436
C   -2.40942512149445      7.11398103667468      0.00209438359570
C   -2.42547734410473      5.68112195090346     -0.00491050527438
C   -1.19474401643570      7.78614419430947      0.00356656413763
C   0.03795902893699      7.09942164575698      0.00139585983271
C   0.03033258741920      5.66948955970466     -0.00408752508301
C   -1.20098450790502      4.96927034791531      0.00488220885047
C   1.27795782581485      7.77285944319479      0.00277170839332
C   2.48535808472416      7.08769688523756      0.00049722048857
C   2.48612868491717      5.65477081024076     -0.00644052849921
C   1.25408291964399      4.95607811366431      0.00518741308898
C   3.75171459140595      7.76391215098033      0.00062407186893
C   4.92356605618520      7.07878077698995     -0.00143240883900
C   4.95560727132542      5.64344746336949     -0.00159282164606
C   3.70680153420475      4.94121020833308      0.00349873852374
H   -3.65852113775815      8.89082741913536      0.00358502958574
H   -1.18921332975660      8.87412108735996      0.00753844057883
H   1.28429423888630      8.86083343548850      0.00693053253426
H   3.75354208679975      8.85103527897216      0.00214659618464
H   5.86995870320703      7.61379483465560     -0.00235777588134
H   -5.78823170750226      7.67630221293400     -0.00202638095293
C   -6.09197395869619      4.99326001364347     -0.00291168518608
C   -6.12866148031747      3.58258016879823     -0.00171050815740
C   -3.66457974004527      3.56418217974434     -0.00463560277484
C   -4.89429820469869      2.86108077590057      0.00453338221034
C   -2.43733499489796      2.84761165708481      0.00719617576166
C   -1.20922785759670      3.54788693497833     -0.00648285103018
C   1.24714157216223      3.53468075142962     -0.00729145743546
C   0.01517603956900      2.83311183930540      0.00439272578912
C   2.46764517244071      2.82128997725533      0.00449278391269
C   3.70254947457969      3.52466015442405     -0.00899517692985
C   6.14498038638375      4.92757236613191     -0.00282626685777
C   6.16658835886151      3.51658447594213     -0.00065971342101
C   4.92460995845939      2.80840792535402      0.00587903281610
H   7.08990550964105      5.46688776622306     -0.00658814770723
H   -7.03104175110130      5.54268795285765     -0.00714490013730
C   -7.33969804112295      2.85841153457957     -0.00333767559888
C   -7.36488195805880      1.47032337158330     -0.00157213747140
C   -4.90350460894690      1.44442681216000     -0.00628840166334
C   -6.13225715261081      0.73993935705394      0.00600164231964
C   -3.67687480051673      0.72669714267312      0.00433931473643
C   -2.44565658606518      1.42964113326212     -0.00597039546461
C   -1.22360068130162      0.71532450163492      0.00545886906656
C   0.00763786931376      1.41738314923765      0.00392452278437
C   1.23121980774686      0.70211669058719     -0.01490206287210
C   2.46082110053113      1.40329203612573      0.00460244601878
C   3.68443025419614      0.68719842821222      0.00377365974158
C   4.91870890153864      1.39173456118907     -0.00862816189375
C   7.36980207796101      2.77948220318441     -0.00242013321349
C   7.38016266612146      1.39121750785509     -0.00087345036788
C   6.13979953912259      0.67411862320065      0.00545489144369
H   -8.27919079934664      3.40711804112415     -0.00763522772059
H   8.31511347147953      3.31811809662368     -0.00663070901292
C   -8.59175593758115      0.72483255304480     -0.00123170985383
C   -8.59902460370342     -0.63263980622873      0.00089141472904
C   -6.13981313911873     -0.67413663715361     -0.00609792660607
C   -7.38018411213749     -1.39126618958160      0.00131813493501
C   -4.91868448025621     -1.39175501803000      0.00624257154343
C   -3.68443829568458     -0.68723731573599     -0.00478966852105
C   -2.46081704024768     -1.40334517882457      0.00575341766833
C   -1.23116201232071     -0.70217386488055     -0.00636696112346
C   -0.00756962538737     -1.41741884941102      0.00108956317991
C   1.22364771588843     -0.71527537726392      0.01109518512883
C   2.44567064933149     -1.42964328900682     -0.00065482763106
C   3.67686670284649     -0.72670743155550     -0.00479541202602
C   6.13224884641929     -0.73997883984993     -0.00632338623858
C   4.90351914550401     -1.44445752054090      0.00751768830159
C   8.59901484869081      0.63260386666793     -0.00101133422380
C   8.59174548810050     -0.72485086719319      0.00072504603735
C   7.36486276438985     -1.47033266560598      0.00049486934466
H   -9.52830597181814      1.27684744919284     -0.00270163681798
H   9.54141097460619      1.17457248844457     -0.00206336648518
C   -7.36983790976868     -2.77954514593389      0.00312634335708
C   -4.92459910905015     -2.80843725734101     -0.00460528907921
C   -6.16662249566744     -3.51665219282533      0.00169655107992
C   -3.70251035970491     -3.52468154912026      0.00571878010666
C   -2.46764698511392     -2.82132596280400     -0.00632585824990
C   -0.01513347410770     -2.83314164539971     -0.00604426974092
C   -1.24712184122656     -3.53473217556300      0.00551968366725
C   1.20924506964357     -3.54791467864352      0.00805871345849
C   2.43733602215464     -2.84764173817541     -0.00608104485234
C   4.89430234377080     -2.86112296828604     -0.00526030478103
C   3.66461525504104     -3.56421984553201      0.00761911515957
C   6.12863901474565     -3.58258405771778      0.00096495711699
C   7.33967266469532     -2.85841330737039      0.00248018319869
H   -9.54144911125902     -1.17456346666430      0.00226083090216
H   9.52826186807155     -1.27691907390448      0.00197485379837
H   -8.31516504384864     -3.31814985321231      0.00729857188773
H   8.27915514249207     -3.40714078989363      0.00681973918158
C   -6.14499418870218     -4.92764727278338      0.00302254913999
C   -3.70678334799751     -4.94126171411716     -0.00679841894792
C   -4.95559005800169     -5.64349397349412      0.00116871569699
C   -2.48612132622665     -5.65478557440947      0.00614125209662
C   -1.25405833548005     -4.95612205000132     -0.00503435388927
C   1.20101257386816     -4.96928038819302     -0.00385322963129
C   -0.03033667441341     -5.66952030313900      0.00398997003238
C   3.65375010132847     -4.98074377541453     -0.00309522988330
C   2.42549269587528     -5.68117463552727      0.00628170066869
C   6.09196561781097     -4.99325796338655      0.00325918379042
C   4.89497644461045     -5.69634842095790      0.00202298796027
H   -7.08989238804069     -5.46699984223871      0.00742531082125
H   7.03105520920009     -5.54265853633254      0.00683896355417
C   -4.92354532219813     -7.07882109967734      0.00061394679214
C   -2.48534208823777     -7.08772807792913     -0.00189594564379
C   -3.75168589177895     -7.76394715763627     -0.00170126671874
C   -0.03794895698805     -7.09946487446944     -0.00168022049625
C   -1.27795610040136     -7.77290438466689     -0.00366491325785
C   2.40944432072629     -7.11402201200282     -0.00081701968533
C   1.19474993715296     -7.78618536556242     -0.00296931056689
C   4.84762105249800     -7.13126211057943      0.00168979497423
C   3.66847160587561     -7.80378799294376     -0.00065863938960
H   -5.86994035041618     -7.61383059804164      0.00215798365757
H   5.78824962538815     -7.67633218931421      0.00281691445618
H   -3.75352693944918     -8.85107156923607     -0.00353718114765
H   -1.28430440589466     -8.86087539249706     -0.00809229711623
H   1.18922157469537     -8.87416062058945     -0.00706194725726
H   3.65854661482387     -8.89086063405326     -0.00231318081200

    units angstrom      # Angstroms are the default
    no_reorient         # Geometry fixed, default
    symmetry c1         # C1 symmetry, default
}

set {
    scf_type DF         # Density fitting, faster than exact integrals
    freeze_core True    # Freeze core electrons
    basis jun-cc-pVDZ   # Jun-cc-pVDZ basis set, recommended for sSAPT0 in https://doi.org/10.1063/1.4867135
}

energy('ssapt0')        # Compute sSAPT0 energy, includes also SAPT0
--------------------------------------------------------------------------

  //              Dimer HF             //
    Molecular point group: c1
  Charge       = 1
  Multiplicity = 1
  Basis Set: JUN-CC-PVDZ
    Blend: JUN-CC-PVDZ
  Basis Set: (JUN-CC-PVDZ AUX)
    Blend: JUN-CC-PVDZ-JKFIT
  @DF-RHF Final Energy: -3953.65047909722398
    Total Energy =                      -3953.6504790972248884
 Dipole X            :          0.0005438            0.0004804            0.0010242
 Dipole Y            :         -1.6394998            1.8866171            0.2471173
 Dipole Z            :        -16.0541402           19.9850400            3.9308998
 Magnitude           :                                                    3.9386599
  //            Monomer A HF           //
    Molecular point group: c1
  Multiplicity = 1
  Basis Set: JUN-CC-PVDZ
    Blend: JUN-CC-PVDZ
  Basis Set: (JUN-CC-PVDZ AUX)
    Blend: JUN-CC-PVDZ-JKFIT
  @DF-RHF Final Energy:  -303.29942737275024
    Total Energy =                       -303.2994273727502446
  //            Monomer B HF           //
    Molecular point group: c1

    Geometry (in Angstrom), charge = 0, multiplicity = 1:

       Center              X                  Y                   Z               Mass
    ------------   -----------------  -----------------  -----------------  -----------------
      Gh(C)           0.680062820275    -1.215917226251     3.056439379518    12.000000000000
      Gh(C)          -0.680508179725    -1.215533226251     3.054411379518    12.000000000000
      Gh(N)          -1.085639179725     0.102790773749     3.053413379518    14.003074004430
      Gh(C)           0.000103820275     0.884191773749     3.050137379518    12.000000000000
      Gh(C)          -2.477369179725     0.570769773749     3.004007379518    12.000000000000
      Gh(N)           1.085217820275     0.102790773749     3.053413379518    14.003074004430
      Gh(H)           1.385141820275    -2.033356226251     3.064267379518     1.007825032230
      Gh(H)          -1.385306179725    -2.033202226251     3.054601379518     1.007825032230
      Gh(H)          -0.000013179725     1.965280773749     3.048390379518     1.007825032230
      Gh(C)           2.478112820275     0.567888773749     3.070305379518    12.000000000000
      Gh(H)           2.490587820275     1.658141773750     3.042960379518     1.007825032230
      Gh(H)           2.967023820275     0.220712773749     3.983751379518     1.007825032230
      Gh(H)           3.001423820275     0.176416773749     2.194822379518     1.007825032230
      Gh(H)          -2.857363179725     0.490810773749     1.981936379518     1.007825032230
      Gh(H)          -3.082683179725    -0.042294226251     3.674091379518     1.007825032230
      Gh(H)          -2.518132179725     1.610717773749     3.330991379518     1.007825032230
         C           -3.668445443746     7.803763943832    -0.249702579147    12.000000000000
         C           -4.847602899072     7.131253605090    -0.252069154079    12.000000000000
         C           -4.894963478901     5.696342177281    -0.252642065178    12.000000000000
         C           -3.653744858499     4.980742114708    -0.244981623448    12.000000000000
         C           -2.409429301220     7.113992810424    -0.249508236887    12.000000000000
         C           -2.425481523830     5.681133724653    -0.256513125757    12.000000000000
         C           -1.194748196161     7.786155968059    -0.248036056345    12.000000000000
         C            0.037954849212     7.099433419506    -0.250206760650    12.000000000000
         C            0.030328407694     5.669501333454    -0.255690145565    12.000000000000
         C           -1.200988687630     4.969282121665    -0.246720411632    12.000000000000
         C            1.277953646089     7.772871216944    -0.248830912089    12.000000000000
         C            2.485353904999     7.087708658987    -0.251105399994    12.000000000000
         C            2.486124505192     5.654782583990    -0.258043148982    12.000000000000
         C            1.254078739919     4.956089887414    -0.246415207393    12.000000000000
         C            3.751710411681     7.763923924730    -0.250978548614    12.000000000000
         C            4.923561876460     7.078792550739    -0.253035029321    12.000000000000
         C            4.955603091600     5.643459237119    -0.253195442129    12.000000000000
         C            3.706797354479     4.941221982083    -0.248103881959    12.000000000000
         H           -3.658525317484     8.890839192885    -0.248017590897     1.007825032230
         H           -1.189217509482     8.874132861109    -0.244064179904     1.007825032230
         H            1.284290059161     8.860845209238    -0.244672087948     1.007825032230
         H            3.753537907074     8.851047052722    -0.249456024298     1.007825032230
         H            5.869954523482     7.613806608405    -0.253960396364     1.007825032230
         H           -5.788235887228     7.676313986684    -0.253629001435     1.007825032230
         C           -6.091978138422     4.993271787393    -0.254514305669    12.000000000000
         C           -6.128665660043     3.582591942548    -0.253313128640    12.000000000000
         C           -3.664583919771     3.564193953494    -0.256238223257    12.000000000000
         C           -4.894302384424     2.861092549650    -0.247069238272    12.000000000000
         C           -2.437339174623     2.847623430834    -0.244406444721    12.000000000000
         C           -1.209232037322     3.547898708728    -0.258085471513    12.000000000000
         C            1.247137392437     3.534692525179    -0.258894077918    12.000000000000
         C            0.015171859844     2.833123613055    -0.247209894693    12.000000000000
         C            2.467640992715     2.821301751005    -0.247109836570    12.000000000000
         C            3.702545294854     3.524671928174    -0.260597797412    12.000000000000
         C            6.144976206658     4.927584139881    -0.254428887340    12.000000000000
         C            6.166584179136     3.516596249692    -0.252262333903    12.000000000000
         C            4.924605778734     2.808419699104    -0.245723587666    12.000000000000
         H            7.089901329916     5.466899539973    -0.258190768190     1.007825032230
         H           -7.031045930827     5.542699726607    -0.258747520620     1.007825032230
         C           -7.339702220848     2.858423308329    -0.254940296081    12.000000000000
         C           -7.364886137784     1.470335145333    -0.253174757954    12.000000000000
         C           -4.903508788672     1.444438585909    -0.257891022146    12.000000000000
         C           -6.132261332336     0.739951130803    -0.245600978163    12.000000000000
         C           -3.676878980242     0.726708916423    -0.247263305746    12.000000000000
         C           -2.445660765791     1.429652907012    -0.257573015947    12.000000000000
         C           -1.223604861027     0.715336275384    -0.246143751416    12.000000000000
         C            0.007633689588     1.417394922987    -0.247678097698    12.000000000000
         C            1.231215628021     0.702128464337    -0.266504683355    12.000000000000
         C            2.460816920806     1.403303809875    -0.247000174464    12.000000000000
         C            3.684426074471     0.687210201962    -0.247828960741    12.000000000000
         C            4.918704721813     1.391746334939    -0.260230782376    12.000000000000
         C            7.369797898236     2.779493976934    -0.254022753696    12.000000000000
         C            7.380158486396     1.391229281605    -0.252476070850    12.000000000000
         C            6.139795359397     0.674130396950    -0.246147729039    12.000000000000
         H           -8.279194979072     3.407129814874    -0.259237848203     1.007825032230
         H            8.315109291754     3.318129870373    -0.258233329495     1.007825032230
         C           -8.591760117307     0.724844326794    -0.252834330336    12.000000000000
         C           -8.599028783429    -0.632628032479    -0.250711205753    12.000000000000
         C           -6.139817318844    -0.674124863404    -0.257700547089    12.000000000000
         C           -7.380188291863    -1.391254415832    -0.250284485547    12.000000000000
         C           -4.918688659982    -1.391743244281    -0.245360048939    12.000000000000
         C           -3.684442475410    -0.687225541986    -0.256392289003    12.000000000000
         C           -2.460821219973    -1.403333405075    -0.245849202814    12.000000000000
         C           -1.231166192046    -0.702162091131    -0.257969581606    12.000000000000
         C           -0.007573805113    -1.417407075662    -0.250513057303    12.000000000000
         C            1.223643536163    -0.715263603514    -0.240507435354    12.000000000000
         C            2.445666469606    -1.429631515257    -0.252257448114    12.000000000000
         C            3.676862523121    -0.726695657806    -0.256398032508    12.000000000000
         C            6.132244666694    -0.739967066100    -0.257926006721    12.000000000000
         C            4.903514965779    -1.444445746791    -0.244084932181    12.000000000000
         C            8.599010668965     0.632615640417    -0.252613954706    12.000000000000
         C            8.591741308375    -0.724839093444    -0.250877574445    12.000000000000
         C            7.364858584664    -1.470320891856    -0.251107751138    12.000000000000
         H           -9.528310151544     1.276859222942    -0.254304257300     1.007825032230
         H            9.541406794881     1.174584262194    -0.253665986968     1.007825032230
         C           -7.369842089494    -2.779533372184    -0.248476277125    12.000000000000
         C           -4.924603288776    -2.808425483592    -0.256207909562    12.000000000000
         C           -6.166626675393    -3.516640419076    -0.249906069403    12.000000000000
         C           -3.702514539430    -3.524669775371    -0.245883840376    12.000000000000
         C           -2.467651164839    -2.821314189055    -0.257928478732    12.000000000000
         C           -0.015137653833    -2.833129871650    -0.257646890223    12.000000000000
         C           -1.247126020952    -3.534720401814    -0.246082936815    12.000000000000
         C            1.209240889918    -3.547902904894    -0.243543907024    12.000000000000
         C            2.437331842429    -2.847629964426    -0.257683665335    12.000000000000
         C            4.894298164045    -2.861111194537    -0.256862925263    12.000000000000
         C            3.664611075316    -3.564208071783    -0.243983505323    12.000000000000
         C            6.128634835020    -3.582572283968    -0.250637663365    12.000000000000
         C            7.339668484970    -2.858401533621    -0.249122437284    12.000000000000
         H           -9.541453290984    -1.174551692915    -0.249341789580     1.007825032230
         H            9.528257688346    -1.276907300155    -0.249627766684     1.007825032230
         H           -8.315169223574    -3.318138079463    -0.244304048595     1.007825032230
         H            8.279150962767    -3.407129016144    -0.244782881301     1.007825032230
         C           -6.144998368428    -4.927635499034    -0.248580071342    12.000000000000
         C           -3.706787527723    -4.941249940368    -0.258401039430    12.000000000000
         C           -4.955594237727    -5.643482199745    -0.250433904785    12.000000000000
         C           -2.486125505952    -5.654773800660    -0.245461368386    12.000000000000
         C           -1.254062515205    -4.956110276252    -0.256636974372    12.000000000000
         C            1.201008394143    -4.969268614444    -0.255455850114    12.000000000000
         C           -0.030340854139    -5.669508529390    -0.247612650450    12.000000000000
         C            3.653745921603    -4.980732001665    -0.254697850366    12.000000000000
         C            2.425488516150    -5.681162861778    -0.245320919814    12.000000000000
         C            6.091961438086    -4.993246189637    -0.248343436692    12.000000000000
         C            4.894972264885    -5.696336647208    -0.249579632522    12.000000000000
         H           -7.089896567766    -5.466988068489    -0.244177309661     1.007825032230
         H            7.031051029475    -5.542646762583    -0.244763656928     1.007825032230
         C           -4.923549501924    -7.078809325928    -0.250988673690    12.000000000000
         C           -2.485346267963    -7.087716304180    -0.253498566126    12.000000000000
         C           -3.751690071504    -7.763935383887    -0.253303887201    12.000000000000
         C           -0.037953136713    -7.099453100720    -0.253282840979    12.000000000000
         C           -1.277960280127    -7.772892610917    -0.255267533740    12.000000000000
         C            2.409440141001    -7.114010238253    -0.252419640168    12.000000000000
         C            1.194745757428    -7.786173591813    -0.254571931049    12.000000000000
         C            4.847616872773    -7.131250336830    -0.249912825508    12.000000000000
         C            3.668467426150    -7.803776219194    -0.252261259872    12.000000000000
         H           -5.869944530142    -7.613818824292    -0.249444636825     1.007825032230
         H            5.788245445663    -7.676320415565    -0.248785706026     1.007825032230
         H           -3.753531119175    -8.851059795487    -0.255139801630     1.007825032230
         H           -1.284308585620    -8.860863618748    -0.259694917599     1.007825032230
         H            1.189217394970    -8.874148846840    -0.258664567740     1.007825032230
         H            3.658542435098    -8.890848860304    -0.253915801294     1.007825032230

  Charge       = 0
  Multiplicity = 1
  Basis Set: JUN-CC-PVDZ
    Blend: JUN-CC-PVDZ
  Basis Set: (JUN-CC-PVDZ AUX)
    Blend: JUN-CC-PVDZ-JKFIT

    Orbital Energies [Eh]
    ---------------------

    Doubly Occupied:

       1A    -11.264089     2A    -11.263747     3A    -11.263708
       4A    -11.263328     5A    -11.263313     6A    -11.263236
       7A    -11.263129     8A    -11.263124     9A    -11.263067
      10A    -11.262845    11A    -11.262745    12A    -11.262711
      13A    -11.262234    14A    -11.262231    15A    -11.262200
      16A    -11.262177    17A    -11.262060    18A    -11.262048
      19A    -11.262022    20A    -11.261959    21A    -11.261957
      22A    -11.261864    23A    -11.261854    24A    -11.261688
      25A    -11.261684    26A    -11.261656    27A    -11.261649
      28A    -11.261610    29A    -11.261603    30A    -11.261516
      31A    -11.261500    32A    -11.261481    33A    -11.261477
      34A    -11.261461    35A    -11.261451    36A    -11.261436
      37A    -11.261259    38A    -11.261246    39A    -11.261242
      40A    -11.261236    41A    -11.261226    42A    -11.261218
      43A    -11.261211    44A    -11.261192    45A    -11.261190
      46A    -11.261164    47A    -11.261161    48A    -11.261146
      49A    -11.261002    50A    -11.260985    51A    -11.260955
      52A    -11.260923    53A    -11.260884    54A    -11.260846
      55A    -11.259824    56A    -11.259809    57A    -11.259800
      58A    -11.259778    59A    -11.259769    60A    -11.259750
      61A    -11.259190    62A    -11.259167    63A    -11.259156
      64A    -11.259109    65A    -11.259104    66A    -11.259074
      67A    -11.258825    68A    -11.258805    69A    -11.258798
      70A    -11.258776    71A    -11.258769    72A    -11.258751
      73A    -11.254469    74A    -11.254460    75A    -11.254457
      76A    -11.254455    77A    -11.254451    78A    -11.254442
      79A    -11.253582    80A    -11.253569    81A    -11.253564
      82A    -11.253559    83A    -11.253557    84A    -11.253552
      85A    -11.253498    86A    -11.253485    87A    -11.253478
      88A    -11.253474    89A    -11.253471    90A    -11.253465
      91A    -11.252997    92A    -11.252987    93A    -11.252985
      94A    -11.252983    95A    -11.252978    96A    -11.252970
      97A     -1.253772    98A     -1.238858    99A     -1.238828
     100A     -1.220333   101A     -1.220321   102A     -1.215293
     103A     -1.200925   104A     -1.195478   105A     -1.187999
     106A     -1.187980   107A     -1.173651   108A     -1.173648
     109A     -1.155478   110A     -1.155476   111A     -1.152567
     112A     -1.144614   113A     -1.144613   114A     -1.128428
     115A     -1.114561   116A     -1.113056   117A     -1.112344
     118A     -1.112315   119A     -1.111516   120A     -1.088291
     121A     -1.088273   122A     -1.076858   123A     -1.076856
     124A     -1.067477   125A     -1.067437   126A     -1.064823
     127A     -1.046672   128A     -1.046659   129A     -1.040347
     130A     -1.038634   131A     -1.038628   132A     -1.025087
     133A     -1.021224   134A     -1.021163   135A     -1.007058
     136A     -1.006663   137A     -1.003672   138A     -1.000345
     139A     -1.000289   140A     -0.990978   141A     -0.970851
     142A     -0.970798   143A     -0.955772   144A     -0.955713
     145A     -0.905452   146A     -0.905413   147A     -0.905409
     148A     -0.905380   149A     -0.904152   150A     -0.892189
     151A     -0.892133   152A     -0.890204   153A     -0.890152
     154A     -0.889303   155A     -0.872108   156A     -0.868971
     157A     -0.851417   158A     -0.847707   159A     -0.847695
     160A     -0.845438   161A     -0.842861   162A     -0.834428
     163A     -0.834417   164A     -0.828017   165A     -0.828007
     166A     -0.784425   167A     -0.784415   168A     -0.783517
     169A     -0.783502   170A     -0.782143   171A     -0.782126
     172A     -0.781880   173A     -0.766855   174A     -0.760624
     175A     -0.750422   176A     -0.733374   177A     -0.726943
     178A     -0.726907   179A     -0.724934   180A     -0.724412
     181A     -0.724379   182A     -0.718326   183A     -0.713616
     184A     -0.713610   185A     -0.699452   186A     -0.699430
     187A     -0.685958   188A     -0.685835   189A     -0.685825
     190A     -0.682042   191A     -0.682035   192A     -0.678643
     193A     -0.653500   194A     -0.650741   195A     -0.650709
     196A     -0.649646   197A     -0.649644   198A     -0.649447
     199A     -0.640774   200A     -0.640730   201A     -0.639959
     202A     -0.639044   203A     -0.635876   204A     -0.635843
     205A     -0.629000   206A     -0.617710   207A     -0.615190
     208A     -0.615163   209A     -0.608669   210A     -0.608663
     211A     -0.599084   212A     -0.599059   213A     -0.598603
     214A     -0.598439   215A     -0.598426   216A     -0.597878
     217A     -0.594947   218A     -0.594932   219A     -0.594587
     220A     -0.594054   221A     -0.591810   222A     -0.591806
     223A     -0.587213   224A     -0.577700   225A     -0.577682
     226A     -0.575638   227A     -0.575631   228A     -0.573247
     229A     -0.569530   230A     -0.567987   231A     -0.567962
     232A     -0.566611   233A     -0.566603   234A     -0.560814
     235A     -0.558573   236A     -0.558532   237A     -0.558323
     238A     -0.554227   239A     -0.550501   240A     -0.547374
     241A     -0.544192   242A     -0.534963   243A     -0.534953
     244A     -0.533407   245A     -0.533392   246A     -0.527957
     247A     -0.527938   248A     -0.527617   249A     -0.517012
     250A     -0.516985   251A     -0.515275   252A     -0.515271
     253A     -0.509518   254A     -0.509506   255A     -0.497889
     256A     -0.496318   257A     -0.496274   258A     -0.493737
     259A     -0.493713   260A     -0.489372   261A     -0.481327
     262A     -0.477334   263A     -0.477334   264A     -0.473860
     265A     -0.469276   266A     -0.466372   267A     -0.466371
     268A     -0.458725   269A     -0.446495   270A     -0.446444
     271A     -0.440958   272A     -0.440701   273A     -0.440669
     274A     -0.434604   275A     -0.433819   276A     -0.407289
     277A     -0.407267   278A     -0.386305   279A     -0.386253
     280A     -0.385647   281A     -0.385644   282A     -0.383657
     283A     -0.354226   284A     -0.354197   285A     -0.350563
     286A     -0.338019   287A     -0.335514   288A     -0.335460
     289A     -0.332620   290A     -0.332614   291A     -0.306942
     292A     -0.301839   293A     -0.301781   294A     -0.300737
     295A     -0.286069   296A     -0.256395   297A     -0.253388
     298A     -0.253338   299A     -0.204160   300A     -0.204078

  @DF-RHF Final Energy: -3650.34240730703414

   => Energetics <=

    Nuclear Repulsion Energy =          15611.4211649754324753
    One-Electron Energy =              -36072.2152641207721899
    Two-Electron Energy =               16810.4516918383051234
    Total Energy =                      -3650.3424073070345912
 Dipole X            :          0.0007994            0.0002112            0.0010106
 Dipole Y            :          0.0030297           -0.0044281           -0.0013984
 Dipole Z            :        285.2676837         -285.2726352           -0.0049515
 Magnitude           :                                                    0.0052435

    SAPT Results
  --------------------------------------------------------------------------------------------------------
    Electrostatics                -25.11383020 [mEh]     -15.75916637 [kcal/mol]     -65.93635211 [kJ/mol]
      Elst10,r                    -25.11383020 [mEh]     -15.75916637 [kcal/mol]     -65.93635211 [kJ/mol]

    Exchange                       36.25966788 [mEh]      22.75328511 [kcal/mol]      95.19974490 [kJ/mol]
      Exch10                       36.25966788 [mEh]      22.75328511 [kcal/mol]      95.19974490 [kJ/mol]
      Exch10(S^2)                  36.10825826 [mEh]      22.65827414 [kcal/mol]      94.80221900 [kJ/mol]

    Induction                     -19.79025512 [mEh]     -12.41857258 [kcal/mol]     -51.95930766 [kJ/mol]
      Ind20,r                     -27.94749879 [mEh]     -17.53732026 [kcal/mol]     -73.37614797 [kJ/mol]
      Exch-Ind20,r                 11.84485527 [mEh]       7.43275890 [kcal/mol]      31.09866323 [kJ/mol]
      delta HF,r (2)               -3.68761160 [mEh]      -2.31401121 [kcal/mol]      -9.68182291 [kJ/mol]

    Dispersion                    -43.07157907 [mEh]     -27.02782392 [kcal/mol]    -113.08441527 [kJ/mol]
      Disp20                      -47.02910768 [mEh]     -29.51121061 [kcal/mol]    -123.47490520 [kJ/mol]
      Exch-Disp20                   3.95752861 [mEh]       2.48338669 [kcal/mol]      10.39048992 [kJ/mol]
      Disp20 (SS)                 -23.51455384 [mEh]     -14.75560531 [kcal/mol]     -61.73745260 [kJ/mol]
      Disp20 (OS)                 -23.51455384 [mEh]     -14.75560531 [kcal/mol]     -61.73745260 [kJ/mol]
      Exch-Disp20 (SS)              2.39671397 [mEh]       1.50396072 [kcal/mol]       6.29257167 [kJ/mol]
      Exch-Disp20 (OS)              1.56081463 [mEh]       0.97942597 [kcal/mol]       4.09791825 [kJ/mol]

  Total HF                         -8.64441744 [mEh]      -5.42445384 [kcal/mol]     -22.69591486 [kJ/mol]
  Total SAPT0                     -51.71599651 [mEh]     -32.45227776 [kcal/mol]    -135.78033013 [kJ/mol]

  Special recipe for scaled SAPT0 (see Manual):
    Electrostatics sSAPT0         -25.11383020 [mEh]     -15.75916637 [kcal/mol]     -65.93635211 [kJ/mol]
    Exchange sSAPT0                36.25966788 [mEh]      22.75328511 [kcal/mol]      95.19974490 [kJ/mol]
    Induction sSAPT0              -19.64062544 [mEh]     -12.32467853 [kcal/mol]     -51.56645498 [kJ/mol]
    Dispersion sSAPT0             -43.02158574 [mEh]     -26.99645263 [kcal/mol]    -112.95315780 [kJ/mol]
  Total sSAPT0                    -51.51637350 [mEh]     -32.32701242 [kcal/mol]    -135.25621999 [kJ/mol]
  --------------------------------------------------------------------------------------------------------

*** Psi4 exiting successfully. Buy a developer a beer!
