                               Psi4 1.9 release

  ==> Input File <==

--------------------------------------------------------------------------
memory 32 GB # how much memory is available ! Depends on the nodes/cores !

molecule dimer {
# monomer A
+1 1    # Charge and multiplicity
C  0.680067 -1.215929 3.408042
C -0.680504 -1.215545 3.406014
N -1.085635  0.102779 3.405016
C  0.000108  0.884180 3.401740
C -2.477365  0.570758 3.355610
N  1.085222  0.102779 3.405016
H  1.385146 -2.033368 3.415870
H -1.385302 -2.033214 3.406204
H -0.000009  1.965269 3.399993
C  2.478117  0.567877 3.421908
H  2.490592  1.658130 3.394563
H  2.967028  0.220701 4.335354
H  3.001428  0.176405 2.546425
H -2.857359  0.490799 2.333539
H -3.082679 -0.042306 4.025694
H -2.518128  1.610706 3.682594
--
# monomer B
0 1     # Charge and multiplicity
C   1.22531237526482      0.70753866091955      0.00613762728373
C   1.22532433589282     -0.70753852257020     -0.00619318228664
C   -0.00000567409046      1.41496628609039     -0.00672680580738
C   2.45644923379077      1.41832825917820      0.00902448468363
C   0.00001130712078     -1.41497612663474      0.00347275151708
C   -1.22530046906674      0.70754574598412      0.00838914760619
C   2.45643823516184     -1.41832293188077     -0.00843833914343
C   -0.00000085313587      2.83680140328112     -0.00913035594137
C   3.68182717731192      0.70931832800114     -0.00808954934571
C   2.45512052870677      2.83422403348893     -0.00819210630633
C   3.68182158506039     -0.70933346742900      0.00798293467272
C   -1.22531311884624     -0.70752714354401     -0.00512042085974
C   1.22670006104402      3.54346985599427      0.00816696660346
C   0.00000526469929     -2.83678176723568      0.00832091913869
C   -2.45643555300670      1.41831729028492      0.00842454345199
C   2.45512389762097     -2.83422965658853      0.00783102630520
C   -1.22671388474763      3.54346943575023      0.00827029982280
C   4.91451777504333      1.42717324448953     -0.00160886631602
C   3.69315067131765      3.54279566454522     -0.00155906667985
C   -2.45643712022637     -1.41831290883911     -0.00846337726810
C   1.22670532178455     -3.54347386990643     -0.00780316414624
C   -2.45512491866593      2.83421703463423     -0.00818572995999
C   4.91452486062398     -1.42718653794377      0.00136387641845
C   1.22142509354026      4.97013443726031      0.00150231067809
C   4.89300870916237      2.82518837202648     -0.00039219795739
C   -1.22669652864725     -3.54347062507680     -0.00753595973677
C   -3.68181849668397      0.70932533873199     -0.00807686886569
C   3.69314758099218     -3.54280096939050      0.00148176697923
C   -1.22143177215231      4.97012866986289      0.00168580605083
C   6.13477145276790      0.68054831910577     -0.00083909176631
C   3.65678936045204      4.97295361556775     -0.00065042889723
C   -2.45512642789169     -2.83421472106065      0.00758666850712
C   -3.68181869921921     -0.70932533146830      0.00810055625144
C   4.89301309775526     -2.82519973363176      0.00021895393805
C   -0.00000059327114      5.65044773803267      0.00045449734393
C   6.13477559217374     -0.68055448207492      0.00042622874941
C   2.47813196269732      5.65357712333155      0.00063835075260
C   1.22142288457925     -4.97012668293268     -0.00129718634452
C   -3.69316190412301      3.54279732619245     -0.00139355922051
C   -1.22142804110313     -4.97011793159564     -0.00140994817719
C   -4.91452132810043      1.42717581899491     -0.00153192130862
C   3.65678749952045     -4.97295485423912      0.00080007163680
C   -2.47813805026426      5.65357479452875      0.00092287576113
C   -3.69314125872231     -3.54278984697859      0.00136564082345
C   -4.91451200321153     -1.42718062802730      0.00139857359209
C   -0.00000552908399     -5.65043791501335      0.00005899322272
C   -4.89302000425900      2.82518897091939     -0.00040227981744
C   2.47812647313991     -5.65357317188818     -0.00029052915548
C   -3.65679823041642      4.97295655404175     -0.00047374852278
C   -4.89299899901461     -2.82519139505969      0.00006491824035
C   -2.47812801824129     -5.65356579800621     -0.00056571680280
C   -6.13477002348955      0.68054913825639     -0.00086464346868
C   -3.65678835334731     -4.97294365097028      0.00058578382008
C   -6.13476456307132     -0.68055354348201      0.00040575295444
H   5.83528897565761      3.36927626695423      0.00396712770529
H   7.07385965258860      1.22821762089947     -0.00037744837300
H   4.60066374401555      5.51238117445323     -0.00014522814529
H   5.83528386714679     -3.36930568472863     -0.00423551337640
H   -0.00001167146422      6.73853104613662     -0.00389474766392
H   7.07386165167227     -1.22822657074368     -0.00008250934481
H   2.47331421164041      6.74068466339473      0.00017162982210
H   4.60066897122302     -5.51237575717576      0.00039007446835
H   -2.47331820069565      6.74068209160650      0.00047297644710
H   -0.00000978838621     -6.73852780445195      0.00458867820736
H   -5.83530143450167      3.36927132229595      0.00410314985360
H   2.47330840367253     -6.74068500242887      0.00027980126949
H   -4.60067436136587      5.51237839860371      0.00002010017831
H   -5.83527902699321     -3.36928859177951     -0.00451481925734
H   -2.47329986759855     -6.74067870613986     -0.00016951527498
H   -7.07385728692578      1.22822084484047     -0.00046143985387
H   -4.60067330624313     -5.51236229778631      0.00021776644566
H   -7.07385645456741     -1.22822025997701     -0.00017736581114

    units angstrom      # Angstroms are the default
    no_reorient         # Geometry fixed, default
    symmetry c1         # C1 symmetry, default
}

set {
    scf_type DF         # Density fitting, faster than exact integrals
    freeze_core True    # Freeze core electrons
    basis jun-cc-pVDZ   # Jun-cc-pVDZ basis set, recommended for sSAPT0 in https://doi.org/10.1063/1.4867135
}

energy('ssapt0')        # Compute sSAPT0 energy, includes also SAPT0
--------------------------------------------------------------------------

  //              Dimer HF             //
    Molecular point group: c1
  Charge       = 1
  Multiplicity = 1
  Basis Set: JUN-CC-PVDZ
    Blend: JUN-CC-PVDZ
  Basis Set: (JUN-CC-PVDZ AUX)
    Blend: JUN-CC-PVDZ-JKFIT
  @DF-RHF Final Energy: -2359.20579029540795
    Total Energy =                      -2359.2057902954074962
 Dipole X            :          0.0034207            0.0006313            0.0040520
 Dipole Y            :         -1.6074174            1.8864948            0.2790775
 Dipole Z            :        -13.6922543           17.6672042            3.9749499
 Magnitude           :                                                    3.9847368
  //            Monomer A HF           //
    Molecular point group: c1
  Multiplicity = 1
  Basis Set: JUN-CC-PVDZ
    Blend: JUN-CC-PVDZ
  Basis Set: (JUN-CC-PVDZ AUX)
    Blend: JUN-CC-PVDZ-JKFIT
  @DF-RHF Final Energy:  -303.29909180973260
    Total Energy =                       -303.2990918097326016
  //            Monomer B HF           //
    Molecular point group: c1

    Geometry (in Angstrom), charge = 0, multiplicity = 1:

       Center              X                  Y                   Z               Mass
    ------------   -----------------  -----------------  -----------------  -----------------
      Gh(C)           0.680066520158    -1.215933861162     2.975585041632    12.000000000000
      Gh(C)          -0.680504479842    -1.215549861162     2.973557041632    12.000000000000
      Gh(N)          -1.085635479842     0.102774138838     2.972559041632    14.003074004430
      Gh(C)           0.000107520158     0.884175138838     2.969283041632    12.000000000000
      Gh(C)          -2.477365479842     0.570753138838     2.923153041632    12.000000000000
      Gh(N)           1.085221520158     0.102774138838     2.972559041632    14.003074004430
      Gh(H)           1.385145520158    -2.033372861162     2.983413041632     1.007825032230
      Gh(H)          -1.385302479842    -2.033218861162     2.973747041632     1.007825032230
      Gh(H)          -0.000009479842     1.965264138838     2.967536041632     1.007825032230
      Gh(C)           2.478116520158     0.567872138838     2.989451041632    12.000000000000
      Gh(H)           2.490591520158     1.658125138838     2.962106041632     1.007825032230
      Gh(H)           2.967027520158     0.220696138838     3.902897041632     1.007825032230
      Gh(H)           3.001427520158     0.176400138838     2.113968041632     1.007825032230
      Gh(H)          -2.857359479842     0.490794138838     1.901082041632     1.007825032230
      Gh(H)          -3.082679479842    -0.042310861162     3.593237041632     1.007825032230
      Gh(H)          -2.518128479842     1.610701138838     3.250137041632     1.007825032230
         C            1.225311895423     0.707533799757    -0.426319331084    12.000000000000
         C            1.225323856051    -0.707543383733    -0.438650140655    12.000000000000
         C           -0.000006153932     1.414961424928    -0.439183764176    12.000000000000
         C            2.456448753949     1.418323398016    -0.423432473685    12.000000000000
         C            0.000010827279    -1.414980987797    -0.428984206851    12.000000000000
         C           -1.225300948908     0.707540884822    -0.424067810762    12.000000000000
         C            2.456437755320    -1.418327793043    -0.440895297512    12.000000000000
         C           -0.000001332978     2.836796542119    -0.441587314310    12.000000000000
         C            3.681826697470     0.709313466839    -0.440546507714    12.000000000000
         C            2.455120048865     2.834219172327    -0.440649064674    12.000000000000
         C            3.681821105219    -0.709338328591    -0.424474023695    12.000000000000
         C           -1.225313598688    -0.707532004706    -0.437577379228    12.000000000000
         C            1.226699581202     3.543464994832    -0.424289991765    12.000000000000
         C            0.000004784858    -2.836786628398    -0.424136039229    12.000000000000
         C           -2.456436032848     1.418312429123    -0.424032414916    12.000000000000
         C            2.455123417779    -2.834234517751    -0.424625932063    12.000000000000
         C           -1.226714364589     3.543464574588    -0.424186658545    12.000000000000
         C            4.914517295202     1.427168383327    -0.434065824684    12.000000000000
         C            3.693150191476     3.542790803383    -0.434016025048    12.000000000000
         C           -2.456437600068    -1.418317770001    -0.440920335636    12.000000000000
         C            1.226704841943    -3.543478731069    -0.440260122514    12.000000000000
         C           -2.455125398508     2.834212173472    -0.440642688328    12.000000000000
         C            4.914524380782    -1.427191399106    -0.431093081950    12.000000000000
         C            1.221424613699     4.970129576098    -0.430954647690    12.000000000000
         C            4.893008229321     2.825183510864    -0.432849156326    12.000000000000
         C           -1.226697008489    -3.543475486239    -0.439992918105    12.000000000000
         C           -3.681818976526     0.709320477570    -0.440533827234    12.000000000000
         C            3.693147101150    -3.542805830553    -0.430975191389    12.000000000000
         C           -1.221432251994     4.970123808701    -0.430771152317    12.000000000000
         C            6.134770972926     0.680543457943    -0.433296050134    12.000000000000
         C            3.656788880610     4.972948754405    -0.433107387265    12.000000000000
         C           -2.455126907733    -2.834219582223    -0.424870289861    12.000000000000
         C           -3.681819179061    -0.709330192631    -0.424356402117    12.000000000000
         C            4.893012617914    -2.825204594794    -0.432238004430    12.000000000000
         C           -0.000001073113     5.650442876870    -0.432002461024    12.000000000000
         C            6.134775112332    -0.680559343237    -0.432030729619    12.000000000000
         C            2.478131482856     5.653572262169    -0.431818607616    12.000000000000
         C            1.221422404738    -4.970131544095    -0.433754144713    12.000000000000
         C           -3.693162383965     3.542792465030    -0.433850517589    12.000000000000
         C           -1.221428520945    -4.970122792758    -0.433866906545    12.000000000000
         C           -4.914521807942     1.427170957833    -0.433988879677    12.000000000000
         C            3.656787019679    -4.972959715401    -0.431656886731    12.000000000000
         C           -2.478138530106     5.653569933366    -0.431534082607    12.000000000000
         C           -3.693141738564    -3.542794708141    -0.431091317545    12.000000000000
         C           -4.914512483053    -1.427185489190    -0.431058384776    12.000000000000
         C           -0.000006008926    -5.650442776176    -0.432397965145    12.000000000000
         C           -4.893020484101     2.825184109757    -0.432859238186    12.000000000000
         C            2.478125993298    -5.653578033051    -0.432747487524    12.000000000000
         C           -3.656798710258     4.972951692879    -0.432930706891    12.000000000000
         C           -4.892999478856    -2.825196256222    -0.432392040128    12.000000000000
         C           -2.478128498083    -5.653570659169    -0.433022675171    12.000000000000
         C           -6.134770503331     0.680544277094    -0.433321601837    12.000000000000
         C           -3.656788833189    -4.972948512133    -0.431871174548    12.000000000000
         C           -6.134765042913    -0.680558404644    -0.432051205414    12.000000000000
         H            5.835288495816     3.369271405792    -0.428489830663     1.007825032230
         H            7.073859172747     1.228212759737    -0.432834406741     1.007825032230
         H            4.600663264174     5.512376313291    -0.432602186513     1.007825032230
         H            5.835283387305    -3.369310545891    -0.436692471745     1.007825032230
         H           -0.000012151306     6.738526184974    -0.436351706032     1.007825032230
         H            7.073861171831    -1.228231431906    -0.432539467713     1.007825032230
         H            2.473313731799     6.740679802232    -0.432285328546     1.007825032230
         H            4.600668491381    -5.512380618338    -0.432066883900     1.007825032230
         H           -2.473318680537     6.740677230444    -0.431983981921     1.007825032230
         H           -0.000010268228    -6.738532665614    -0.427868280161     1.007825032230
         H           -5.835301914343     3.369266461134    -0.428353808515     1.007825032230
         H            2.473307923831    -6.740689863591    -0.432177157099     1.007825032230
         H           -4.600674841208     5.512373537441    -0.432436858190     1.007825032230
         H           -5.835279506835    -3.369293452942    -0.436971777625     1.007825032230
         H           -2.473300347440    -6.740683567302    -0.432626473643     1.007825032230
         H           -7.073857766768     1.228215983678    -0.432918398222     1.007825032230
         H           -4.600673786085    -5.512367158949    -0.432239191922     1.007825032230
         H           -7.073856934409    -1.228225121139    -0.432634324179     1.007825032230

  Charge       = 0
  Multiplicity = 1
  Basis Set: JUN-CC-PVDZ
    Blend: JUN-CC-PVDZ
  Basis Set: (JUN-CC-PVDZ AUX)
    Blend: JUN-CC-PVDZ-JKFIT

    Orbital Energies [Eh]
    ---------------------

    Doubly Occupied:

       1A    -11.260643     2A    -11.260208     3A    -11.260172
       4A    -11.259456     5A    -11.259414     6A    -11.259246
       7A    -11.258990     8A    -11.258937     9A    -11.258893
      10A    -11.258579    11A    -11.258567    12A    -11.258426
      13A    -11.258373    14A    -11.258370    15A    -11.258364
      16A    -11.258336    17A    -11.258318    18A    -11.258310
      19A    -11.258302    20A    -11.258295    21A    -11.258288
      22A    -11.258257    23A    -11.258248    24A    -11.258050
      25A    -11.257246    26A    -11.257208    27A    -11.257163
      28A    -11.257074    29A    -11.257034    30A    -11.256973
      31A    -11.256349    32A    -11.256304    33A    -11.256251
      34A    -11.256187    35A    -11.256142    36A    -11.256113
      37A    -11.252172    38A    -11.252171    39A    -11.252168
      40A    -11.252165    41A    -11.252142    42A    -11.252126
      43A    -11.251265    44A    -11.251252    45A    -11.251245
      46A    -11.251238    47A    -11.251236    48A    -11.251225
      49A    -11.250733    50A    -11.250732    51A    -11.250729
      52A    -11.250726    53A    -11.250704    54A    -11.250687
      55A     -1.243838    56A     -1.219615    57A     -1.219588
      58A     -1.189346    59A     -1.189332    60A     -1.180733
      61A     -1.157377    62A     -1.148779    63A     -1.135292
      64A     -1.135264    65A     -1.113009    66A     -1.113005
      67A     -1.082223    68A     -1.082210    69A     -1.078392
      70A     -1.065804    71A     -1.065794    72A     -1.039204
      73A     -1.024043    74A     -1.021553    75A     -1.021492
      76A     -1.017543    77A     -1.012623    78A     -0.986817
      79A     -0.986756    80A     -0.961696    81A     -0.961638
      82A     -0.894093    83A     -0.894072    84A     -0.887695
      85A     -0.885940    86A     -0.885900    87A     -0.881167
      88A     -0.881123    89A     -0.861708    90A     -0.837242
      91A     -0.817998    92A     -0.816380    93A     -0.811913
      94A     -0.811909    95A     -0.794504    96A     -0.794492
      97A     -0.746379    98A     -0.744635    99A     -0.733190
     100A     -0.733176   101A     -0.731985   102A     -0.731968
     103A     -0.716284   104A     -0.698785   105A     -0.698748
     106A     -0.693382   107A     -0.693336   108A     -0.661036
     109A     -0.652891   110A     -0.650915   111A     -0.650070
     112A     -0.650062   113A     -0.639168   114A     -0.639146
     115A     -0.629492   116A     -0.627296   117A     -0.627286
     118A     -0.606431   119A     -0.605661   120A     -0.601429
     121A     -0.599548   122A     -0.599479   123A     -0.593407
     124A     -0.590977   125A     -0.590943   126A     -0.585109
     127A     -0.576396   128A     -0.576330   129A     -0.567146
     130A     -0.567124   131A     -0.565727   132A     -0.565721
     133A     -0.558493   134A     -0.554658   135A     -0.554646
     136A     -0.538404   137A     -0.538400   138A     -0.538154
     139A     -0.538148   140A     -0.529507   141A     -0.528111
     142A     -0.522679   143A     -0.522642   144A     -0.500313
     145A     -0.495525   146A     -0.493035   147A     -0.487750
     148A     -0.484842   149A     -0.481535   150A     -0.481534
     151A     -0.470263   152A     -0.470260   153A     -0.450764
     154A     -0.450700   155A     -0.438967   156A     -0.438960
     157A     -0.404652   158A     -0.404627   159A     -0.403275
     160A     -0.375308   161A     -0.375303   162A     -0.349019
     163A     -0.337531   164A     -0.336478   165A     -0.336432
     166A     -0.310967   167A     -0.297982   168A     -0.284230
     169A     -0.284184   170A     -0.224792   171A     -0.224739

  @DF-RHF Final Energy: -2055.89601004821861

   => Energetics <=

    Nuclear Repulsion Energy =           6452.5568002797772351
    One-Electron Energy =              -15636.5388319831581612
    Two-Electron Energy =                7128.0860216551627673
    Total Energy =                      -2055.8960100482181588
 Dipole X            :          0.0002075           -0.0000085            0.0001990
 Dipole Y            :          0.0028136           -0.0028843           -0.0000707
 Dipole Z            :        279.4893148         -279.4924656           -0.0031508
 Magnitude           :                                                    0.0031579

    SAPT Results
  --------------------------------------------------------------------------------------------------------
    Electrostatics                -22.86168530 [mEh]     -14.34592411 [kcal/mol]     -60.02334648 [kJ/mol]
      Elst10,r                    -22.86168530 [mEh]     -14.34592411 [kcal/mol]     -60.02334648 [kJ/mol]

    Exchange                       26.67706829 [mEh]      16.74011308 [kcal/mol]      70.04063313 [kJ/mol]
      Exch10                       26.67706829 [mEh]      16.74011308 [kcal/mol]      70.04063313 [kJ/mol]
      Exch10(S^2)                  26.59512649 [mEh]      16.68869383 [kcal/mol]      69.82549498 [kJ/mol]

    Induction                     -14.50382044 [mEh]      -9.10128473 [kcal/mol]     -38.07977533 [kJ/mol]
      Ind20,r                     -20.26916464 [mEh]     -12.71909284 [kcal/mol]     -53.21668444 [kJ/mol]
      Exch-Ind20,r                  8.44694297 [mEh]       5.30053674 [kcal/mol]      22.17744570 [kJ/mol]
      delta HF,r (2)               -2.68159877 [mEh]      -1.68272863 [kcal/mol]      -7.04053659 [kJ/mol]

    Dispersion                    -36.09527949 [mEh]     -22.65012984 [kcal/mol]     -94.76814326 [kJ/mol]
      Disp20                      -39.10857166 [mEh]     -24.54099922 [kcal/mol]    -102.67954074 [kJ/mol]
      Exch-Disp20                   3.01329216 [mEh]       1.89086938 [kcal/mol]       7.91139748 [kJ/mol]
      Disp20 (SS)                 -19.55428583 [mEh]     -12.27049961 [kcal/mol]     -51.33977037 [kJ/mol]
      Disp20 (OS)                 -19.55428583 [mEh]     -12.27049961 [kcal/mol]     -51.33977037 [kJ/mol]
      Exch-Disp20 (SS)              1.82774869 [mEh]       1.14692962 [kcal/mol]       4.79875351 [kJ/mol]
      Exch-Disp20 (OS)              1.18554348 [mEh]       0.74393976 [kcal/mol]       3.11264397 [kJ/mol]

  Total HF                        -10.68843746 [mEh]      -6.70709576 [kcal/mol]     -28.06248868 [kJ/mol]
  Total SAPT0                     -46.78371695 [mEh]     -29.35722561 [kcal/mol]    -122.83063193 [kJ/mol]

  Special recipe for scaled SAPT0 (see Manual):
    Electrostatics sSAPT0         -22.86168530 [mEh]     -14.34592411 [kcal/mol]     -60.02334648 [kJ/mol]
    Exchange sSAPT0                26.67706829 [mEh]      16.74011308 [kcal/mol]      70.04063313 [kJ/mol]
    Induction sSAPT0              -14.42550244 [mEh]      -9.05213944 [kcal/mol]     -37.87415143 [kJ/mol]
    Dispersion sSAPT0             -36.06734098 [mEh]     -22.63259816 [kcal/mol]     -94.69479070 [kJ/mol]
  Total sSAPT0                    -46.67746043 [mEh]     -29.29054863 [kcal/mol]    -122.55165547 [kJ/mol]
  --------------------------------------------------------------------------------------------------------

*** Psi4 exiting successfully. Buy a developer a beer!
