                               Psi4 1.9 release

  ==> Input File <==

--------------------------------------------------------------------------
memory 64 GB # how much memory is available ! Depends on the nodes/cores !

molecule dimer {
# monomer A
-1 1    # Charge and multiplicity
B -0.000046  0.000337 5.199994
F -1.153597  0.000048 6.015641
F  1.153661 -0.000581 6.015641
F -0.000019 -1.153637 4.384360
F -0.000019  1.153978 4.384360
--
# monomer B
0 1     # Charge and multiplicity
C   -3.66844126402057      7.80375217008252      0.00190004133558
C   -4.84759871934653      7.13124183134024     -0.00046653359696
C   -4.89495929917518      5.69633040353158     -0.00103944469517
C   -3.65374067877320      4.98073034095895      0.00662099703436
C   -2.40942512149445      7.11398103667468      0.00209438359570
C   -2.42547734410473      5.68112195090346     -0.00491050527438
C   -1.19474401643570      7.78614419430947      0.00356656413763
C   0.03795902893699      7.09942164575698      0.00139585983271
C   0.03033258741920      5.66948955970466     -0.00408752508301
C   -1.20098450790502      4.96927034791531      0.00488220885047
C   1.27795782581485      7.77285944319479      0.00277170839332
C   2.48535808472416      7.08769688523756      0.00049722048857
C   2.48612868491717      5.65477081024076     -0.00644052849921
C   1.25408291964399      4.95607811366431      0.00518741308898
C   3.75171459140595      7.76391215098033      0.00062407186893
C   4.92356605618520      7.07878077698995     -0.00143240883900
C   4.95560727132542      5.64344746336949     -0.00159282164606
C   3.70680153420475      4.94121020833308      0.00349873852374
H   -3.65852113775815      8.89082741913536      0.00358502958574
H   -1.18921332975660      8.87412108735996      0.00753844057883
H   1.28429423888630      8.86083343548850      0.00693053253426
H   3.75354208679975      8.85103527897216      0.00214659618464
H   5.86995870320703      7.61379483465560     -0.00235777588134
H   -5.78823170750226      7.67630221293400     -0.00202638095293
C   -6.09197395869619      4.99326001364347     -0.00291168518608
C   -6.12866148031747      3.58258016879823     -0.00171050815740
C   -3.66457974004527      3.56418217974434     -0.00463560277484
C   -4.89429820469869      2.86108077590057      0.00453338221034
C   -2.43733499489796      2.84761165708481      0.00719617576166
C   -1.20922785759670      3.54788693497833     -0.00648285103018
C   1.24714157216223      3.53468075142962     -0.00729145743546
C   0.01517603956900      2.83311183930540      0.00439272578912
C   2.46764517244071      2.82128997725533      0.00449278391269
C   3.70254947457969      3.52466015442405     -0.00899517692985
C   6.14498038638375      4.92757236613191     -0.00282626685777
C   6.16658835886151      3.51658447594213     -0.00065971342101
C   4.92460995845939      2.80840792535402      0.00587903281610
H   7.08990550964105      5.46688776622306     -0.00658814770723
H   -7.03104175110130      5.54268795285765     -0.00714490013730
C   -7.33969804112295      2.85841153457957     -0.00333767559888
C   -7.36488195805880      1.47032337158330     -0.00157213747140
C   -4.90350460894690      1.44442681216000     -0.00628840166334
C   -6.13225715261081      0.73993935705394      0.00600164231964
C   -3.67687480051673      0.72669714267312      0.00433931473643
C   -2.44565658606518      1.42964113326212     -0.00597039546461
C   -1.22360068130162      0.71532450163492      0.00545886906656
C   0.00763786931376      1.41738314923765      0.00392452278437
C   1.23121980774686      0.70211669058719     -0.01490206287210
C   2.46082110053113      1.40329203612573      0.00460244601878
C   3.68443025419614      0.68719842821222      0.00377365974158
C   4.91870890153864      1.39173456118907     -0.00862816189375
C   7.36980207796101      2.77948220318441     -0.00242013321349
C   7.38016266612146      1.39121750785509     -0.00087345036788
C   6.13979953912259      0.67411862320065      0.00545489144369
H   -8.27919079934664      3.40711804112415     -0.00763522772059
H   8.31511347147953      3.31811809662368     -0.00663070901292
C   -8.59175593758115      0.72483255304480     -0.00123170985383
C   -8.59902460370342     -0.63263980622873      0.00089141472904
C   -6.13981313911873     -0.67413663715361     -0.00609792660607
C   -7.38018411213749     -1.39126618958160      0.00131813493501
C   -4.91868448025621     -1.39175501803000      0.00624257154343
C   -3.68443829568458     -0.68723731573599     -0.00478966852105
C   -2.46081704024768     -1.40334517882457      0.00575341766833
C   -1.23116201232071     -0.70217386488055     -0.00636696112346
C   -0.00756962538737     -1.41741884941102      0.00108956317991
C   1.22364771588843     -0.71527537726392      0.01109518512883
C   2.44567064933149     -1.42964328900682     -0.00065482763106
C   3.67686670284649     -0.72670743155550     -0.00479541202602
C   6.13224884641929     -0.73997883984993     -0.00632338623858
C   4.90351914550401     -1.44445752054090      0.00751768830159
C   8.59901484869081      0.63260386666793     -0.00101133422380
C   8.59174548810050     -0.72485086719319      0.00072504603735
C   7.36486276438985     -1.47033266560598      0.00049486934466
H   -9.52830597181814      1.27684744919284     -0.00270163681798
H   9.54141097460619      1.17457248844457     -0.00206336648518
C   -7.36983790976868     -2.77954514593389      0.00312634335708
C   -4.92459910905015     -2.80843725734101     -0.00460528907921
C   -6.16662249566744     -3.51665219282533      0.00169655107992
C   -3.70251035970491     -3.52468154912026      0.00571878010666
C   -2.46764698511392     -2.82132596280400     -0.00632585824990
C   -0.01513347410770     -2.83314164539971     -0.00604426974092
C   -1.24712184122656     -3.53473217556300      0.00551968366725
C   1.20924506964357     -3.54791467864352      0.00805871345849
C   2.43733602215464     -2.84764173817541     -0.00608104485234
C   4.89430234377080     -2.86112296828604     -0.00526030478103
C   3.66461525504104     -3.56421984553201      0.00761911515957
C   6.12863901474565     -3.58258405771778      0.00096495711699
C   7.33967266469532     -2.85841330737039      0.00248018319869
H   -9.54144911125902     -1.17456346666430      0.00226083090216
H   9.52826186807155     -1.27691907390448      0.00197485379837
H   -8.31516504384864     -3.31814985321231      0.00729857188773
H   8.27915514249207     -3.40714078989363      0.00681973918158
C   -6.14499418870218     -4.92764727278338      0.00302254913999
C   -3.70678334799751     -4.94126171411716     -0.00679841894792
C   -4.95559005800169     -5.64349397349412      0.00116871569699
C   -2.48612132622665     -5.65478557440947      0.00614125209662
C   -1.25405833548005     -4.95612205000132     -0.00503435388927
C   1.20101257386816     -4.96928038819302     -0.00385322963129
C   -0.03033667441341     -5.66952030313900      0.00398997003238
C   3.65375010132847     -4.98074377541453     -0.00309522988330
C   2.42549269587528     -5.68117463552727      0.00628170066869
C   6.09196561781097     -4.99325796338655      0.00325918379042
C   4.89497644461045     -5.69634842095790      0.00202298796027
H   -7.08989238804069     -5.46699984223871      0.00742531082125
H   7.03105520920009     -5.54265853633254      0.00683896355417
C   -4.92354532219813     -7.07882109967734      0.00061394679214
C   -2.48534208823777     -7.08772807792913     -0.00189594564379
C   -3.75168589177895     -7.76394715763627     -0.00170126671874
C   -0.03794895698805     -7.09946487446944     -0.00168022049625
C   -1.27795610040136     -7.77290438466689     -0.00366491325785
C   2.40944432072629     -7.11402201200282     -0.00081701968533
C   1.19474993715296     -7.78618536556242     -0.00296931056689
C   4.84762105249800     -7.13126211057943      0.00168979497423
C   3.66847160587561     -7.80378799294376     -0.00065863938960
H   -5.86994035041618     -7.61383059804164      0.00215798365757
H   5.78824962538815     -7.67633218931421      0.00281691445618
H   -3.75352693944918     -8.85107156923607     -0.00353718114765
H   -1.28430440589466     -8.86087539249706     -0.00809229711623
H   1.18922157469537     -8.87416062058945     -0.00706194725726
H   3.65854661482387     -8.89086063405326     -0.00231318081200

    units angstrom      # Angstroms are the default
    no_reorient         # Geometry fixed, default
    symmetry c1         # C1 symmetry, default
}

set {
    scf_type DF         # Density fitting, faster than exact integrals
    freeze_core True    # Freeze core electrons
    basis jun-cc-pVDZ   # Jun-cc-pVDZ basis set, recommended for sSAPT0 in https://doi.org/10.1063/1.4867135
}

energy('ssapt0')        # Compute sSAPT0 energy, includes also SAPT0
--------------------------------------------------------------------------

  //              Dimer HF             //
    Molecular point group: c1
  Charge       = -1
  Multiplicity = 1
  Basis Set: JUN-CC-PVDZ
    Blend: JUN-CC-PVDZ
  Basis Set: (JUN-CC-PVDZ AUX)
    Blend: JUN-CC-PVDZ-JKFIT
  @DF-RHF Final Energy: -4073.10732822809859
    Total Energy =                      -4073.1073282280995045
 Dipole X            :          0.0002999           -0.0001188            0.0001810
 Dipole Y            :          0.0012686           -0.0002727            0.0009959
 Dipole Z            :         23.0290402          -30.9463242           -7.9172841
 Magnitude           :                                                    7.9172841
  //            Monomer A HF           //
    Molecular point group: c1
  Multiplicity = 1
  Basis Set: JUN-CC-PVDZ
    Blend: JUN-CC-PVDZ
  Basis Set: (JUN-CC-PVDZ AUX)
    Blend: JUN-CC-PVDZ-JKFIT
  @DF-RHF Final Energy:  -422.77196862983311
    Total Energy =                       -422.7719686298331112
  //            Monomer B HF           //
    Molecular point group: c1

    Geometry (in Angstrom), charge = 0, multiplicity = 1:

       Center              X                  Y                   Z               Mass
    ------------   -----------------  -----------------  -----------------  -----------------
      Gh(B)          -0.000050191042     0.000351518223     4.841838192738    11.009305360000
      Gh(F)          -1.153601191042     0.000062518223     5.657485192738    18.998403162730
      Gh(F)           1.153656808958    -0.000566481777     5.657485192738    18.998403162730
      Gh(F)          -0.000023191042    -1.153622481777     4.026204192738    18.998403162730
      Gh(F)          -0.000023191042     1.153992518223     4.026204192738    18.998403162730
         C           -3.668445455062     7.803766688305    -0.356255765926    12.000000000000
         C           -4.847602910388     7.131256349563    -0.358622340859    12.000000000000
         C           -4.894963490217     5.696344921754    -0.359195251957    12.000000000000
         C           -3.653744869815     4.980744859182    -0.351534810227    12.000000000000
         C           -2.409429312536     7.113995554897    -0.356061423666    12.000000000000
         C           -2.425481535146     5.681136469126    -0.363066312536    12.000000000000
         C           -1.194748207477     7.786158712532    -0.354589243124    12.000000000000
         C            0.037954837895     7.099436163980    -0.356759947429    12.000000000000
         C            0.030328396378     5.669504077927    -0.362243332345    12.000000000000
         C           -1.200988698947     4.969284866138    -0.353273598411    12.000000000000
         C            1.277953634773     7.772873961417    -0.355384098868    12.000000000000
         C            2.485353893683     7.087711403460    -0.357658586773    12.000000000000
         C            2.486124493876     5.654785328463    -0.364596335761    12.000000000000
         C            1.254078728602     4.956092631887    -0.352968394173    12.000000000000
         C            3.751710400364     7.763926669203    -0.357531735393    12.000000000000
         C            4.923561865144     7.078795295213    -0.359588216101    12.000000000000
         C            4.955603080284     5.643461981592    -0.359748628908    12.000000000000
         C            3.706797343163     4.941224726556    -0.354657068738    12.000000000000
         H           -3.658525328800     8.890841937358    -0.354570777676     1.007825032230
         H           -1.189217520798     8.874135605583    -0.350617366683     1.007825032230
         H            1.284290047845     8.860847953711    -0.351225274727     1.007825032230
         H            3.753537895758     8.851049797195    -0.356009211077     1.007825032230
         H            5.869954512165     7.613809352878    -0.360513583143     1.007825032230
         H           -5.788235898544     7.676316731157    -0.360182188215     1.007825032230
         C           -6.091978149738     4.993274531866    -0.361067492448    12.000000000000
         C           -6.128665671359     3.582594687021    -0.359866315419    12.000000000000
         C           -3.664583931087     3.564196697967    -0.362791410036    12.000000000000
         C           -4.894302395740     2.861095294123    -0.353622425051    12.000000000000
         C           -2.437339185940     2.847626175307    -0.350959631500    12.000000000000
         C           -1.209232048638     3.547901453201    -0.364638658292    12.000000000000
         C            1.247137381121     3.534695269652    -0.365447264697    12.000000000000
         C            0.015171848527     2.833126357528    -0.353763081473    12.000000000000
         C            2.467640981399     2.821304495478    -0.353663023349    12.000000000000
         C            3.702545283538     3.524674672647    -0.367150984192    12.000000000000
         C            6.144976195342     4.927586884354    -0.360982074119    12.000000000000
         C            6.166584167820     3.516598994165    -0.358815520683    12.000000000000
         C            4.924605767418     2.808422443577    -0.352276774446    12.000000000000
         H            7.089901318599     5.466902284446    -0.364743954969     1.007825032230
         H           -7.031045942143     5.542702471080    -0.365300707399     1.007825032230
         C           -7.339702232165     2.858426052802    -0.361493482861    12.000000000000
         C           -7.364886149100     1.470337889806    -0.359727944733    12.000000000000
         C           -4.903508799989     1.444441330383    -0.364444208925    12.000000000000
         C           -6.132261343652     0.739953875277    -0.352154164942    12.000000000000
         C           -3.676878991558     0.726711660896    -0.353816492525    12.000000000000
         C           -2.445660777107     1.429655651485    -0.364126202726    12.000000000000
         C           -1.223604872343     0.715339019858    -0.352696938195    12.000000000000
         C            0.007633678272     1.417397667460    -0.354231284477    12.000000000000
         C            1.231215616705     0.702131208810    -0.373057870134    12.000000000000
         C            2.460816909489     1.403306554348    -0.353553361243    12.000000000000
         C            3.684426063155     0.687212946435    -0.354382147520    12.000000000000
         C            4.918704710497     1.391749079412    -0.366783969155    12.000000000000
         C            7.369797886919     2.779496721407    -0.360575940475    12.000000000000
         C            7.380158475080     1.391232026078    -0.359029257630    12.000000000000
         C            6.139795348081     0.674133141423    -0.352700915818    12.000000000000
         H           -8.279194990388     3.407132559347    -0.365791034982     1.007825032230
         H            8.315109280438     3.318132614846    -0.364786516275     1.007825032230
         C           -8.591760128623     0.724847071267    -0.359387517115    12.000000000000
         C           -8.599028794745    -0.632625288006    -0.357264392533    12.000000000000
         C           -6.139817330160    -0.674122118931    -0.364253733868    12.000000000000
         C           -7.380188303179    -1.391251671359    -0.356837672327    12.000000000000
         C           -4.918688671298    -1.391740499807    -0.351913235718    12.000000000000
         C           -3.684442486726    -0.687222797513    -0.362945475783    12.000000000000
         C           -2.460821231289    -1.403330660602    -0.352402389593    12.000000000000
         C           -1.231166203362    -0.702159346658    -0.364522768385    12.000000000000
         C           -0.007573816429    -1.417404331188    -0.357066244082    12.000000000000
         C            1.223643524847    -0.715260859041    -0.347060622133    12.000000000000
         C            2.445666458290    -1.429628770784    -0.358810634893    12.000000000000
         C            3.676862511805    -0.726692913333    -0.362951219288    12.000000000000
         C            6.132244655378    -0.739964321627    -0.364479193500    12.000000000000
         C            4.903514954462    -1.444443002318    -0.350638118960    12.000000000000
         C            8.599010657649     0.632618384891    -0.359167141485    12.000000000000
         C            8.591741297059    -0.724836348971    -0.357430761224    12.000000000000
         C            7.364858573348    -1.470318147383    -0.357660937917    12.000000000000
         H           -9.528310162860     1.276861967415    -0.360857444080     1.007825032230
         H            9.541406783565     1.174587006667    -0.360219173747     1.007825032230
         C           -7.369842100810    -2.779530627711    -0.355029463905    12.000000000000
         C           -4.924603300092    -2.808422739118    -0.362761096341    12.000000000000
         C           -6.166626686709    -3.516637674603    -0.356459256182    12.000000000000
         C           -3.702514550747    -3.524667030898    -0.352437027155    12.000000000000
         C           -2.467651176156    -2.821311444581    -0.364481665512    12.000000000000
         C           -0.015137665149    -2.833127127177    -0.364200077003    12.000000000000
         C           -1.247126032268    -3.534717657340    -0.352636123594    12.000000000000
         C            1.209240878602    -3.547900160421    -0.350097093803    12.000000000000
         C            2.437331831113    -2.847627219953    -0.364236852114    12.000000000000
         C            4.894298152729    -2.861108450063    -0.363416112043    12.000000000000
         C            3.664611063999    -3.564205327309    -0.350536692102    12.000000000000
         C            6.128634823704    -3.582569539495    -0.357190850145    12.000000000000
         C            7.339668473654    -2.858398789148    -0.355675624063    12.000000000000
         H           -9.541453302301    -1.174548948442    -0.355894976359     1.007825032230
         H            9.528257677030    -1.276904555682    -0.356180953463     1.007825032230
         H           -8.315169234890    -3.318135334990    -0.350857235374     1.007825032230
         H            8.279150951450    -3.407126271671    -0.351336068080     1.007825032230
         C           -6.144998379744    -4.927632754561    -0.355133258122    12.000000000000
         C           -3.706787539039    -4.941247195895    -0.364954226210    12.000000000000
         C           -4.955594249043    -5.643479455272    -0.356987091565    12.000000000000
         C           -2.486125517268    -5.654771056187    -0.352014555165    12.000000000000
         C           -1.254062526522    -4.956107531779    -0.363190161151    12.000000000000
         C            1.201008382827    -4.969265869970    -0.362009036893    12.000000000000
         C           -0.030340865455    -5.669505784916    -0.354165837229    12.000000000000
         C            3.653745910287    -4.980729257192    -0.361251037145    12.000000000000
         C            2.425488504834    -5.681160117305    -0.351874106593    12.000000000000
         C            6.091961426769    -4.993243445164    -0.354896623471    12.000000000000
         C            4.894972253569    -5.696333902735    -0.356132819301    12.000000000000
         H           -7.089896579082    -5.466985324016    -0.350730496440     1.007825032230
         H            7.031051018158    -5.542644018110    -0.351316843707     1.007825032230
         C           -4.923549513240    -7.078806581455    -0.357541860470    12.000000000000
         C           -2.485346279279    -7.087713559707    -0.360051752905    12.000000000000
         C           -3.751690082821    -7.763932639414    -0.359857073980    12.000000000000
         C           -0.037953148030    -7.099450356247    -0.359836027758    12.000000000000
         C           -1.277960291443    -7.772889866444    -0.361820720520    12.000000000000
         C            2.409440129685    -7.114007493780    -0.358972826947    12.000000000000
         C            1.194745746111    -7.786170847340    -0.361125117829    12.000000000000
         C            4.847616861456    -7.131247592357    -0.356466012287    12.000000000000
         C            3.668467414834    -7.803773474721    -0.358814446651    12.000000000000
         H           -5.869944541458    -7.613816079819    -0.355997823604     1.007825032230
         H            5.788245434347    -7.676317671092    -0.355338892805     1.007825032230
         H           -3.753531130491    -8.851057051013    -0.361692988409     1.007825032230
         H           -1.284308596936    -8.860860874274    -0.366248104378     1.007825032230
         H            1.189217383654    -8.874146102367    -0.365217754519     1.007825032230
         H            3.658542423782    -8.890846115831    -0.360468988074     1.007825032230

  Charge       = 0
  Multiplicity = 1
  Basis Set: JUN-CC-PVDZ
    Blend: JUN-CC-PVDZ
  Basis Set: (JUN-CC-PVDZ AUX)
    Blend: JUN-CC-PVDZ-JKFIT

    Orbital Energies [Eh]
    ---------------------

    Doubly Occupied:

       1A    -11.264037     2A    -11.263726     3A    -11.263688
       4A    -11.263356     5A    -11.263332     6A    -11.263307
       7A    -11.263152     8A    -11.263145     9A    -11.263123
      10A    -11.262951    11A    -11.262804    12A    -11.262795
      13A    -11.262320    14A    -11.262312    15A    -11.262260
      16A    -11.262249    17A    -11.262187    18A    -11.262162
      19A    -11.262118    20A    -11.262083    21A    -11.262074
      22A    -11.261945    23A    -11.261926    24A    -11.261807
      25A    -11.261793    26A    -11.261782    27A    -11.261771
      28A    -11.261732    29A    -11.261719    30A    -11.261640
      31A    -11.261616    32A    -11.261612    33A    -11.261586
      34A    -11.261583    35A    -11.261562    36A    -11.261538
      37A    -11.261384    38A    -11.261374    39A    -11.261368
      40A    -11.261361    41A    -11.261357    42A    -11.261349
      43A    -11.261341    44A    -11.261324    45A    -11.261320
      46A    -11.261296    47A    -11.261294    48A    -11.261289
      49A    -11.261122    50A    -11.261089    51A    -11.261086
      52A    -11.261009    53A    -11.261001    54A    -11.260937
      55A    -11.259979    56A    -11.259966    57A    -11.259963
      58A    -11.259935    59A    -11.259931    60A    -11.259916
      61A    -11.259353    62A    -11.259328    63A    -11.259325
      64A    -11.259273    65A    -11.259270    66A    -11.259241
      67A    -11.258983    68A    -11.258966    69A    -11.258962
      70A    -11.258936    71A    -11.258932    72A    -11.258921
      73A    -11.254566    74A    -11.254566    75A    -11.254564
      76A    -11.254561    77A    -11.254556    78A    -11.254555
      79A    -11.253709    80A    -11.253707    81A    -11.253704
      82A    -11.253702    83A    -11.253701    84A    -11.253696
      85A    -11.253625    86A    -11.253623    87A    -11.253619
      88A    -11.253618    89A    -11.253617    90A    -11.253612
      91A    -11.253094    92A    -11.253093    93A    -11.253092
      94A    -11.253089    95A    -11.253083    96A    -11.253083
      97A     -1.254040    98A     -1.239087    99A     -1.239075
     100A     -1.220539   101A     -1.220533   102A     -1.215523
     103A     -1.201107   104A     -1.195674   105A     -1.188229
     106A     -1.188218   107A     -1.173830   108A     -1.173825
     109A     -1.155711   110A     -1.155707   111A     -1.152798
     112A     -1.144784   113A     -1.144781   114A     -1.128645
     115A     -1.114795   116A     -1.113223   117A     -1.112559
     118A     -1.112553   119A     -1.111677   120A     -1.088507
     121A     -1.088488   122A     -1.077021   123A     -1.077019
     124A     -1.067692   125A     -1.067665   126A     -1.065052
     127A     -1.046872   128A     -1.046865   129A     -1.040555
     130A     -1.038794   131A     -1.038793   132A     -1.025322
     133A     -1.021473   134A     -1.021428   135A     -1.007246
     136A     -1.006888   137A     -1.003862   138A     -1.000570
     139A     -1.000520   140A     -0.991131   141A     -0.971063
     142A     -0.971017   143A     -0.955947   144A     -0.955891
     145A     -0.905682   146A     -0.905639   147A     -0.905605
     148A     -0.905565   149A     -0.904428   150A     -0.892455
     151A     -0.892402   152A     -0.890449   153A     -0.890386
     154A     -0.889534   155A     -0.872278   156A     -0.869105
     157A     -0.851605   158A     -0.847948   159A     -0.847926
     160A     -0.845679   161A     -0.843097   162A     -0.834635
     163A     -0.834621   164A     -0.828173   165A     -0.828171
     166A     -0.784619   167A     -0.784607   168A     -0.783737
     169A     -0.783707   170A     -0.782361   171A     -0.782344
     172A     -0.782114   173A     -0.767062   174A     -0.760878
     175A     -0.750654   176A     -0.733545   177A     -0.727139
     178A     -0.727130   179A     -0.725158   180A     -0.724608
     181A     -0.724594   182A     -0.718575   183A     -0.713851
     184A     -0.713845   185A     -0.699640   186A     -0.699633
     187A     -0.686207   188A     -0.686019   189A     -0.686017
     190A     -0.682241   191A     -0.682227   192A     -0.678844
     193A     -0.653690   194A     -0.650939   195A     -0.650911
     196A     -0.649894   197A     -0.649876   198A     -0.649626
     199A     -0.641004   200A     -0.640989   201A     -0.640151
     202A     -0.639221   203A     -0.636092   204A     -0.636070
     205A     -0.629212   206A     -0.617731   207A     -0.615361
     208A     -0.615343   209A     -0.608867   210A     -0.608860
     211A     -0.599170   212A     -0.599108   213A     -0.598812
     214A     -0.598690   215A     -0.598657   216A     -0.598115
     217A     -0.595127   218A     -0.595115   219A     -0.594788
     220A     -0.594319   221A     -0.592026   222A     -0.592023
     223A     -0.587476   224A     -0.577844   225A     -0.577835
     226A     -0.575698   227A     -0.575697   228A     -0.573445
     229A     -0.569598   230A     -0.568215   231A     -0.568196
     232A     -0.566824   233A     -0.566808   234A     -0.560962
     235A     -0.558789   236A     -0.558774   237A     -0.558478
     238A     -0.554435   239A     -0.550594   240A     -0.547522
     241A     -0.544304   242A     -0.535066   243A     -0.534970
     244A     -0.533598   245A     -0.533575   246A     -0.528135
     247A     -0.528121   248A     -0.527875   249A     -0.517236
     250A     -0.517203   251A     -0.515391   252A     -0.515385
     253A     -0.509701   254A     -0.509683   255A     -0.498090
     256A     -0.496515   257A     -0.496488   258A     -0.493814
     259A     -0.493797   260A     -0.489464   261A     -0.481509
     262A     -0.477457   263A     -0.477451   264A     -0.474056
     265A     -0.469513   266A     -0.466593   267A     -0.466588
     268A     -0.458837   269A     -0.446772   270A     -0.446710
     271A     -0.441064   272A     -0.440798   273A     -0.440779
     274A     -0.434723   275A     -0.433942   276A     -0.407409
     277A     -0.407388   278A     -0.386444   279A     -0.386394
     280A     -0.385766   281A     -0.385764   282A     -0.383790
     283A     -0.354358   284A     -0.354344   285A     -0.350698
     286A     -0.338124   287A     -0.335639   288A     -0.335546
     289A     -0.332748   290A     -0.332740   291A     -0.307115
     292A     -0.301975   293A     -0.301921   294A     -0.300877
     295A     -0.286207   296A     -0.256498   297A     -0.253540
     298A     -0.253478   299A     -0.204295   300A     -0.204210

  @DF-RHF Final Energy: -3650.33864390506415

   => Energetics <=

    Nuclear Repulsion Energy =          15611.4211649754324753
    One-Electron Energy =              -36072.1096519466300379
    Two-Electron Energy =               16810.3498430661347811
    Total Energy =                      -3650.3386439050627814
 Dipole X            :         -0.0007243            0.0001983           -0.0005259
 Dipole Y            :          0.0011210           -0.0013163           -0.0001953
 Dipole Z            :        406.0801366         -406.0864397           -0.0063031
 Magnitude           :                                                    0.0063280

    SAPT Results
  --------------------------------------------------------------------------------------------------------
    Electrostatics                 10.83994715 [mEh]       6.80216953 [kcal/mol]      28.46027731 [kJ/mol]
      Elst10,r                     10.83994715 [mEh]       6.80216953 [kcal/mol]      28.46027731 [kJ/mol]

    Exchange                        0.05681170 [mEh]       0.03564988 [kcal/mol]       0.14915911 [kJ/mol]
      Exch10                        0.05681170 [mEh]       0.03564988 [kcal/mol]       0.14915911 [kJ/mol]
      Exch10(S^2)                   0.05681275 [mEh]       0.03565054 [kcal/mol]       0.14916186 [kJ/mol]

    Induction                      -7.61245205 [mEh]      -4.77688578 [kcal/mol]     -19.98649011 [kJ/mol]
      Ind20,r                      -7.67696185 [mEh]      -4.81736629 [kcal/mol]     -20.15586056 [kJ/mol]
      Exch-Ind20,r                  0.01405086 [mEh]       0.00881705 [kcal/mol]       0.03689054 [kJ/mol]
      delta HF,r (2)                0.05045894 [mEh]       0.03166346 [kcal/mol]       0.13247992 [kJ/mol]

    Dispersion                     -2.02529231 [mEh]      -1.27089011 [kcal/mol]      -5.31740422 [kJ/mol]
      Disp20                       -2.04530115 [mEh]      -1.28344585 [kcal/mol]      -5.36993744 [kJ/mol]
      Exch-Disp20                   0.02000885 [mEh]       0.01255574 [kcal/mol]       0.05253322 [kJ/mol]
      Disp20 (SS)                  -1.02265058 [mEh]      -0.64172293 [kcal/mol]      -2.68496872 [kJ/mol]
      Disp20 (OS)                  -1.02265058 [mEh]      -0.64172293 [kcal/mol]      -2.68496872 [kJ/mol]
      Exch-Disp20 (SS)              0.01422209 [mEh]       0.00892450 [kcal/mol]       0.03734009 [kJ/mol]
      Exch-Disp20 (OS)              0.00578676 [mEh]       0.00363125 [kcal/mol]       0.01519313 [kJ/mol]

  Total HF                          3.28430680 [mEh]       2.06093363 [kcal/mol]       8.62294631 [kJ/mol]
  Total SAPT0                       1.25901449 [mEh]       0.79004352 [kcal/mol]       3.30554210 [kJ/mol]

  Special recipe for scaled SAPT0 (see Manual):
    Electrostatics sSAPT0          10.83994715 [mEh]       6.80216953 [kcal/mol]      28.46027731 [kJ/mol]
    Exchange sSAPT0                 0.05681170 [mEh]       0.03564988 [kcal/mol]       0.14915911 [kJ/mol]
    Induction sSAPT0               -7.61245283 [mEh]      -4.77688627 [kcal/mol]     -19.98649215 [kJ/mol]
    Dispersion sSAPT0              -2.02529341 [mEh]      -1.27089081 [kcal/mol]      -5.31740713 [kJ/mol]
  Total sSAPT0                      1.25901261 [mEh]       0.79004234 [kcal/mol]       3.30553714 [kJ/mol]
  --------------------------------------------------------------------------------------------------------

*** Psi4 exiting successfully. Buy a developer a beer!
