                               Psi4 1.9 release

  ==> Input File <==

--------------------------------------------------------------------------
memory 32 GB # how much memory is available ! Depends on the nodes/cores !

molecule dimer {
# monomer A
+1 1    # Charge and multiplicity
C  0.680067 -0.008042 -8.015929
C -0.680504 -0.006014 -8.015545
N -1.085635 -0.005016 -6.697221
C  0.000108 -0.001740 -5.915820
C -2.477365  0.044390 -6.229242
N  1.085222 -0.005016 -6.697221
H  1.385146 -0.015870 -8.833368
H -1.385302 -0.006204 -8.833214
H -0.000009  0.000007 -4.834731
C  2.478117 -0.021908 -6.232123
H  2.490592  0.005437 -5.141870
H  2.967028 -0.935354 -6.579299
H  3.001428  0.853575 -6.623595
H -2.857359  1.066461 -6.309201
H -3.082679 -0.625694 -6.842306
H -2.518128 -0.282594 -5.189294
--
# monomer B
0 1     # Charge and multiplicity
C   1.22531237526482      0.70753866091955      0.00613762728373
C   1.22532433589282     -0.70753852257020     -0.00619318228664
C   -0.00000567409046      1.41496628609039     -0.00672680580738
C   2.45644923379077      1.41832825917820      0.00902448468363
C   0.00001130712078     -1.41497612663474      0.00347275151708
C   -1.22530046906674      0.70754574598412      0.00838914760619
C   2.45643823516184     -1.41832293188077     -0.00843833914343
C   -0.00000085313587      2.83680140328112     -0.00913035594137
C   3.68182717731192      0.70931832800114     -0.00808954934571
C   2.45512052870677      2.83422403348893     -0.00819210630633
C   3.68182158506039     -0.70933346742900      0.00798293467272
C   -1.22531311884624     -0.70752714354401     -0.00512042085974
C   1.22670006104402      3.54346985599427      0.00816696660346
C   0.00000526469929     -2.83678176723568      0.00832091913869
C   -2.45643555300670      1.41831729028492      0.00842454345199
C   2.45512389762097     -2.83422965658853      0.00783102630520
C   -1.22671388474763      3.54346943575023      0.00827029982280
C   4.91451777504333      1.42717324448953     -0.00160886631602
C   3.69315067131765      3.54279566454522     -0.00155906667985
C   -2.45643712022637     -1.41831290883911     -0.00846337726810
C   1.22670532178455     -3.54347386990643     -0.00780316414624
C   -2.45512491866593      2.83421703463423     -0.00818572995999
C   4.91452486062398     -1.42718653794377      0.00136387641845
C   1.22142509354026      4.97013443726031      0.00150231067809
C   4.89300870916237      2.82518837202648     -0.00039219795739
C   -1.22669652864725     -3.54347062507680     -0.00753595973677
C   -3.68181849668397      0.70932533873199     -0.00807686886569
C   3.69314758099218     -3.54280096939050      0.00148176697923
C   -1.22143177215231      4.97012866986289      0.00168580605083
C   6.13477145276790      0.68054831910577     -0.00083909176631
C   3.65678936045204      4.97295361556775     -0.00065042889723
C   -2.45512642789169     -2.83421472106065      0.00758666850712
C   -3.68181869921921     -0.70932533146830      0.00810055625144
C   4.89301309775526     -2.82519973363176      0.00021895393805
C   -0.00000059327114      5.65044773803267      0.00045449734393
C   6.13477559217374     -0.68055448207492      0.00042622874941
C   2.47813196269732      5.65357712333155      0.00063835075260
C   1.22142288457925     -4.97012668293268     -0.00129718634452
C   -3.69316190412301      3.54279732619245     -0.00139355922051
C   -1.22142804110313     -4.97011793159564     -0.00140994817719
C   -4.91452132810043      1.42717581899491     -0.00153192130862
C   3.65678749952045     -4.97295485423912      0.00080007163680
C   -2.47813805026426      5.65357479452875      0.00092287576113
C   -3.69314125872231     -3.54278984697859      0.00136564082345
C   -4.91451200321153     -1.42718062802730      0.00139857359209
C   -0.00000552908399     -5.65043791501335      0.00005899322272
C   -4.89302000425900      2.82518897091939     -0.00040227981744
C   2.47812647313991     -5.65357317188818     -0.00029052915548
C   -3.65679823041642      4.97295655404175     -0.00047374852278
C   -4.89299899901461     -2.82519139505969      0.00006491824035
C   -2.47812801824129     -5.65356579800621     -0.00056571680280
C   -6.13477002348955      0.68054913825639     -0.00086464346868
C   -3.65678835334731     -4.97294365097028      0.00058578382008
C   -6.13476456307132     -0.68055354348201      0.00040575295444
H   5.83528897565761      3.36927626695423      0.00396712770529
H   7.07385965258860      1.22821762089947     -0.00037744837300
H   4.60066374401555      5.51238117445323     -0.00014522814529
H   5.83528386714679     -3.36930568472863     -0.00423551337640
H   -0.00001167146422      6.73853104613662     -0.00389474766392
H   7.07386165167227     -1.22822657074368     -0.00008250934481
H   2.47331421164041      6.74068466339473      0.00017162982210
H   4.60066897122302     -5.51237575717576      0.00039007446835
H   -2.47331820069565      6.74068209160650      0.00047297644710
H   -0.00000978838621     -6.73852780445195      0.00458867820736
H   -5.83530143450167      3.36927132229595      0.00410314985360
H   2.47330840367253     -6.74068500242887      0.00027980126949
H   -4.60067436136587      5.51237839860371      0.00002010017831
H   -5.83527902699321     -3.36928859177951     -0.00451481925734
H   -2.47329986759855     -6.74067870613986     -0.00016951527498
H   -7.07385728692578      1.22822084484047     -0.00046143985387
H   -4.60067330624313     -5.51236229778631      0.00021776644566
H   -7.07385645456741     -1.22822025997701     -0.00017736581114

    units angstrom      # Angstroms are the default
    no_reorient         # Geometry fixed, default
    symmetry c1         # C1 symmetry, default
}

set {
    scf_type DF         # Density fitting, faster than exact integrals
    freeze_core True    # Freeze core electrons
    basis jun-cc-pVDZ   # Jun-cc-pVDZ basis set, recommended for sSAPT0 in https://doi.org/10.1063/1.4867135
}

energy('ssapt0')        # Compute sSAPT0 energy, includes also SAPT0
--------------------------------------------------------------------------

  //              Dimer HF             //
    Molecular point group: c1
  Charge       = 1
  Multiplicity = 1
  Basis Set: JUN-CC-PVDZ
    Blend: JUN-CC-PVDZ
  Basis Set: (JUN-CC-PVDZ AUX)
    Blend: JUN-CC-PVDZ-JKFIT
  @DF-RHF Final Energy: -2359.20071757453979
    Total Energy =                      -2359.2007175745402492
 Dipole X            :         -0.0013221            0.0006313           -0.0006908
 Dipole Y            :         -0.0482405            0.0560211            0.0077806
 Dipole Z            :         23.7455784          -33.5593948           -9.8138165
 Magnitude           :                                                    9.8138196
  //            Monomer A HF           //
    Molecular point group: c1
  Multiplicity = 1
  Basis Set: JUN-CC-PVDZ
    Blend: JUN-CC-PVDZ
  Basis Set: (JUN-CC-PVDZ AUX)
    Blend: JUN-CC-PVDZ-JKFIT
  @DF-RHF Final Energy:  -303.29728832983170
    Total Energy =                       -303.2972883298317015
  //            Monomer B HF           //
    Molecular point group: c1

    Geometry (in Angstrom), charge = 0, multiplicity = 1:

       Center              X                  Y                   Z               Mass
    ------------   -----------------  -----------------  -----------------  -----------------
      Gh(C)           0.680066520158    -0.008042372515    -7.151012993311    12.000000000000
      Gh(C)          -0.680504479842    -0.006014372515    -7.150628993311    12.000000000000
      Gh(N)          -1.085635479842    -0.005016372515    -5.832304993311    14.003074004430
      Gh(C)           0.000107520158    -0.001740372515    -5.050903993311    12.000000000000
      Gh(C)          -2.477365479842     0.044389627485    -5.364325993311    12.000000000000
      Gh(N)           1.085221520158    -0.005016372515    -5.832304993311    14.003074004430
      Gh(H)           1.385145520158    -0.015870372515    -7.968451993311     1.007825032230
      Gh(H)          -1.385302479842    -0.006204372515    -7.968297993311     1.007825032230
      Gh(H)          -0.000009479842     0.000006627485    -3.969814993311     1.007825032230
      Gh(C)           2.478116520158    -0.021908372515    -5.367206993311    12.000000000000
      Gh(H)           2.490591520158     0.005436627485    -4.276953993311     1.007825032230
      Gh(H)           2.967027520158    -0.935354372515    -5.714382993311     1.007825032230
      Gh(H)           3.001427520158     0.853574627485    -5.758678993311     1.007825032230
      Gh(H)          -2.857359479842     1.066460627485    -5.444284993311     1.007825032230
      Gh(H)          -3.082679479842    -0.625694372515    -5.977389993311     1.007825032230
      Gh(H)          -2.518128479842    -0.282594372515    -4.324377993311     1.007825032230
         C            1.225311895423     0.707538288405     0.871053633973    12.000000000000
         C            1.225323856051    -0.707538895085     0.858722824403    12.000000000000
         C           -0.000006153932     1.414965913575     0.858189200882    12.000000000000
         C            2.456448753949     1.418327886663     0.873940491373    12.000000000000
         C            0.000010827279    -1.414976499150     0.868388758206    12.000000000000
         C           -1.225300948908     0.707545373469     0.873305154296    12.000000000000
         C            2.456437755320    -1.418323304396     0.856477667546    12.000000000000
         C           -0.000001332978     2.836801030766     0.855785650748    12.000000000000
         C            3.681826697470     0.709317955486     0.856826457344    12.000000000000
         C            2.455120048865     2.834223660974     0.856723900383    12.000000000000
         C            3.681821105219    -0.709333839944     0.872898941362    12.000000000000
         C           -1.225313598688    -0.707527516059     0.859795585830    12.000000000000
         C            1.226699581202     3.543469483479     0.873082973293    12.000000000000
         C            0.000004784858    -2.836782139751     0.873236925828    12.000000000000
         C           -2.456436032848     1.418316917770     0.873340550141    12.000000000000
         C            2.455123417779    -2.834230029103     0.872747032995    12.000000000000
         C           -1.226714364589     3.543469063235     0.873186306512    12.000000000000
         C            4.914517295202     1.427172871975     0.863307140373    12.000000000000
         C            3.693150191476     3.542795292030     0.863356940010    12.000000000000
         C           -2.456437600068    -1.418313281354     0.856452629421    12.000000000000
         C            1.226704841943    -3.543474242421     0.857112842543    12.000000000000
         C           -2.455125398508     2.834216662119     0.856730276729    12.000000000000
         C            4.914524380782    -1.427186910459     0.866279883108    12.000000000000
         C            1.221424613699     4.970134064745     0.866418317367    12.000000000000
         C            4.893008229321     2.825187999512     0.864523808732    12.000000000000
         C           -1.226697008489    -3.543470997592     0.857380046953    12.000000000000
         C           -3.681818976526     0.709324966217     0.856839137824    12.000000000000
         C            3.693147101150    -3.542801341905     0.866397773669    12.000000000000
         C           -1.221432251994     4.970128297348     0.866601812740    12.000000000000
         C            6.134770972926     0.680547946591     0.864076914923    12.000000000000
         C            3.656788880610     4.972953243053     0.864265577792    12.000000000000
         C           -2.455126907733    -2.834215093576     0.872502675196    12.000000000000
         C           -3.681819179061    -0.709325703983     0.873016562941    12.000000000000
         C            4.893012617914    -2.825200106147     0.865134960627    12.000000000000
         C           -0.000001073113     5.650447365518     0.865370504033    12.000000000000
         C            6.134775112332    -0.680554854590     0.865342235439    12.000000000000
         C            2.478131482856     5.653576750817     0.865554357442    12.000000000000
         C            1.221422404738    -4.970127055448     0.863618820345    12.000000000000
         C           -3.693162383965     3.542796953677     0.863522447469    12.000000000000
         C           -1.221428520945    -4.970118304111     0.863506058512    12.000000000000
         C           -4.914521807942     1.427175446480     0.863384085381    12.000000000000
         C            3.656787019679    -4.972955226754     0.865716078326    12.000000000000
         C           -2.478138530106     5.653574422014     0.865838882450    12.000000000000
         C           -3.693141738564    -3.542790219494     0.866281647513    12.000000000000
         C           -4.914512483053    -1.427181000542     0.866314580281    12.000000000000
         C           -0.000006008926    -5.650438287528     0.864974999912    12.000000000000
         C           -4.893020484101     2.825188598404     0.864513726872    12.000000000000
         C            2.478125993298    -5.653573544403     0.864625477534    12.000000000000
         C           -3.656798710258     4.972956181527     0.864442258167    12.000000000000
         C           -4.892999478856    -2.825191767575     0.864980924930    12.000000000000
         C           -2.478128498083    -5.653566170521     0.864350289887    12.000000000000
         C           -6.134770503331     0.680548765741     0.864051363221    12.000000000000
         C           -3.656788833189    -4.972944023485     0.865501790509    12.000000000000
         C           -6.134765042913    -0.680553915997     0.865321759644    12.000000000000
         H            5.835288495816     3.369275894439     0.868883134395     1.007825032230
         H            7.073859172747     1.228217248385     0.864538558316     1.007825032230
         H            4.600663264174     5.512380801938     0.864770778544     1.007825032230
         H            5.835283387305    -3.369306057244     0.860680493313     1.007825032230
         H           -0.000012151306     6.738530673622     0.861021259025     1.007825032230
         H            7.073861171831    -1.228226943259     0.864833497345     1.007825032230
         H            2.473313731799     6.740684290880     0.865087636511     1.007825032230
         H            4.600668491381    -5.512376129691     0.865306081158     1.007825032230
         H           -2.473318680537     6.740681719092     0.865388983136     1.007825032230
         H           -0.000010268228    -6.738528176967     0.869504684897     1.007825032230
         H           -5.835301914343     3.369270949781     0.869019156543     1.007825032230
         H            2.473307923831    -6.740685374944     0.865195807959     1.007825032230
         H           -4.600674841208     5.512378026089     0.864936106868     1.007825032230
         H           -5.835279506835    -3.369288964294     0.860401187432     1.007825032230
         H           -2.473300347440    -6.740679078655     0.864746491414     1.007825032230
         H           -7.073857766768     1.228220472326     0.864454566835     1.007825032230
         H           -4.600673786085    -5.512362670301     0.865133773135     1.007825032230
         H           -7.073856934409    -1.228220632492     0.864738640878     1.007825032230

  Charge       = 0
  Multiplicity = 1
  Basis Set: JUN-CC-PVDZ
    Blend: JUN-CC-PVDZ
  Basis Set: (JUN-CC-PVDZ AUX)
    Blend: JUN-CC-PVDZ-JKFIT

    Orbital Energies [Eh]
    ---------------------

    Doubly Occupied:

       1A    -11.260634     2A    -11.260191     3A    -11.260188
       4A    -11.259478     5A    -11.259477     6A    -11.259307
       7A    -11.259097     8A    -11.259019     9A    -11.259018
      10A    -11.258694    11A    -11.258691    12A    -11.258621
      13A    -11.258560    14A    -11.258554    15A    -11.258552
      16A    -11.258523    17A    -11.258516    18A    -11.258500
      19A    -11.258488    20A    -11.258482    21A    -11.258476
      22A    -11.258379    23A    -11.258375    24A    -11.258078
      25A    -11.257414    26A    -11.257352    27A    -11.257351
      28A    -11.257217    29A    -11.257216    30A    -11.257132
      31A    -11.256509    32A    -11.256438    33A    -11.256437
      34A    -11.256328    35A    -11.256327    36A    -11.256280
      37A    -11.252365    38A    -11.252365    39A    -11.252363
      40A    -11.252362    41A    -11.252356    42A    -11.252354
      43A    -11.251491    44A    -11.251489    45A    -11.251486
      46A    -11.251482    47A    -11.251480    48A    -11.251476
      49A    -11.250927    50A    -11.250926    51A    -11.250924
      52A    -11.250923    53A    -11.250917    54A    -11.250915
      55A     -1.244219    56A     -1.219954    57A     -1.219948
      58A     -1.189667    59A     -1.189658    60A     -1.181095
      61A     -1.157673    62A     -1.149099    63A     -1.135638
      64A     -1.135628    65A     -1.113303    66A     -1.113300
      67A     -1.082565    68A     -1.082557    69A     -1.078745
      70A     -1.066089    71A     -1.066084    72A     -1.039520
      73A     -1.024418    74A     -1.021920    75A     -1.021872
      76A     -1.017836    77A     -1.012900    78A     -0.987156
      79A     -0.987107    80A     -0.961995    81A     -0.961944
      82A     -0.894410    83A     -0.894385    84A     -0.888087
      85A     -0.886335    86A     -0.886281    87A     -0.881532
      88A     -0.881485    89A     -0.862017    90A     -0.837506
      91A     -0.818330    92A     -0.816759    93A     -0.812270
      94A     -0.812263    95A     -0.794801    96A     -0.794790
      97A     -0.746767    98A     -0.744996    99A     -0.733558
     100A     -0.733554   101A     -0.732297   102A     -0.732274
     103A     -0.716632   104A     -0.699095   105A     -0.699078
     106A     -0.693716   107A     -0.693693   108A     -0.661345
     109A     -0.653259   110A     -0.651304   111A     -0.650364
     112A     -0.650358   113A     -0.639476   114A     -0.639468
     115A     -0.629847   116A     -0.627656   117A     -0.627642
     118A     -0.606488   119A     -0.605895   120A     -0.601796
     121A     -0.599864   122A     -0.599822   123A     -0.593760
     124A     -0.591377   125A     -0.591360   126A     -0.585375
     127A     -0.576440   128A     -0.576391   129A     -0.567429
     130A     -0.567413   131A     -0.566094   132A     -0.566078
     133A     -0.558868   134A     -0.554964   135A     -0.554961
     136A     -0.538705   137A     -0.538703   138A     -0.538259
     139A     -0.538255   140A     -0.529836   141A     -0.528209
     142A     -0.522995   143A     -0.522981   144A     -0.500615
     145A     -0.495688   146A     -0.493351   147A     -0.487912
     148A     -0.485200   149A     -0.481882   150A     -0.481876
     151A     -0.470400   152A     -0.470395   153A     -0.451171
     154A     -0.451096   155A     -0.439153   156A     -0.439144
     157A     -0.404831   158A     -0.404806   159A     -0.403459
     160A     -0.375507   161A     -0.375504   162A     -0.349210
     163A     -0.337668   164A     -0.336635   165A     -0.336585
     166A     -0.311184   167A     -0.298177   168A     -0.284433
     169A     -0.284385   170A     -0.225006   171A     -0.224942

  @DF-RHF Final Energy: -2055.89222109403863

   => Energetics <=

    Nuclear Repulsion Energy =           6452.5568002797781446
    One-Electron Energy =              -15636.4448840861841745
    Two-Electron Energy =                7127.9958627123687620
    Total Energy =                      -2055.8922210940381774
 Dipole X            :          0.0000993           -0.0000085            0.0000908
 Dipole Y            :         -0.0000559            0.0000167           -0.0000393
 Dipole Z            :       -558.9752998          558.9819530            0.0066532
 Magnitude           :                                                    0.0066539

    SAPT Results
  --------------------------------------------------------------------------------------------------------
    Electrostatics                 -8.19027197 [mEh]      -5.13947326 [kcal/mol]     -21.50355611 [kJ/mol]
      Elst10,r                     -8.19027197 [mEh]      -5.13947326 [kcal/mol]     -21.50355611 [kJ/mol]

    Exchange                        0.00143595 [mEh]       0.00090107 [kcal/mol]       0.00377009 [kJ/mol]
      Exch10                        0.00143595 [mEh]       0.00090107 [kcal/mol]       0.00377009 [kJ/mol]
      Exch10(S^2)                   0.00143595 [mEh]       0.00090107 [kcal/mol]       0.00377008 [kJ/mol]

    Induction                      -3.01931465 [mEh]      -1.89464854 [kcal/mol]      -7.92720951 [kJ/mol]
      Ind20,r                      -2.94351599 [mEh]      -1.84708417 [kcal/mol]      -7.72820017 [kJ/mol]
      Exch-Ind20,r                  0.00126107 [mEh]       0.00079133 [kcal/mol]       0.00331094 [kJ/mol]
      delta HF,r (2)               -0.07705972 [mEh]      -0.04835571 [kcal/mol]      -0.20232028 [kJ/mol]

    Dispersion                     -1.81712879 [mEh]      -1.14026553 [kcal/mol]      -4.77087099 [kJ/mol]
      Disp20                       -1.81767379 [mEh]      -1.14060752 [kcal/mol]      -4.77230187 [kJ/mol]
      Exch-Disp20                   0.00054499 [mEh]       0.00034199 [kcal/mol]       0.00143088 [kJ/mol]
      Disp20 (SS)                  -0.90883689 [mEh]      -0.57030376 [kcal/mol]      -2.38615093 [kJ/mol]
      Disp20 (OS)                  -0.90883689 [mEh]      -0.57030376 [kcal/mol]      -2.38615093 [kJ/mol]
      Exch-Disp20 (SS)              0.00040228 [mEh]       0.00025243 [kcal/mol]       0.00105618 [kJ/mol]
      Exch-Disp20 (OS)              0.00014272 [mEh]       0.00008956 [kcal/mol]       0.00037470 [kJ/mol]

  Total HF                        -11.20815067 [mEh]      -7.03322073 [kcal/mol]     -29.42699553 [kJ/mol]
  Total SAPT0                     -13.02527946 [mEh]      -8.17348626 [kcal/mol]     -34.19786652 [kJ/mol]

  Special recipe for scaled SAPT0 (see Manual):
    Electrostatics sSAPT0          -8.19027197 [mEh]      -5.13947326 [kcal/mol]     -21.50355611 [kJ/mol]
    Exchange sSAPT0                 0.00143595 [mEh]       0.00090107 [kcal/mol]       0.00377009 [kJ/mol]
    Induction sSAPT0               -3.01931465 [mEh]      -1.89464854 [kcal/mol]      -7.92720951 [kJ/mol]
    Dispersion sSAPT0              -1.81712879 [mEh]      -1.14026553 [kcal/mol]      -4.77087099 [kJ/mol]
  Total sSAPT0                    -13.02527946 [mEh]      -8.17348626 [kcal/mol]     -34.19786652 [kJ/mol]
  --------------------------------------------------------------------------------------------------------

*** Psi4 exiting successfully. Buy a developer a beer!
