                               Psi4 1.9 release

  ==> Input File <==

--------------------------------------------------------------------------
memory 32 GB # how much memory is available ! Depends on the nodes/cores !

molecule dimer {
# monomer A
-1 1    # Charge and multiplicity
B -0.000046  0.000337 7.599994
F -1.153597  0.000048 8.415641
F  1.153661 -0.000581 8.415641
F -0.000019 -1.153637 6.784360
F -0.000019  1.153978 6.784360
--
# monomer B
0 1     # Charge and multiplicity
C   1.22531237526482      0.70753866091955      0.00613762728373
C   1.22532433589282     -0.70753852257020     -0.00619318228664
C   -0.00000567409046      1.41496628609039     -0.00672680580738
C   2.45644923379077      1.41832825917820      0.00902448468363
C   0.00001130712078     -1.41497612663474      0.00347275151708
C   -1.22530046906674      0.70754574598412      0.00838914760619
C   2.45643823516184     -1.41832293188077     -0.00843833914343
C   -0.00000085313587      2.83680140328112     -0.00913035594137
C   3.68182717731192      0.70931832800114     -0.00808954934571
C   2.45512052870677      2.83422403348893     -0.00819210630633
C   3.68182158506039     -0.70933346742900      0.00798293467272
C   -1.22531311884624     -0.70752714354401     -0.00512042085974
C   1.22670006104402      3.54346985599427      0.00816696660346
C   0.00000526469929     -2.83678176723568      0.00832091913869
C   -2.45643555300670      1.41831729028492      0.00842454345199
C   2.45512389762097     -2.83422965658853      0.00783102630520
C   -1.22671388474763      3.54346943575023      0.00827029982280
C   4.91451777504333      1.42717324448953     -0.00160886631602
C   3.69315067131765      3.54279566454522     -0.00155906667985
C   -2.45643712022637     -1.41831290883911     -0.00846337726810
C   1.22670532178455     -3.54347386990643     -0.00780316414624
C   -2.45512491866593      2.83421703463423     -0.00818572995999
C   4.91452486062398     -1.42718653794377      0.00136387641845
C   1.22142509354026      4.97013443726031      0.00150231067809
C   4.89300870916237      2.82518837202648     -0.00039219795739
C   -1.22669652864725     -3.54347062507680     -0.00753595973677
C   -3.68181849668397      0.70932533873199     -0.00807686886569
C   3.69314758099218     -3.54280096939050      0.00148176697923
C   -1.22143177215231      4.97012866986289      0.00168580605083
C   6.13477145276790      0.68054831910577     -0.00083909176631
C   3.65678936045204      4.97295361556775     -0.00065042889723
C   -2.45512642789169     -2.83421472106065      0.00758666850712
C   -3.68181869921921     -0.70932533146830      0.00810055625144
C   4.89301309775526     -2.82519973363176      0.00021895393805
C   -0.00000059327114      5.65044773803267      0.00045449734393
C   6.13477559217374     -0.68055448207492      0.00042622874941
C   2.47813196269732      5.65357712333155      0.00063835075260
C   1.22142288457925     -4.97012668293268     -0.00129718634452
C   -3.69316190412301      3.54279732619245     -0.00139355922051
C   -1.22142804110313     -4.97011793159564     -0.00140994817719
C   -4.91452132810043      1.42717581899491     -0.00153192130862
C   3.65678749952045     -4.97295485423912      0.00080007163680
C   -2.47813805026426      5.65357479452875      0.00092287576113
C   -3.69314125872231     -3.54278984697859      0.00136564082345
C   -4.91451200321153     -1.42718062802730      0.00139857359209
C   -0.00000552908399     -5.65043791501335      0.00005899322272
C   -4.89302000425900      2.82518897091939     -0.00040227981744
C   2.47812647313991     -5.65357317188818     -0.00029052915548
C   -3.65679823041642      4.97295655404175     -0.00047374852278
C   -4.89299899901461     -2.82519139505969      0.00006491824035
C   -2.47812801824129     -5.65356579800621     -0.00056571680280
C   -6.13477002348955      0.68054913825639     -0.00086464346868
C   -3.65678835334731     -4.97294365097028      0.00058578382008
C   -6.13476456307132     -0.68055354348201      0.00040575295444
H   5.83528897565761      3.36927626695423      0.00396712770529
H   7.07385965258860      1.22821762089947     -0.00037744837300
H   4.60066374401555      5.51238117445323     -0.00014522814529
H   5.83528386714679     -3.36930568472863     -0.00423551337640
H   -0.00001167146422      6.73853104613662     -0.00389474766392
H   7.07386165167227     -1.22822657074368     -0.00008250934481
H   2.47331421164041      6.74068466339473      0.00017162982210
H   4.60066897122302     -5.51237575717576      0.00039007446835
H   -2.47331820069565      6.74068209160650      0.00047297644710
H   -0.00000978838621     -6.73852780445195      0.00458867820736
H   -5.83530143450167      3.36927132229595      0.00410314985360
H   2.47330840367253     -6.74068500242887      0.00027980126949
H   -4.60067436136587      5.51237839860371      0.00002010017831
H   -5.83527902699321     -3.36928859177951     -0.00451481925734
H   -2.47329986759855     -6.74067870613986     -0.00016951527498
H   -7.07385728692578      1.22822084484047     -0.00046143985387
H   -4.60067330624313     -5.51236229778631      0.00021776644566
H   -7.07385645456741     -1.22822025997701     -0.00017736581114

    units angstrom      # Angstroms are the default
    no_reorient         # Geometry fixed, default
    symmetry c1         # C1 symmetry, default
}

set {
    scf_type DF         # Density fitting, faster than exact integrals
    freeze_core True    # Freeze core electrons
    basis jun-cc-pVDZ   # Jun-cc-pVDZ basis set, recommended for sSAPT0 in https://doi.org/10.1063/1.4867135
}

energy('ssapt0')        # Compute sSAPT0 energy, includes also SAPT0
--------------------------------------------------------------------------

  //              Dimer HF             //
    Molecular point group: c1
  Charge       = -1
  Multiplicity = 1
  Basis Set: JUN-CC-PVDZ
    Blend: JUN-CC-PVDZ
  Basis Set: (JUN-CC-PVDZ AUX)
    Blend: JUN-CC-PVDZ-JKFIT
  @DF-RHF Final Energy: -2478.65823661443119
    Total Energy =                      -2478.6582366144302796
 Dipole X            :         -0.0001771           -0.0000160           -0.0001932
 Dipole Y            :          0.0013001           -0.0001716            0.0011284
 Dipole Z            :         34.5809668          -46.5903603          -12.0093935
 Magnitude           :                                                   12.0093935
  //            Monomer A HF           //
    Molecular point group: c1
  Multiplicity = 1
  Basis Set: JUN-CC-PVDZ
    Blend: JUN-CC-PVDZ
  Basis Set: (JUN-CC-PVDZ AUX)
    Blend: JUN-CC-PVDZ-JKFIT
  @DF-RHF Final Energy:  -422.77142053076699
    Total Energy =                       -422.7714205307669886
  //            Monomer B HF           //
    Molecular point group: c1

    Geometry (in Angstrom), charge = 0, multiplicity = 1:

       Center              X                  Y                   Z               Mass
    ------------   -----------------  -----------------  -----------------  -----------------
      Gh(B)          -0.000046449334     0.000336519434     6.722046790312    11.009305360000
      Gh(F)          -1.153597449334     0.000047519434     7.537693790312    18.998403162730
      Gh(F)           1.153660550666    -0.000581480566     7.537693790312    18.998403162730
      Gh(F)          -0.000019449334    -1.153637480566     5.906412790312    18.998403162730
      Gh(F)          -0.000019449334     1.153977519434     5.906412790312    18.998403162730
         C            1.225311925931     0.707538180353    -0.871809582405    12.000000000000
         C            1.225323886559    -0.707539003137    -0.884140391975    12.000000000000
         C           -0.000006123424     1.414965805524    -0.884674015496    12.000000000000
         C            2.456448784457     1.418327778612    -0.868922725005    12.000000000000
         C            0.000010857787    -1.414976607201    -0.874474458171    12.000000000000
         C           -1.225300918401     0.707545265418    -0.869558062082    12.000000000000
         C            2.456437785828    -1.418323412447    -0.886385548832    12.000000000000
         C           -0.000001302470     2.836800922715    -0.887077565630    12.000000000000
         C            3.681826727978     0.709317847435    -0.886036759034    12.000000000000
         C            2.455120079373     2.834223552923    -0.886139315995    12.000000000000
         C            3.681821135726    -0.709333947995    -0.869964275016    12.000000000000
         C           -1.225313568180    -0.707527624110    -0.883067630548    12.000000000000
         C            1.226699611710     3.543469375428    -0.869780243085    12.000000000000
         C            0.000004815365    -2.836782247802    -0.869626290550    12.000000000000
         C           -2.456436002341     1.418316809719    -0.869522666236    12.000000000000
         C            2.455123448287    -2.834230137155    -0.870116183383    12.000000000000
         C           -1.226714334082     3.543468955184    -0.869676909866    12.000000000000
         C            4.914517325709     1.427172763923    -0.879556076004    12.000000000000
         C            3.693150221984     3.542795183979    -0.879506276368    12.000000000000
         C           -2.456437569560    -1.418313389406    -0.886410586956    12.000000000000
         C            1.226704872451    -3.543474350473    -0.885750373835    12.000000000000
         C           -2.455125368000     2.834216554068    -0.886132939648    12.000000000000
         C            4.914524411290    -1.427187018510    -0.876583333270    12.000000000000
         C            1.221424644206     4.970133956694    -0.876444899010    12.000000000000
         C            4.893008259828     2.825187891460    -0.878339407646    12.000000000000
         C           -1.226696977981    -3.543471105643    -0.885483169425    12.000000000000
         C           -3.681818946018     0.709324858166    -0.886024078554    12.000000000000
         C            3.693147131658    -3.542801449957    -0.876465442709    12.000000000000
         C           -1.221432221486     4.970128189296    -0.876261403638    12.000000000000
         C            6.134771003434     0.680547838539    -0.878786301455    12.000000000000
         C            3.656788911118     4.972953135001    -0.878597638586    12.000000000000
         C           -2.455126877226    -2.834215201627    -0.870360541181    12.000000000000
         C           -3.681819148553    -0.709325812035    -0.869846653437    12.000000000000
         C            4.893012648421    -2.825200214198    -0.877728255750    12.000000000000
         C           -0.000001042605     5.650447257466    -0.877492712344    12.000000000000
         C            6.134775142840    -0.680554962641    -0.877520980939    12.000000000000
         C            2.478131513363     5.653576642765    -0.877308858936    12.000000000000
         C            1.221422435245    -4.970127163499    -0.879244396033    12.000000000000
         C           -3.693162353457     3.542796845626    -0.879340768909    12.000000000000
         C           -1.221428490437    -4.970118412162    -0.879357157866    12.000000000000
         C           -4.914521777434     1.427175338429    -0.879479130997    12.000000000000
         C            3.656787050187    -4.972955334806    -0.877147138052    12.000000000000
         C           -2.478138499598     5.653574313962    -0.877024333927    12.000000000000
         C           -3.693141708056    -3.542790327545    -0.876581568865    12.000000000000
         C           -4.914512452545    -1.427181108594    -0.876548636096    12.000000000000
         C           -0.000005978418    -5.650438395580    -0.877888216466    12.000000000000
         C           -4.893020453593     2.825188490353    -0.878349489506    12.000000000000
         C            2.478126023806    -5.653573652455    -0.878237738844    12.000000000000
         C           -3.656798679750     4.972956073475    -0.878420958211    12.000000000000
         C           -4.892999448349    -2.825191875626    -0.877882291448    12.000000000000
         C           -2.478128467575    -5.653566278573    -0.878512926491    12.000000000000
         C           -6.134770472823     0.680548657690    -0.878811853157    12.000000000000
         C           -3.656788802681    -4.972944131537    -0.877361425868    12.000000000000
         C           -6.134765012405    -0.680554024048    -0.877541456734    12.000000000000
         H            5.835288526324     3.369275786388    -0.873980081983     1.007825032230
         H            7.073859203255     1.228217140333    -0.878324658061     1.007825032230
         H            4.600663294682     5.512380693887    -0.878092437834     1.007825032230
         H            5.835283417813    -3.369306165295    -0.882182723065     1.007825032230
         H           -0.000012120798     6.738530565570    -0.881841957352     1.007825032230
         H            7.073861202338    -1.228227051310    -0.878029719033     1.007825032230
         H            2.473313762307     6.740684182828    -0.877775579866     1.007825032230
         H            4.600668521889    -5.512376237742    -0.877557135220     1.007825032230
         H           -2.473318650030     6.740681611040    -0.877474233241     1.007825032230
         H           -0.000010237720    -6.738528285018    -0.873358531481     1.007825032230
         H           -5.835301883836     3.369270841730    -0.873844059835     1.007825032230
         H            2.473307954339    -6.740685482995    -0.877667408419     1.007825032230
         H           -4.600674810700     5.512377918037    -0.877927109510     1.007825032230
         H           -5.835279476327    -3.369289072346    -0.882462028946     1.007825032230
         H           -2.473300316932    -6.740679186706    -0.878116724963     1.007825032230
         H           -7.073857736260     1.228220364274    -0.878408649542     1.007825032230
         H           -4.600673755577    -5.512362778353    -0.877729443243     1.007825032230
         H           -7.073856903901    -1.228220740543    -0.878124575500     1.007825032230

  Charge       = 0
  Multiplicity = 1
  Basis Set: JUN-CC-PVDZ
    Blend: JUN-CC-PVDZ
  Basis Set: (JUN-CC-PVDZ AUX)
    Blend: JUN-CC-PVDZ-JKFIT

    Orbital Energies [Eh]
    ---------------------

    Doubly Occupied:

       1A    -11.260679     2A    -11.260237     3A    -11.260234
       4A    -11.259525     5A    -11.259524     6A    -11.259354
       7A    -11.259144     8A    -11.259067     9A    -11.259065
      10A    -11.258741    11A    -11.258737    12A    -11.258668
      13A    -11.258606    14A    -11.258601    15A    -11.258598
      16A    -11.258569    17A    -11.258563    18A    -11.258547
      19A    -11.258534    20A    -11.258529    21A    -11.258523
      22A    -11.258426    23A    -11.258422    24A    -11.258124
      25A    -11.257463    26A    -11.257402    27A    -11.257400
      28A    -11.257266    29A    -11.257265    30A    -11.257181
      31A    -11.256559    32A    -11.256488    33A    -11.256487
      34A    -11.256378    35A    -11.256378    36A    -11.256330
      37A    -11.252403    38A    -11.252403    39A    -11.252401
      40A    -11.252400    41A    -11.252398    42A    -11.252396
      43A    -11.251538    44A    -11.251536    45A    -11.251535
      46A    -11.251529    47A    -11.251528    48A    -11.251524
      49A    -11.250965    50A    -11.250964    51A    -11.250963
      52A    -11.250961    53A    -11.250959    54A    -11.250958
      55A     -1.244303    56A     -1.220020    57A     -1.220020
      58A     -1.189728    59A     -1.189720    60A     -1.181172
      61A     -1.157727    62A     -1.149160    63A     -1.135712
      64A     -1.135704    65A     -1.113361    66A     -1.113356
      67A     -1.082635    68A     -1.082628    69A     -1.078818
      70A     -1.066144    71A     -1.066140    72A     -1.039584
      73A     -1.024496    74A     -1.022001    75A     -1.021957
      76A     -1.017893    77A     -1.012955    78A     -0.987227
      79A     -0.987181    80A     -0.962055    81A     -0.962005
      82A     -0.894474    83A     -0.894447    84A     -0.888172
      85A     -0.886419    86A     -0.886361    87A     -0.881607
      88A     -0.881559    89A     -0.862079    90A     -0.837557
      91A     -0.818396    92A     -0.816839    93A     -0.812346
      94A     -0.812337    95A     -0.794860    96A     -0.794850
      97A     -0.746845    98A     -0.745071    99A     -0.733639
     100A     -0.733631   101A     -0.732359   102A     -0.732335
     103A     -0.716707   104A     -0.699155   105A     -0.699145
     106A     -0.693782   107A     -0.693766   108A     -0.661405
     109A     -0.653340   110A     -0.651386   111A     -0.650423
     112A     -0.650417   113A     -0.639535   114A     -0.639533
     115A     -0.629920   116A     -0.627732   117A     -0.627716
     118A     -0.606462   119A     -0.605939   120A     -0.601873
     121A     -0.599925   122A     -0.599894   123A     -0.593829
     124A     -0.591461   125A     -0.591451   126A     -0.585425
     127A     -0.576421   128A     -0.576416   129A     -0.567484
     130A     -0.567469   131A     -0.566172   132A     -0.566153
     133A     -0.558948   134A     -0.555029   135A     -0.555023
     136A     -0.538766   137A     -0.538764   138A     -0.538293
     139A     -0.538286   140A     -0.529902   141A     -0.528209
     142A     -0.523057   143A     -0.523050   144A     -0.500674
     145A     -0.495723   146A     -0.493413   147A     -0.487952
     148A     -0.485273   149A     -0.481954   150A     -0.481946
     151A     -0.470442   152A     -0.470424   153A     -0.451259
     154A     -0.451181   155A     -0.439193   156A     -0.439184
     157A     -0.404874   158A     -0.404851   159A     -0.403495
     160A     -0.375547   161A     -0.375545   162A     -0.349252
     163A     -0.337721   164A     -0.336688   165A     -0.336630
     166A     -0.311228   167A     -0.298215   168A     -0.284485
     169A     -0.284432   170A     -0.225053   171A     -0.224988

  @DF-RHF Final Energy: -2055.89162421118181

   => Energetics <=

    Nuclear Repulsion Energy =           6452.5568002797781446
    One-Electron Energy =              -15636.4245294050906523
    Two-Electron Energy =                7127.9761049141297917
    Total Energy =                      -2055.8916242111818065
 Dipole X            :          0.0000824            0.0000112            0.0000936
 Dipole Y            :          0.0000295           -0.0000531           -0.0000237
 Dipole Z            :        567.4061174         -567.4067274           -0.0006099
 Magnitude           :                                                    0.0006175

    SAPT Results
  --------------------------------------------------------------------------------------------------------
    Electrostatics                  6.59492822 [mEh]       4.13837994 [kcal/mol]      17.31498167 [kJ/mol]
      Elst10,r                      6.59492822 [mEh]       4.13837994 [kcal/mol]      17.31498167 [kJ/mol]

    Exchange                       -0.00011937 [mEh]      -0.00007491 [kcal/mol]      -0.00031342 [kJ/mol]
      Exch10                       -0.00011937 [mEh]      -0.00007491 [kcal/mol]      -0.00031342 [kJ/mol]
      Exch10(S^2)                  -0.00011937 [mEh]      -0.00007491 [kcal/mol]      -0.00031342 [kJ/mol]

    Induction                      -1.78668133 [mEh]      -1.12115946 [kcal/mol]      -4.69093119 [kJ/mol]
      Ind20,r                      -1.79670817 [mEh]      -1.12745140 [kcal/mol]      -4.71725666 [kJ/mol]
      Exch-Ind20,r                  0.00004252 [mEh]       0.00002668 [kcal/mol]       0.00011164 [kJ/mol]
      delta HF,r (2)                0.00998432 [mEh]       0.00626526 [kcal/mol]       0.02621383 [kJ/mol]

    Dispersion                     -0.25988329 [mEh]      -0.16307923 [kcal/mol]      -0.68232348 [kJ/mol]
      Disp20                       -0.25991154 [mEh]      -0.16309695 [kcal/mol]      -0.68239765 [kJ/mol]
      Exch-Disp20                   0.00002825 [mEh]       0.00001773 [kcal/mol]       0.00007417 [kJ/mol]
      Disp20 (SS)                  -0.12995577 [mEh]      -0.08154848 [kcal/mol]      -0.34119882 [kJ/mol]
      Disp20 (OS)                  -0.12995577 [mEh]      -0.08154848 [kcal/mol]      -0.34119882 [kJ/mol]
      Exch-Disp20 (SS)              0.00002190 [mEh]       0.00001374 [kcal/mol]       0.00005749 [kJ/mol]
      Exch-Disp20 (OS)              0.00000635 [mEh]       0.00000399 [kcal/mol]       0.00001668 [kJ/mol]

  Total HF                          4.80812752 [mEh]       3.01714557 [kcal/mol]      12.62373706 [kJ/mol]
  Total SAPT0                       4.54824423 [mEh]       2.85406634 [kcal/mol]      11.94141358 [kJ/mol]

  Special recipe for scaled SAPT0 (see Manual):
    Electrostatics sSAPT0           6.59492822 [mEh]       4.13837994 [kcal/mol]      17.31498167 [kJ/mol]
    Exchange sSAPT0                -0.00011937 [mEh]      -0.00007491 [kcal/mol]      -0.00031342 [kJ/mol]
    Induction sSAPT0               -1.78668133 [mEh]      -1.12115946 [kcal/mol]      -4.69093119 [kJ/mol]
    Dispersion sSAPT0              -0.25988329 [mEh]      -0.16307923 [kcal/mol]      -0.68232348 [kJ/mol]
  Total sSAPT0                      4.54824423 [mEh]       2.85406634 [kcal/mol]      11.94141358 [kJ/mol]
  --------------------------------------------------------------------------------------------------------

*** Psi4 exiting successfully. Buy a developer a beer!
