                               Psi4 1.9 release

  ==> Input File <==

--------------------------------------------------------------------------
memory 32 GB # how much memory is available ! Depends on the nodes/cores !

molecule dimer {
# monomer A
+1 1    # Charge and multiplicity
C  0.680067 -0.008042 -5.815929
C -0.680504 -0.006014 -5.815545
N -1.085635 -0.005016 -4.497221
C  0.000108 -0.001740 -3.715820
C -2.477365  0.044390 -4.029242
N  1.085222 -0.005016 -4.497221
H  1.385146 -0.015870 -6.633368
H -1.385302 -0.006204 -6.633214
H -0.000009  0.000007 -2.634731
C  2.478117 -0.021908 -4.032123
H  2.490592  0.005437 -2.941870
H  2.967028 -0.935354 -4.379299
H  3.001428  0.853575 -4.423595
H -2.857359  1.066461 -4.109201
H -3.082679 -0.625694 -4.642306
H -2.518128 -0.282594 -2.989294
--
# monomer B
0 1     # Charge and multiplicity
C   1.22531237526482      0.70753866091955      0.00613762728373
C   1.22532433589282     -0.70753852257020     -0.00619318228664
C   -0.00000567409046      1.41496628609039     -0.00672680580738
C   2.45644923379077      1.41832825917820      0.00902448468363
C   0.00001130712078     -1.41497612663474      0.00347275151708
C   -1.22530046906674      0.70754574598412      0.00838914760619
C   2.45643823516184     -1.41832293188077     -0.00843833914343
C   -0.00000085313587      2.83680140328112     -0.00913035594137
C   3.68182717731192      0.70931832800114     -0.00808954934571
C   2.45512052870677      2.83422403348893     -0.00819210630633
C   3.68182158506039     -0.70933346742900      0.00798293467272
C   -1.22531311884624     -0.70752714354401     -0.00512042085974
C   1.22670006104402      3.54346985599427      0.00816696660346
C   0.00000526469929     -2.83678176723568      0.00832091913869
C   -2.45643555300670      1.41831729028492      0.00842454345199
C   2.45512389762097     -2.83422965658853      0.00783102630520
C   -1.22671388474763      3.54346943575023      0.00827029982280
C   4.91451777504333      1.42717324448953     -0.00160886631602
C   3.69315067131765      3.54279566454522     -0.00155906667985
C   -2.45643712022637     -1.41831290883911     -0.00846337726810
C   1.22670532178455     -3.54347386990643     -0.00780316414624
C   -2.45512491866593      2.83421703463423     -0.00818572995999
C   4.91452486062398     -1.42718653794377      0.00136387641845
C   1.22142509354026      4.97013443726031      0.00150231067809
C   4.89300870916237      2.82518837202648     -0.00039219795739
C   -1.22669652864725     -3.54347062507680     -0.00753595973677
C   -3.68181849668397      0.70932533873199     -0.00807686886569
C   3.69314758099218     -3.54280096939050      0.00148176697923
C   -1.22143177215231      4.97012866986289      0.00168580605083
C   6.13477145276790      0.68054831910577     -0.00083909176631
C   3.65678936045204      4.97295361556775     -0.00065042889723
C   -2.45512642789169     -2.83421472106065      0.00758666850712
C   -3.68181869921921     -0.70932533146830      0.00810055625144
C   4.89301309775526     -2.82519973363176      0.00021895393805
C   -0.00000059327114      5.65044773803267      0.00045449734393
C   6.13477559217374     -0.68055448207492      0.00042622874941
C   2.47813196269732      5.65357712333155      0.00063835075260
C   1.22142288457925     -4.97012668293268     -0.00129718634452
C   -3.69316190412301      3.54279732619245     -0.00139355922051
C   -1.22142804110313     -4.97011793159564     -0.00140994817719
C   -4.91452132810043      1.42717581899491     -0.00153192130862
C   3.65678749952045     -4.97295485423912      0.00080007163680
C   -2.47813805026426      5.65357479452875      0.00092287576113
C   -3.69314125872231     -3.54278984697859      0.00136564082345
C   -4.91451200321153     -1.42718062802730      0.00139857359209
C   -0.00000552908399     -5.65043791501335      0.00005899322272
C   -4.89302000425900      2.82518897091939     -0.00040227981744
C   2.47812647313991     -5.65357317188818     -0.00029052915548
C   -3.65679823041642      4.97295655404175     -0.00047374852278
C   -4.89299899901461     -2.82519139505969      0.00006491824035
C   -2.47812801824129     -5.65356579800621     -0.00056571680280
C   -6.13477002348955      0.68054913825639     -0.00086464346868
C   -3.65678835334731     -4.97294365097028      0.00058578382008
C   -6.13476456307132     -0.68055354348201      0.00040575295444
H   5.83528897565761      3.36927626695423      0.00396712770529
H   7.07385965258860      1.22821762089947     -0.00037744837300
H   4.60066374401555      5.51238117445323     -0.00014522814529
H   5.83528386714679     -3.36930568472863     -0.00423551337640
H   -0.00001167146422      6.73853104613662     -0.00389474766392
H   7.07386165167227     -1.22822657074368     -0.00008250934481
H   2.47331421164041      6.74068466339473      0.00017162982210
H   4.60066897122302     -5.51237575717576      0.00039007446835
H   -2.47331820069565      6.74068209160650      0.00047297644710
H   -0.00000978838621     -6.73852780445195      0.00458867820736
H   -5.83530143450167      3.36927132229595      0.00410314985360
H   2.47330840367253     -6.74068500242887      0.00027980126949
H   -4.60067436136587      5.51237839860371      0.00002010017831
H   -5.83527902699321     -3.36928859177951     -0.00451481925734
H   -2.47329986759855     -6.74067870613986     -0.00016951527498
H   -7.07385728692578      1.22822084484047     -0.00046143985387
H   -4.60067330624313     -5.51236229778631      0.00021776644566
H   -7.07385645456741     -1.22822025997701     -0.00017736581114

    units angstrom      # Angstroms are the default
    no_reorient         # Geometry fixed, default
    symmetry c1         # C1 symmetry, default
}

set {
    scf_type DF         # Density fitting, faster than exact integrals
    freeze_core True    # Freeze core electrons
    basis jun-cc-pVDZ   # Jun-cc-pVDZ basis set, recommended for sSAPT0 in https://doi.org/10.1063/1.4867135
}

energy('ssapt0')        # Compute sSAPT0 energy, includes also SAPT0
--------------------------------------------------------------------------

  //              Dimer HF             //
    Molecular point group: c1
  Charge       = 1
  Multiplicity = 1
  Basis Set: JUN-CC-PVDZ
    Blend: JUN-CC-PVDZ
  Basis Set: (JUN-CC-PVDZ AUX)
    Blend: JUN-CC-PVDZ-JKFIT
  @DF-RHF Final Energy: -2359.21331743050951
    Total Energy =                      -2359.2133174305090506
 Dipole X            :         -0.0021690            0.0006313           -0.0015377
 Dipole Y            :         -0.0519927            0.0560211            0.0040284
 Dipole Z            :         16.4923555          -22.0915312           -5.5991757
 Magnitude           :                                                    5.5991773
  //            Monomer A HF           //
    Molecular point group: c1
  Multiplicity = 1
  Basis Set: JUN-CC-PVDZ
    Blend: JUN-CC-PVDZ
  Basis Set: (JUN-CC-PVDZ AUX)
    Blend: JUN-CC-PVDZ-JKFIT
  @DF-RHF Final Energy:  -303.29797920458412
    Total Energy =                       -303.2979792045841236
  //            Monomer B HF           //
    Molecular point group: c1

    Geometry (in Angstrom), charge = 0, multiplicity = 1:

       Center              X                  Y                   Z               Mass
    ------------   -----------------  -----------------  -----------------  -----------------
      Gh(C)           0.680066520158    -0.008042372515    -5.230839494352    12.000000000000
      Gh(C)          -0.680504479842    -0.006014372515    -5.230455494352    12.000000000000
      Gh(N)          -1.085635479842    -0.005016372515    -3.912131494352    14.003074004430
      Gh(C)           0.000107520158    -0.001740372515    -3.130730494352    12.000000000000
      Gh(C)          -2.477365479842     0.044389627485    -3.444152494352    12.000000000000
      Gh(N)           1.085221520158    -0.005016372515    -3.912131494352    14.003074004430
      Gh(H)           1.385145520158    -0.015870372515    -6.048278494352     1.007825032230
      Gh(H)          -1.385302479842    -0.006204372515    -6.048124494352     1.007825032230
      Gh(H)          -0.000009479842     0.000006627485    -2.049641494352     1.007825032230
      Gh(C)           2.478116520158    -0.021908372515    -3.447033494352    12.000000000000
      Gh(H)           2.490591520158     0.005436627485    -2.356780494352     1.007825032230
      Gh(H)           2.967027520158    -0.935354372515    -3.794209494352     1.007825032230
      Gh(H)           3.001427520158     0.853574627485    -3.838505494352     1.007825032230
      Gh(H)          -2.857359479842     1.066460627485    -3.524111494352     1.007825032230
      Gh(H)          -3.082679479842    -0.625694372515    -4.057216494352     1.007825032230
      Gh(H)          -2.518128479842    -0.282594372515    -2.404204494352     1.007825032230
         C            1.225311895423     0.707538288405     0.591227132932    12.000000000000
         C            1.225323856051    -0.707538895085     0.578896323362    12.000000000000
         C           -0.000006153932     1.414965913575     0.578362699841    12.000000000000
         C            2.456448753949     1.418327886663     0.594113990332    12.000000000000
         C            0.000010827279    -1.414976499150     0.588562257165    12.000000000000
         C           -1.225300948908     0.707545373469     0.593478653255    12.000000000000
         C            2.456437755320    -1.418323304396     0.576651166505    12.000000000000
         C           -0.000001332978     2.836801030766     0.575959149707    12.000000000000
         C            3.681826697470     0.709317955486     0.576999956303    12.000000000000
         C            2.455120048865     2.834223660974     0.576897399342    12.000000000000
         C            3.681821105219    -0.709333839944     0.593072440321    12.000000000000
         C           -1.225313598688    -0.707527516059     0.579969084789    12.000000000000
         C            1.226699581202     3.543469483479     0.593256472252    12.000000000000
         C            0.000004784858    -2.836782139751     0.593410424787    12.000000000000
         C           -2.456436032848     1.418316917770     0.593514049100    12.000000000000
         C            2.455123417779    -2.834230029103     0.592920531954    12.000000000000
         C           -1.226714364589     3.543469063235     0.593359805471    12.000000000000
         C            4.914517295202     1.427172871975     0.583480639332    12.000000000000
         C            3.693150191476     3.542795292030     0.583530438968    12.000000000000
         C           -2.456437600068    -1.418313281354     0.576626128380    12.000000000000
         C            1.226704841943    -3.543474242421     0.577286341502    12.000000000000
         C           -2.455125398508     2.834216662119     0.576903775688    12.000000000000
         C            4.914524380782    -1.427186910459     0.586453382067    12.000000000000
         C            1.221424613699     4.970134064745     0.586591816326    12.000000000000
         C            4.893008229321     2.825187999512     0.584697307691    12.000000000000
         C           -1.226697008489    -3.543470997592     0.577553545912    12.000000000000
         C           -3.681818976526     0.709324966217     0.577012636783    12.000000000000
         C            3.693147101150    -3.542801341905     0.586571272628    12.000000000000
         C           -1.221432251994     4.970128297348     0.586775311699    12.000000000000
         C            6.134770972926     0.680547946591     0.584250413882    12.000000000000
         C            3.656788880610     4.972953243053     0.584439076751    12.000000000000
         C           -2.455126907733    -2.834215093576     0.592676174155    12.000000000000
         C           -3.681819179061    -0.709325703983     0.593190061900    12.000000000000
         C            4.893012617914    -2.825200106147     0.585308459586    12.000000000000
         C           -0.000001073113     5.650447365518     0.585544002992    12.000000000000
         C            6.134775112332    -0.680554854590     0.585515734398    12.000000000000
         C            2.478131482856     5.653576750817     0.585727856401    12.000000000000
         C            1.221422404738    -4.970127055448     0.583792319304    12.000000000000
         C           -3.693162383965     3.542796953677     0.583695946428    12.000000000000
         C           -1.221428520945    -4.970118304111     0.583679557471    12.000000000000
         C           -4.914521807942     1.427175446480     0.583557584340    12.000000000000
         C            3.656787019679    -4.972955226754     0.585889577285    12.000000000000
         C           -2.478138530106     5.653574422014     0.586012381409    12.000000000000
         C           -3.693141738564    -3.542790219494     0.586455146472    12.000000000000
         C           -4.914512483053    -1.427181000542     0.586488079240    12.000000000000
         C           -0.000006008926    -5.650438287528     0.585148498871    12.000000000000
         C           -4.893020484101     2.825188598404     0.584687225831    12.000000000000
         C            2.478125993298    -5.653573544403     0.584798976493    12.000000000000
         C           -3.656798710258     4.972956181527     0.584615757126    12.000000000000
         C           -4.892999478856    -2.825191767575     0.585154423889    12.000000000000
         C           -2.478128498083    -5.653566170521     0.584523788846    12.000000000000
         C           -6.134770503331     0.680548765741     0.584224862180    12.000000000000
         C           -3.656788833189    -4.972944023485     0.585675289468    12.000000000000
         C           -6.134765042913    -0.680553915997     0.585495258603    12.000000000000
         H            5.835288495816     3.369275894439     0.589056633354     1.007825032230
         H            7.073859172747     1.228217248385     0.584712057275     1.007825032230
         H            4.600663264174     5.512380801938     0.584944277503     1.007825032230
         H            5.835283387305    -3.369306057244     0.580853992272     1.007825032230
         H           -0.000012151306     6.738530673622     0.581194757984     1.007825032230
         H            7.073861171831    -1.228226943259     0.585006996304     1.007825032230
         H            2.473313731799     6.740684290880     0.585261135470     1.007825032230
         H            4.600668491381    -5.512376129691     0.585479580117     1.007825032230
         H           -2.473318680537     6.740681719092     0.585562482095     1.007825032230
         H           -0.000010268228    -6.738528176967     0.589678183856     1.007825032230
         H           -5.835301914343     3.369270949781     0.589192655502     1.007825032230
         H            2.473307923831    -6.740685374944     0.585369306918     1.007825032230
         H           -4.600674841208     5.512378026089     0.585109605827     1.007825032230
         H           -5.835279506835    -3.369288964294     0.580574686391     1.007825032230
         H           -2.473300347440    -6.740679078655     0.584919990373     1.007825032230
         H           -7.073857766768     1.228220472326     0.584628065794     1.007825032230
         H           -4.600673786085    -5.512362670301     0.585307272094     1.007825032230
         H           -7.073856934409    -1.228220632492     0.584912139837     1.007825032230

  Charge       = 0
  Multiplicity = 1
  Basis Set: JUN-CC-PVDZ
    Blend: JUN-CC-PVDZ
  Basis Set: (JUN-CC-PVDZ AUX)
    Blend: JUN-CC-PVDZ-JKFIT

    Orbital Energies [Eh]
    ---------------------

    Doubly Occupied:

       1A    -11.260585     2A    -11.260170     3A    -11.260096
       4A    -11.259423     5A    -11.259364     6A    -11.259210
       7A    -11.258985     8A    -11.258931     9A    -11.258885
      10A    -11.258586    11A    -11.258571    12A    -11.258479
      13A    -11.258421    14A    -11.258415    15A    -11.258412
      16A    -11.258381    17A    -11.258372    18A    -11.258355
      19A    -11.258349    20A    -11.258341    21A    -11.258338
      22A    -11.258281    23A    -11.258251    24A    -11.258007
      25A    -11.257289    26A    -11.257250    27A    -11.257198
      28A    -11.257108    29A    -11.257062    30A    -11.257000
      31A    -11.256390    32A    -11.256347    33A    -11.256281
      34A    -11.256219    35A    -11.256171    36A    -11.256145
      37A    -11.252230    38A    -11.252230    39A    -11.252227
      40A    -11.252227    41A    -11.252212    42A    -11.252212
      43A    -11.251329    44A    -11.251327    45A    -11.251324
      46A    -11.251320    47A    -11.251317    48A    -11.251314
      49A    -11.250792    50A    -11.250791    51A    -11.250788
      52A    -11.250788    53A    -11.250773    54A    -11.250773
      55A     -1.243936    56A     -1.219710    57A     -1.219687
      58A     -1.189442    59A     -1.189426    60A     -1.180826
      61A     -1.157465    62A     -1.148877    63A     -1.135386
      64A     -1.135357    65A     -1.113099    66A     -1.113094
      67A     -1.082320    68A     -1.082308    69A     -1.078487
      70A     -1.065893    71A     -1.065884    72A     -1.039294
      73A     -1.024149    74A     -1.021651    75A     -1.021585
      76A     -1.017633    77A     -1.012710    78A     -0.986912
      79A     -0.986853    80A     -0.961787    81A     -0.961729
      82A     -0.894184    83A     -0.894163    84A     -0.887800
      85A     -0.886048    86A     -0.886005    87A     -0.881270
      88A     -0.881228    89A     -0.861798    90A     -0.837327
      91A     -0.818098    92A     -0.816488    93A     -0.812014
      94A     -0.812010    95A     -0.794594    96A     -0.794579
      97A     -0.746494    98A     -0.744738    99A     -0.733292
     100A     -0.733284   101A     -0.732079   102A     -0.732058
     103A     -0.716380   104A     -0.698880   105A     -0.698843
     106A     -0.693487   107A     -0.693438   108A     -0.661132
     109A     -0.652989   110A     -0.651028   111A     -0.650161
     112A     -0.650149   113A     -0.639266   114A     -0.639239
     115A     -0.629596   116A     -0.627400   117A     -0.627390
     118A     -0.606417   119A     -0.605737   120A     -0.601532
     121A     -0.599645   122A     -0.599575   123A     -0.593513
     124A     -0.591093   125A     -0.591056   126A     -0.585197
     127A     -0.576462   128A     -0.576314   129A     -0.567236
     130A     -0.567211   131A     -0.565835   132A     -0.565823
     133A     -0.558598   134A     -0.554750   135A     -0.554738
     136A     -0.538494   137A     -0.538493   138A     -0.538208
     139A     -0.538148   140A     -0.529606   141A     -0.528150
     142A     -0.522778   143A     -0.522739   144A     -0.500405
     145A     -0.495582   146A     -0.493132   147A     -0.487789
     148A     -0.484948   149A     -0.481638   150A     -0.481634
     151A     -0.470318   152A     -0.470249   153A     -0.450876
     154A     -0.450811   155A     -0.439015   156A     -0.439013
     157A     -0.404712   158A     -0.404649   159A     -0.403323
     160A     -0.375370   161A     -0.375366   162A     -0.349079
     163A     -0.337523   164A     -0.336470   165A     -0.336459
     166A     -0.311031   167A     -0.298059   168A     -0.284263
     169A     -0.284224   170A     -0.224841   171A     -0.224782

  @DF-RHF Final Energy: -2055.89469613194888

   => Energetics <=

    Nuclear Repulsion Energy =           6452.5568002797781446
    One-Electron Energy =              -15636.5129949774945999
    Two-Electron Energy =                7128.0614985657666693
    Total Energy =                      -2055.8946961319488764
 Dipole X            :         -0.0001711           -0.0000085           -0.0001796
 Dipole Y            :         -0.0002667            0.0000167           -0.0002500
 Dipole Z            :       -378.1291998          378.1339092            0.0047094
 Magnitude           :                                                    0.0047195

    SAPT Results
  --------------------------------------------------------------------------------------------------------
    Electrostatics                -13.62841392 [mEh]      -8.55195885 [kcal/mol]     -35.78139583 [kJ/mol]
      Elst10,r                    -13.62841392 [mEh]      -8.55195885 [kcal/mol]     -35.78139583 [kJ/mol]

    Exchange                        4.78251102 [mEh]       3.00107097 [kcal/mol]      12.55648095 [kJ/mol]
      Exch10                        4.78251102 [mEh]       3.00107097 [kcal/mol]      12.55648095 [kJ/mol]
      Exch10(S^2)                   4.77486012 [mEh]       2.99626996 [kcal/mol]      12.53639352 [kJ/mol]

    Induction                     -11.79619107 [mEh]      -7.40222165 [kcal/mol]     -30.97089540 [kJ/mol]
      Ind20,r                     -11.32832591 [mEh]      -7.10863183 [kcal/mol]     -29.74251559 [kJ/mol]
      Exch-Ind20,r                  0.99851925 [mEh]       0.62658029 [kcal/mol]       2.62161193 [kJ/mol]
      delta HF,r (2)               -1.46638441 [mEh]      -0.92017011 [kcal/mol]      -3.84999173 [kJ/mol]

    Dispersion                    -14.62567489 [mEh]      -9.17774955 [kcal/mol]     -38.39970414 [kJ/mol]
      Disp20                      -15.12127813 [mEh]      -9.48874528 [kcal/mol]     -39.70091026 [kJ/mol]
      Exch-Disp20                   0.49560324 [mEh]       0.31099573 [kcal/mol]       1.30120612 [kJ/mol]
      Disp20 (SS)                  -7.56063906 [mEh]      -4.74437264 [kcal/mol]     -19.85045513 [kJ/mol]
      Disp20 (OS)                  -7.56063906 [mEh]      -4.74437264 [kcal/mol]     -19.85045513 [kJ/mol]
      Exch-Disp20 (SS)              0.30261857 [mEh]       0.18989602 [kcal/mol]       0.79452494 [kJ/mol]
      Exch-Disp20 (OS)              0.19298467 [mEh]       0.12109971 [kcal/mol]       0.50668118 [kJ/mol]

  Total HF                        -20.64209398 [mEh]     -12.95310953 [kcal/mol]     -54.19581027 [kJ/mol]
  Total SAPT0                     -35.26776887 [mEh]     -22.13085908 [kcal/mol]     -92.59551441 [kJ/mol]

  Special recipe for scaled SAPT0 (see Manual):
    Electrostatics sSAPT0         -13.62841392 [mEh]      -8.55195885 [kcal/mol]     -35.78139583 [kJ/mol]
    Exchange sSAPT0                 4.78251102 [mEh]       3.00107097 [kcal/mol]      12.55648095 [kJ/mol]
    Induction sSAPT0              -11.79138351 [mEh]      -7.39920486 [kcal/mol]     -30.95827313 [kJ/mol]
    Dispersion sSAPT0             -14.62328871 [mEh]      -9.17625220 [kcal/mol]     -38.39343923 [kJ/mol]
  Total sSAPT0                    -35.26057512 [mEh]     -22.12634494 [kcal/mol]     -92.57662723 [kJ/mol]
  --------------------------------------------------------------------------------------------------------

*** Psi4 exiting successfully. Buy a developer a beer!
