                               Psi4 1.9 release

  ==> Input File <==

--------------------------------------------------------------------------
memory 64 GB # how much memory is available ! Depends on the nodes/cores !

molecule dimer {
# monomer A
+1 1    # Charge and multiplicity
C  0.680067 -0.008042 -5.415929
C -0.680504 -0.006014 -5.415545
N -1.085635 -0.005016 -4.097221
C  0.000108 -0.001740 -3.315820
C -2.477365  0.044390 -3.629242
N  1.085222 -0.005016 -4.097221
H  1.385146 -0.015870 -6.233368
H -1.385302 -0.006204 -6.233214
H -0.000009  0.000007 -2.234731
C  2.478117 -0.021908 -3.632123
H  2.490592  0.005437 -2.541870
H  2.967028 -0.935354 -3.979299
H  3.001428  0.853575 -4.023595
H -2.857359  1.066461 -3.709201
H -3.082679 -0.625694 -4.242306
H -2.518128 -0.282594 -2.589294
--
# monomer B
0 1     # Charge and multiplicity
C   -3.66844126402057      7.80375217008252      0.00190004133558
C   -4.84759871934653      7.13124183134024     -0.00046653359696
C   -4.89495929917518      5.69633040353158     -0.00103944469517
C   -3.65374067877320      4.98073034095895      0.00662099703436
C   -2.40942512149445      7.11398103667468      0.00209438359570
C   -2.42547734410473      5.68112195090346     -0.00491050527438
C   -1.19474401643570      7.78614419430947      0.00356656413763
C   0.03795902893699      7.09942164575698      0.00139585983271
C   0.03033258741920      5.66948955970466     -0.00408752508301
C   -1.20098450790502      4.96927034791531      0.00488220885047
C   1.27795782581485      7.77285944319479      0.00277170839332
C   2.48535808472416      7.08769688523756      0.00049722048857
C   2.48612868491717      5.65477081024076     -0.00644052849921
C   1.25408291964399      4.95607811366431      0.00518741308898
C   3.75171459140595      7.76391215098033      0.00062407186893
C   4.92356605618520      7.07878077698995     -0.00143240883900
C   4.95560727132542      5.64344746336949     -0.00159282164606
C   3.70680153420475      4.94121020833308      0.00349873852374
H   -3.65852113775815      8.89082741913536      0.00358502958574
H   -1.18921332975660      8.87412108735996      0.00753844057883
H   1.28429423888630      8.86083343548850      0.00693053253426
H   3.75354208679975      8.85103527897216      0.00214659618464
H   5.86995870320703      7.61379483465560     -0.00235777588134
H   -5.78823170750226      7.67630221293400     -0.00202638095293
C   -6.09197395869619      4.99326001364347     -0.00291168518608
C   -6.12866148031747      3.58258016879823     -0.00171050815740
C   -3.66457974004527      3.56418217974434     -0.00463560277484
C   -4.89429820469869      2.86108077590057      0.00453338221034
C   -2.43733499489796      2.84761165708481      0.00719617576166
C   -1.20922785759670      3.54788693497833     -0.00648285103018
C   1.24714157216223      3.53468075142962     -0.00729145743546
C   0.01517603956900      2.83311183930540      0.00439272578912
C   2.46764517244071      2.82128997725533      0.00449278391269
C   3.70254947457969      3.52466015442405     -0.00899517692985
C   6.14498038638375      4.92757236613191     -0.00282626685777
C   6.16658835886151      3.51658447594213     -0.00065971342101
C   4.92460995845939      2.80840792535402      0.00587903281610
H   7.08990550964105      5.46688776622306     -0.00658814770723
H   -7.03104175110130      5.54268795285765     -0.00714490013730
C   -7.33969804112295      2.85841153457957     -0.00333767559888
C   -7.36488195805880      1.47032337158330     -0.00157213747140
C   -4.90350460894690      1.44442681216000     -0.00628840166334
C   -6.13225715261081      0.73993935705394      0.00600164231964
C   -3.67687480051673      0.72669714267312      0.00433931473643
C   -2.44565658606518      1.42964113326212     -0.00597039546461
C   -1.22360068130162      0.71532450163492      0.00545886906656
C   0.00763786931376      1.41738314923765      0.00392452278437
C   1.23121980774686      0.70211669058719     -0.01490206287210
C   2.46082110053113      1.40329203612573      0.00460244601878
C   3.68443025419614      0.68719842821222      0.00377365974158
C   4.91870890153864      1.39173456118907     -0.00862816189375
C   7.36980207796101      2.77948220318441     -0.00242013321349
C   7.38016266612146      1.39121750785509     -0.00087345036788
C   6.13979953912259      0.67411862320065      0.00545489144369
H   -8.27919079934664      3.40711804112415     -0.00763522772059
H   8.31511347147953      3.31811809662368     -0.00663070901292
C   -8.59175593758115      0.72483255304480     -0.00123170985383
C   -8.59902460370342     -0.63263980622873      0.00089141472904
C   -6.13981313911873     -0.67413663715361     -0.00609792660607
C   -7.38018411213749     -1.39126618958160      0.00131813493501
C   -4.91868448025621     -1.39175501803000      0.00624257154343
C   -3.68443829568458     -0.68723731573599     -0.00478966852105
C   -2.46081704024768     -1.40334517882457      0.00575341766833
C   -1.23116201232071     -0.70217386488055     -0.00636696112346
C   -0.00756962538737     -1.41741884941102      0.00108956317991
C   1.22364771588843     -0.71527537726392      0.01109518512883
C   2.44567064933149     -1.42964328900682     -0.00065482763106
C   3.67686670284649     -0.72670743155550     -0.00479541202602
C   6.13224884641929     -0.73997883984993     -0.00632338623858
C   4.90351914550401     -1.44445752054090      0.00751768830159
C   8.59901484869081      0.63260386666793     -0.00101133422380
C   8.59174548810050     -0.72485086719319      0.00072504603735
C   7.36486276438985     -1.47033266560598      0.00049486934466
H   -9.52830597181814      1.27684744919284     -0.00270163681798
H   9.54141097460619      1.17457248844457     -0.00206336648518
C   -7.36983790976868     -2.77954514593389      0.00312634335708
C   -4.92459910905015     -2.80843725734101     -0.00460528907921
C   -6.16662249566744     -3.51665219282533      0.00169655107992
C   -3.70251035970491     -3.52468154912026      0.00571878010666
C   -2.46764698511392     -2.82132596280400     -0.00632585824990
C   -0.01513347410770     -2.83314164539971     -0.00604426974092
C   -1.24712184122656     -3.53473217556300      0.00551968366725
C   1.20924506964357     -3.54791467864352      0.00805871345849
C   2.43733602215464     -2.84764173817541     -0.00608104485234
C   4.89430234377080     -2.86112296828604     -0.00526030478103
C   3.66461525504104     -3.56421984553201      0.00761911515957
C   6.12863901474565     -3.58258405771778      0.00096495711699
C   7.33967266469532     -2.85841330737039      0.00248018319869
H   -9.54144911125902     -1.17456346666430      0.00226083090216
H   9.52826186807155     -1.27691907390448      0.00197485379837
H   -8.31516504384864     -3.31814985321231      0.00729857188773
H   8.27915514249207     -3.40714078989363      0.00681973918158
C   -6.14499418870218     -4.92764727278338      0.00302254913999
C   -3.70678334799751     -4.94126171411716     -0.00679841894792
C   -4.95559005800169     -5.64349397349412      0.00116871569699
C   -2.48612132622665     -5.65478557440947      0.00614125209662
C   -1.25405833548005     -4.95612205000132     -0.00503435388927
C   1.20101257386816     -4.96928038819302     -0.00385322963129
C   -0.03033667441341     -5.66952030313900      0.00398997003238
C   3.65375010132847     -4.98074377541453     -0.00309522988330
C   2.42549269587528     -5.68117463552727      0.00628170066869
C   6.09196561781097     -4.99325796338655      0.00325918379042
C   4.89497644461045     -5.69634842095790      0.00202298796027
H   -7.08989238804069     -5.46699984223871      0.00742531082125
H   7.03105520920009     -5.54265853633254      0.00683896355417
C   -4.92354532219813     -7.07882109967734      0.00061394679214
C   -2.48534208823777     -7.08772807792913     -0.00189594564379
C   -3.75168589177895     -7.76394715763627     -0.00170126671874
C   -0.03794895698805     -7.09946487446944     -0.00168022049625
C   -1.27795610040136     -7.77290438466689     -0.00366491325785
C   2.40944432072629     -7.11402201200282     -0.00081701968533
C   1.19474993715296     -7.78618536556242     -0.00296931056689
C   4.84762105249800     -7.13126211057943      0.00168979497423
C   3.66847160587561     -7.80378799294376     -0.00065863938960
H   -5.86994035041618     -7.61383059804164      0.00215798365757
H   5.78824962538815     -7.67633218931421      0.00281691445618
H   -3.75352693944918     -8.85107156923607     -0.00353718114765
H   -1.28430440589466     -8.86087539249706     -0.00809229711623
H   1.18922157469537     -8.87416062058945     -0.00706194725726
H   3.65854661482387     -8.89086063405326     -0.00231318081200

    units angstrom      # Angstroms are the default
    no_reorient         # Geometry fixed, default
    symmetry c1         # C1 symmetry, default
}

set {
    scf_type DF         # Density fitting, faster than exact integrals
    freeze_core True    # Freeze core electrons
    basis jun-cc-pVDZ   # Jun-cc-pVDZ basis set, recommended for sSAPT0 in https://doi.org/10.1063/1.4867135
}

energy('ssapt0')        # Compute sSAPT0 energy, includes also SAPT0
--------------------------------------------------------------------------

  //              Dimer HF             //
    Molecular point group: c1
  Charge       = 1
  Multiplicity = 1
  Basis Set: JUN-CC-PVDZ
    Blend: JUN-CC-PVDZ
  Basis Set: (JUN-CC-PVDZ AUX)
    Blend: JUN-CC-PVDZ-JKFIT
  @DF-RHF Final Energy: -3953.65905343295617
    Total Energy =                      -3953.6590534329552611
 Dipole X            :         -0.0019226            0.0004804           -0.0014422
 Dipole Y            :         -0.0515684            0.0561130            0.0045446
 Dipole Z            :         18.5902418          -23.6212722           -5.0310305
 Magnitude           :                                                    5.0310327
  //            Monomer A HF           //
    Molecular point group: c1
  Multiplicity = 1
  Basis Set: JUN-CC-PVDZ
    Blend: JUN-CC-PVDZ
  Basis Set: (JUN-CC-PVDZ AUX)
    Blend: JUN-CC-PVDZ-JKFIT
  @DF-RHF Final Energy:  -303.29838018076572
    Total Energy =                       -303.2983801807657187
  //            Monomer B HF           //
    Molecular point group: c1

    Geometry (in Angstrom), charge = 0, multiplicity = 1:

       Center              X                  Y                   Z               Mass
    ------------   -----------------  -----------------  -----------------  -----------------
      Gh(C)           0.680062820275    -0.008027535675    -5.095717220331    12.000000000000
      Gh(C)          -0.680508179725    -0.005999535675    -5.095333220331    12.000000000000
      Gh(N)          -1.085639179725    -0.005001535675    -3.777009220331    14.003074004430
      Gh(C)           0.000103820275    -0.001725535675    -2.995608220331    12.000000000000
      Gh(C)          -2.477369179725     0.044404464325    -3.309030220331    12.000000000000
      Gh(N)           1.085217820275    -0.005001535675    -3.777009220331    14.003074004430
      Gh(H)           1.385141820275    -0.015855535675    -5.913156220331     1.007825032230
      Gh(H)          -1.385306179725    -0.006189535675    -5.913002220331     1.007825032230
      Gh(H)          -0.000013179725     0.000021464325    -1.914519220331     1.007825032230
      Gh(C)           2.478112820275    -0.021893535675    -3.311911220331    12.000000000000
      Gh(H)           2.490587820275     0.005451464325    -2.221658220331     1.007825032230
      Gh(H)           2.967023820275    -0.935339535675    -3.659087220331     1.007825032230
      Gh(H)           3.001423820275     0.853589464325    -3.703383220331     1.007825032230
      Gh(H)          -2.857363179725     1.066475464325    -3.388989220331     1.007825032230
      Gh(H)          -3.082683179725    -0.625679535675    -3.922094220331     1.007825032230
      Gh(H)          -2.518132179725    -0.282579535675    -2.269082220331     1.007825032230
         C           -3.668445443746     7.803766634408     0.322111821005    12.000000000000
         C           -4.847602899072     7.131256295665     0.319745246072    12.000000000000
         C           -4.894963478901     5.696344867857     0.319172334974    12.000000000000
         C           -3.653744858499     4.980744805284     0.326832776703    12.000000000000
         C           -2.409429301220     7.113995501000     0.322306163265    12.000000000000
         C           -2.425481523830     5.681136415228     0.315301274395    12.000000000000
         C           -1.194748196161     7.786158658634     0.323778343807    12.000000000000
         C            0.037954849212     7.099436110082     0.321607639502    12.000000000000
         C            0.030328407694     5.669504024030     0.316124254586    12.000000000000
         C           -1.200988687630     4.969284812240     0.325093988519    12.000000000000
         C            1.277953646089     7.772873907520     0.322983488062    12.000000000000
         C            2.485353904999     7.087711349563     0.320709000158    12.000000000000
         C            2.486124505192     5.654785274566     0.313771251170    12.000000000000
         C            1.254078739919     4.956092577989     0.325399192758    12.000000000000
         C            3.751710411681     7.763926615305     0.320835851538    12.000000000000
         C            4.923561876460     7.078795241315     0.318779370830    12.000000000000
         C            4.955603091600     5.643461927694     0.318618958023    12.000000000000
         C            3.706797354479     4.941224672658     0.323710518193    12.000000000000
         H           -3.658525317484     8.890841883460     0.323796809255     1.007825032230
         H           -1.189217509482     8.874135551685     0.327750220248     1.007825032230
         H            1.284290059161     8.860847899813     0.327142312203     1.007825032230
         H            3.753537907074     8.851049743297     0.322358375854     1.007825032230
         H            5.869954523482     7.613809298981     0.317854003788     1.007825032230
         H           -5.788235887228     7.676316677259     0.318185398716     1.007825032230
         C           -6.091978138422     4.993274477968     0.317300094483    12.000000000000
         C           -6.128665660043     3.582594633123     0.318501271512    12.000000000000
         C           -3.664583919771     3.564196644069     0.315576176894    12.000000000000
         C           -4.894302384424     2.861095240226     0.324745161879    12.000000000000
         C           -2.437339174623     2.847626121410     0.327407955431    12.000000000000
         C           -1.209232037322     3.547901399303     0.313728928639    12.000000000000
         C            1.247137392437     3.534695215755     0.312920322234    12.000000000000
         C            0.015171859844     2.833126303630     0.324604505458    12.000000000000
         C            2.467640992715     2.821304441580     0.324704563582    12.000000000000
         C            3.702545294854     3.524674618749     0.311216602739    12.000000000000
         C            6.144976206658     4.927586830457     0.317385512811    12.000000000000
         C            6.166584179136     3.516598940267     0.319552066248    12.000000000000
         C            4.924605778734     2.808422389679     0.326090812485    12.000000000000
         H            7.089901329916     5.466902230548     0.313623631962     1.007825032230
         H           -7.031045930827     5.542702417183     0.313066879532     1.007825032230
         C           -7.339702220848     2.858425998905     0.316874104070    12.000000000000
         C           -7.364886137784     1.470337835908     0.318639642198    12.000000000000
         C           -4.903508788672     1.444441276485     0.313923378006    12.000000000000
         C           -6.132261332336     0.739953821379     0.326213421989    12.000000000000
         C           -3.676878980242     0.726711606998     0.324551094405    12.000000000000
         C           -2.445660765791     1.429655597587     0.314241384204    12.000000000000
         C           -1.223604861027     0.715338965960     0.325670648736    12.000000000000
         C            0.007633689588     1.417397613563     0.324136302453    12.000000000000
         C            1.231215628021     0.702131154912     0.305309716797    12.000000000000
         C            2.460816920806     1.403306500451     0.324814225688    12.000000000000
         C            3.684426074471     0.687212892537     0.323985439411    12.000000000000
         C            4.918704721813     1.391749025514     0.311583617775    12.000000000000
         C            7.369797898236     2.779496667509     0.317791646456    12.000000000000
         C            7.380158486396     1.391231972180     0.319338329301    12.000000000000
         C            6.139795359397     0.674133087526     0.325666671113    12.000000000000
         H           -8.279194979072     3.407132505449     0.312576551948     1.007825032230
         H            8.315109291754     3.318132560949     0.313581070656     1.007825032230
         C           -8.591760117307     0.724847017370     0.318980069815    12.000000000000
         C           -8.599028783429    -0.632625341904     0.321103194398    12.000000000000
         C           -6.139817318844    -0.674122172829     0.314113853063    12.000000000000
         C           -7.380188291863    -1.391251725257     0.321529914604    12.000000000000
         C           -4.918688659982    -1.391740553705     0.326454351212    12.000000000000
         C           -3.684442475410    -0.687222851411     0.315422111148    12.000000000000
         C           -2.460821219973    -1.403330714500     0.325965197337    12.000000000000
         C           -1.231166192046    -0.702159400556     0.313844818546    12.000000000000
         C           -0.007573805113    -1.417404385086     0.321301342849    12.000000000000
         C            1.223643536163    -0.715260912939     0.331306964798    12.000000000000
         C            2.445666469606    -1.429628824682     0.319556952038    12.000000000000
         C            3.676862523121    -0.726692967231     0.315416367643    12.000000000000
         C            6.132244666694    -0.739964375525     0.313888393430    12.000000000000
         C            4.903514965779    -1.444443056216     0.327729467971    12.000000000000
         C            8.599010668965     0.632618330993     0.319200445445    12.000000000000
         C            8.591741308375    -0.724836402868     0.320936825706    12.000000000000
         C            7.364858584664    -1.470318201281     0.320706649014    12.000000000000
         H           -9.528310151544     1.276861913518     0.317510142851     1.007825032230
         H            9.541406794881     1.174586952770     0.318148413184     1.007825032230
         C           -7.369842089494    -2.779530681609     0.323338123026    12.000000000000
         C           -4.924603288776    -2.808422793016     0.315606490590    12.000000000000
         C           -6.166626675393    -3.516637728500     0.321908330749    12.000000000000
         C           -3.702514539430    -3.524667084795     0.325930559776    12.000000000000
         C           -2.467651164839    -2.821311498479     0.313885921419    12.000000000000
         C           -0.015137653833    -2.833127181075     0.314167509928    12.000000000000
         C           -1.247126020952    -3.534717711238     0.325731463336    12.000000000000
         C            1.209240889918    -3.547900214319     0.328270493127    12.000000000000
         C            2.437331842429    -2.847627273850     0.314130734817    12.000000000000
         C            4.894298164045    -2.861108503961     0.314951474888    12.000000000000
         C            3.664611075316    -3.564205381207     0.327830894829    12.000000000000
         C            6.128634835020    -3.582569593393     0.321176736786    12.000000000000
         C            7.339668484970    -2.858398843045     0.322691962868    12.000000000000
         H           -9.541453290984    -1.174549002339     0.322472610571     1.007825032230
         H            9.528257688346    -1.276904609579     0.322186633467     1.007825032230
         H           -8.315169223574    -3.318135388887     0.327510351557     1.007825032230
         H            8.279150962767    -3.407126325569     0.327031518851     1.007825032230
         C           -6.144998368428    -4.927632808458     0.323234328809    12.000000000000
         C           -3.706787527723    -4.941247249792     0.313413360721    12.000000000000
         C           -4.955594237727    -5.643479509169     0.321380495366    12.000000000000
         C           -2.486125505952    -5.654771110084     0.326353031766    12.000000000000
         C           -1.254062515205    -4.956107585676     0.315177425780    12.000000000000
         C            1.201008394143    -4.969265923868     0.316358550038    12.000000000000
         C           -0.030340854139    -5.669505838814     0.324201749701    12.000000000000
         C            3.653745921603    -4.980729311090     0.317116549786    12.000000000000
         C            2.425488516150    -5.681160171202     0.326493480338    12.000000000000
         C            6.091961438086    -4.993243499062     0.323470963459    12.000000000000
         C            4.894972264885    -5.696333956633     0.322234767629    12.000000000000
         H           -7.089896567766    -5.466985377914     0.327637090490     1.007825032230
         H            7.031051029475    -5.542644072008     0.327050743223     1.007825032230
         C           -4.923549501924    -7.078806635352     0.320825726461    12.000000000000
         C           -2.485346267963    -7.087713613604     0.318315834025    12.000000000000
         C           -3.751690071504    -7.763932693311     0.318510512950    12.000000000000
         C           -0.037953136713    -7.099450410144     0.318531559173    12.000000000000
         C           -1.277960280127    -7.772889920342     0.316546866411    12.000000000000
         C            2.409440141001    -7.114007547678     0.319394759984    12.000000000000
         C            1.194745757428    -7.786170901237     0.317242469102    12.000000000000
         C            4.847616872773    -7.131247646254     0.321901574643    12.000000000000
         C            3.668467426150    -7.803773528619     0.319553140279    12.000000000000
         H           -5.869944530142    -7.613816133717     0.322369763327     1.007825032230
         H            5.788245445663    -7.676317724989     0.323028694125     1.007825032230
         H           -3.753531119175    -8.851057104911     0.316674598521     1.007825032230
         H           -1.284308585620    -8.860860928172     0.312119482553     1.007825032230
         H            1.189217394970    -8.874146156264     0.313149832412     1.007825032230
         H            3.658542435098    -8.890846169728     0.317898598857     1.007825032230

  Charge       = 0
  Multiplicity = 1
  Basis Set: JUN-CC-PVDZ
    Blend: JUN-CC-PVDZ
  Basis Set: (JUN-CC-PVDZ AUX)
    Blend: JUN-CC-PVDZ-JKFIT

    Orbital Energies [Eh]
    ---------------------

    Doubly Occupied:

       1A    -11.264033     2A    -11.263714     3A    -11.263646
       4A    -11.263292     5A    -11.263287     6A    -11.263230
       7A    -11.263123     8A    -11.263091     9A    -11.263053
      10A    -11.262864    11A    -11.262736    12A    -11.262722
      13A    -11.262243    14A    -11.262232    15A    -11.262220
      16A    -11.262166    17A    -11.262090    18A    -11.262072
      19A    -11.262031    20A    -11.261988    21A    -11.261981
      22A    -11.261878    23A    -11.261857    24A    -11.261712
      25A    -11.261711    26A    -11.261682    27A    -11.261676
      28A    -11.261637    29A    -11.261632    30A    -11.261540
      31A    -11.261522    32A    -11.261516    33A    -11.261505
      34A    -11.261495    35A    -11.261477    36A    -11.261468
      37A    -11.261292    38A    -11.261284    39A    -11.261277
      40A    -11.261275    41A    -11.261259    42A    -11.261253
      43A    -11.261244    44A    -11.261231    45A    -11.261222
      46A    -11.261201    47A    -11.261196    48A    -11.261191
      49A    -11.261035    50A    -11.261020    51A    -11.260980
      52A    -11.260940    53A    -11.260898    54A    -11.260857
      55A    -11.259870    56A    -11.259856    57A    -11.259853
      58A    -11.259825    59A    -11.259822    60A    -11.259806
      61A    -11.259241    62A    -11.259218    63A    -11.259209
      64A    -11.259162    65A    -11.259154    66A    -11.259128
      67A    -11.258872    68A    -11.258854    69A    -11.258852
      70A    -11.258825    71A    -11.258821    72A    -11.258810
      73A    -11.254496    74A    -11.254494    75A    -11.254488
      76A    -11.254488    77A    -11.254473    78A    -11.254465
      79A    -11.253619    80A    -11.253616    81A    -11.253602
      82A    -11.253598    83A    -11.253596    84A    -11.253590
      85A    -11.253534    86A    -11.253532    87A    -11.253516
      88A    -11.253512    89A    -11.253510    90A    -11.253503
      91A    -11.253024    92A    -11.253022    93A    -11.253015
      94A    -11.253015    95A    -11.253001    96A    -11.252993
      97A     -1.253841    98A     -1.238923    99A     -1.238886
     100A     -1.220391   101A     -1.220374   102A     -1.215350
     103A     -1.200971   104A     -1.195533   105A     -1.188058
     106A     -1.188033   107A     -1.173697   108A     -1.173696
     109A     -1.155538   110A     -1.155532   111A     -1.152628
     112A     -1.144659   113A     -1.144657   114A     -1.128482
     115A     -1.114624   116A     -1.113102   117A     -1.112402
     118A     -1.112367   119A     -1.111558   120A     -1.088348
     121A     -1.088326   122A     -1.076901   123A     -1.076900
     124A     -1.067534   125A     -1.067493   126A     -1.064882
     127A     -1.046725   128A     -1.046714   129A     -1.040397
     130A     -1.038678   131A     -1.038670   132A     -1.025147
     133A     -1.021290   134A     -1.021220   135A     -1.007109
     136A     -1.006722   137A     -1.003722   138A     -1.000403
     139A     -1.000343   140A     -0.991019   141A     -0.970909
     142A     -0.970853   143A     -0.955818   144A     -0.955757
     145A     -0.905494   146A     -0.905480   147A     -0.905450
     148A     -0.905446   149A     -0.904223   150A     -0.892254
     151A     -0.892203   152A     -0.890266   153A     -0.890212
     154A     -0.889360   155A     -0.872154   156A     -0.869007
     157A     -0.851465   158A     -0.847765   159A     -0.847758
     160A     -0.845500   161A     -0.842922   162A     -0.834477
     163A     -0.834473   164A     -0.828060   165A     -0.828049
     166A     -0.784473   167A     -0.784463   168A     -0.783573
     169A     -0.783558   170A     -0.782197   171A     -0.782180
     172A     -0.781939   173A     -0.766908   174A     -0.760693
     175A     -0.750479   176A     -0.733420   177A     -0.727003
     178A     -0.726957   179A     -0.724992   180A     -0.724467
     181A     -0.724429   182A     -0.718389   183A     -0.713677
     184A     -0.713669   185A     -0.699503   186A     -0.699475
     187A     -0.686026   188A     -0.685887   189A     -0.685871
     190A     -0.682094   191A     -0.682085   192A     -0.678693
     193A     -0.653548   194A     -0.650793   195A     -0.650756
     196A     -0.649709   197A     -0.649704   198A     -0.649493
     199A     -0.640841   200A     -0.640789   201A     -0.640011
     202A     -0.639090   203A     -0.635933   204A     -0.635898
     205A     -0.629053   206A     -0.617716   207A     -0.615237
     208A     -0.615207   209A     -0.608721   210A     -0.608715
     211A     -0.599165   212A     -0.599071   213A     -0.598661
     214A     -0.598502   215A     -0.598481   216A     -0.597938
     217A     -0.594993   218A     -0.594980   219A     -0.594639
     220A     -0.594119   221A     -0.591866   222A     -0.591862
     223A     -0.587281   224A     -0.577742   225A     -0.577719
     226A     -0.575682   227A     -0.575639   228A     -0.573300
     229A     -0.569549   230A     -0.568048   231A     -0.568022
     232A     -0.566664   233A     -0.566657   234A     -0.560852
     235A     -0.558636   236A     -0.558585   237A     -0.558364
     238A     -0.554281   239A     -0.550541   240A     -0.547414
     241A     -0.544224   242A     -0.534982   243A     -0.534937
     244A     -0.533458   245A     -0.533441   246A     -0.528005
     247A     -0.527983   248A     -0.527681   249A     -0.517065
     250A     -0.517043   251A     -0.515307   252A     -0.515302
     253A     -0.509565   254A     -0.509553   255A     -0.497943
     256A     -0.496375   257A     -0.496322   258A     -0.493767
     259A     -0.493704   260A     -0.489398   261A     -0.481373
     262A     -0.477366   263A     -0.477364   264A     -0.473911
     265A     -0.469336   266A     -0.466430   267A     -0.466425
     268A     -0.458765   269A     -0.446563   270A     -0.446513
     271A     -0.440972   272A     -0.440734   273A     -0.440675
     274A     -0.434635   275A     -0.433855   276A     -0.407309
     277A     -0.407297   278A     -0.386347   279A     -0.386283
     280A     -0.385681   281A     -0.385675   282A     -0.383686
     283A     -0.354259   284A     -0.354240   285A     -0.350601
     286A     -0.338014   287A     -0.335508   288A     -0.335481
     289A     -0.332664   290A     -0.332648   291A     -0.306989
     292A     -0.301862   293A     -0.301801   294A     -0.300794
     295A     -0.286104   296A     -0.256431   297A     -0.253410
     298A     -0.253371   299A     -0.204189   300A     -0.204114

  @DF-RHF Final Energy: -3650.34138841297772

   => Energetics <=

    Nuclear Repulsion Energy =          15611.4211649754306563
    One-Electron Energy =              -36072.1886129619451822
    Two-Electron Energy =               16810.4260595735395327
    Total Energy =                      -3650.3413884129768121
 Dipole X            :         -0.0007504            0.0002112           -0.0005392
 Dipole Y            :          0.0014564           -0.0013774            0.0000790
 Dipole Z            :       -363.0655582          363.0709313            0.0053731
 Magnitude           :                                                    0.0054007

    SAPT Results
  --------------------------------------------------------------------------------------------------------
    Electrostatics                -16.18138689 [mEh]     -10.15397357 [kcal/mol]     -42.48422543 [kJ/mol]
      Elst10,r                    -16.18138689 [mEh]     -10.15397357 [kcal/mol]     -42.48422543 [kJ/mol]

    Exchange                       16.81695051 [mEh]      10.55279577 [kcal/mol]      44.15289749 [kJ/mol]
      Exch10                       16.81695051 [mEh]      10.55279577 [kcal/mol]      44.15289749 [kJ/mol]
      Exch10(S^2)                  16.73059068 [mEh]      10.49860416 [kcal/mol]      43.92615979 [kJ/mol]

    Induction                     -19.92040283 [mEh]     -12.50024150 [kcal/mol]     -52.30101044 [kJ/mol]
      Ind20,r                     -20.51728622 [mEh]     -12.87479148 [kcal/mol]     -53.86812755 [kJ/mol]
      Exch-Ind20,r                  3.99966395 [mEh]       2.50982702 [kcal/mol]      10.50111626 [kJ/mol]
      delta HF,r (2)               -3.40278057 [mEh]      -2.13527704 [kcal/mol]      -8.93399915 [kJ/mol]

    Dispersion                    -25.15110139 [mEh]     -15.78255440 [kcal/mol]     -66.03420761 [kJ/mol]
      Disp20                      -26.68211816 [mEh]     -16.74328192 [kcal/mol]     -70.05389157 [kJ/mol]
      Exch-Disp20                   1.53101677 [mEh]       0.96072753 [kcal/mol]       4.01968397 [kJ/mol]
      Disp20 (SS)                 -13.34105908 [mEh]      -8.37164096 [kcal/mol]     -35.02694579 [kJ/mol]
      Disp20 (OS)                 -13.34105908 [mEh]      -8.37164096 [kcal/mol]     -35.02694579 [kJ/mol]
      Exch-Disp20 (SS)              0.92062893 [mEh]       0.57770337 [kcal/mol]       2.41711092 [kJ/mol]
      Exch-Disp20 (OS)              0.61038784 [mEh]       0.38302415 [kcal/mol]       1.60257305 [kJ/mol]

  Total HF                        -19.28483921 [mEh]     -12.10141931 [kcal/mol]     -50.63233838 [kJ/mol]
  Total SAPT0                     -44.43594060 [mEh]     -27.88397371 [kcal/mol]    -116.66654598 [kJ/mol]

  Special recipe for scaled SAPT0 (see Manual):
    Electrostatics sSAPT0         -16.18138689 [mEh]     -10.15397357 [kcal/mol]     -42.48422543 [kJ/mol]
    Exchange sSAPT0                16.81695051 [mEh]      10.55279577 [kcal/mol]      44.15289749 [kJ/mol]
    Induction sSAPT0              -19.85814628 [mEh]     -12.46117492 [kcal/mol]     -52.13755588 [kJ/mol]
    Dispersion sSAPT0             -25.12727043 [mEh]     -15.76760025 [kcal/mol]     -65.97163943 [kJ/mol]
  Total sSAPT0                    -44.34985309 [mEh]     -27.82995298 [kcal/mol]    -116.44052325 [kJ/mol]
  --------------------------------------------------------------------------------------------------------

*** Psi4 exiting successfully. Buy a developer a beer!
