                               Psi4 1.9 release

  ==> Input File <==

--------------------------------------------------------------------------
memory 64 GB # how much memory is available ! Depends on the nodes/cores !

molecule dimer {
# monomer A
+1 1    # Charge and multiplicity
C  0.680067 -0.008042 -8.415929
C -0.680504 -0.006014 -8.415545
N -1.085635 -0.005016 -7.097221
C  0.000108 -0.001740 -6.315820
C -2.477365  0.044390 -6.629242
N  1.085222 -0.005016 -7.097221
H  1.385146 -0.015870 -9.233368
H -1.385302 -0.006204 -9.233214
H -0.000009  0.000007 -5.234731
C  2.478117 -0.021908 -6.632123
H  2.490592  0.005437 -5.541870
H  2.967028 -0.935354 -6.979299
H  3.001428  0.853575 -7.023595
H -2.857359  1.066461 -6.709201
H -3.082679 -0.625694 -7.242306
H -2.518128 -0.282594 -5.589294
--
# monomer B
0 1     # Charge and multiplicity
C   -3.66844126402057      7.80375217008252      0.00190004133558
C   -4.84759871934653      7.13124183134024     -0.00046653359696
C   -4.89495929917518      5.69633040353158     -0.00103944469517
C   -3.65374067877320      4.98073034095895      0.00662099703436
C   -2.40942512149445      7.11398103667468      0.00209438359570
C   -2.42547734410473      5.68112195090346     -0.00491050527438
C   -1.19474401643570      7.78614419430947      0.00356656413763
C   0.03795902893699      7.09942164575698      0.00139585983271
C   0.03033258741920      5.66948955970466     -0.00408752508301
C   -1.20098450790502      4.96927034791531      0.00488220885047
C   1.27795782581485      7.77285944319479      0.00277170839332
C   2.48535808472416      7.08769688523756      0.00049722048857
C   2.48612868491717      5.65477081024076     -0.00644052849921
C   1.25408291964399      4.95607811366431      0.00518741308898
C   3.75171459140595      7.76391215098033      0.00062407186893
C   4.92356605618520      7.07878077698995     -0.00143240883900
C   4.95560727132542      5.64344746336949     -0.00159282164606
C   3.70680153420475      4.94121020833308      0.00349873852374
H   -3.65852113775815      8.89082741913536      0.00358502958574
H   -1.18921332975660      8.87412108735996      0.00753844057883
H   1.28429423888630      8.86083343548850      0.00693053253426
H   3.75354208679975      8.85103527897216      0.00214659618464
H   5.86995870320703      7.61379483465560     -0.00235777588134
H   -5.78823170750226      7.67630221293400     -0.00202638095293
C   -6.09197395869619      4.99326001364347     -0.00291168518608
C   -6.12866148031747      3.58258016879823     -0.00171050815740
C   -3.66457974004527      3.56418217974434     -0.00463560277484
C   -4.89429820469869      2.86108077590057      0.00453338221034
C   -2.43733499489796      2.84761165708481      0.00719617576166
C   -1.20922785759670      3.54788693497833     -0.00648285103018
C   1.24714157216223      3.53468075142962     -0.00729145743546
C   0.01517603956900      2.83311183930540      0.00439272578912
C   2.46764517244071      2.82128997725533      0.00449278391269
C   3.70254947457969      3.52466015442405     -0.00899517692985
C   6.14498038638375      4.92757236613191     -0.00282626685777
C   6.16658835886151      3.51658447594213     -0.00065971342101
C   4.92460995845939      2.80840792535402      0.00587903281610
H   7.08990550964105      5.46688776622306     -0.00658814770723
H   -7.03104175110130      5.54268795285765     -0.00714490013730
C   -7.33969804112295      2.85841153457957     -0.00333767559888
C   -7.36488195805880      1.47032337158330     -0.00157213747140
C   -4.90350460894690      1.44442681216000     -0.00628840166334
C   -6.13225715261081      0.73993935705394      0.00600164231964
C   -3.67687480051673      0.72669714267312      0.00433931473643
C   -2.44565658606518      1.42964113326212     -0.00597039546461
C   -1.22360068130162      0.71532450163492      0.00545886906656
C   0.00763786931376      1.41738314923765      0.00392452278437
C   1.23121980774686      0.70211669058719     -0.01490206287210
C   2.46082110053113      1.40329203612573      0.00460244601878
C   3.68443025419614      0.68719842821222      0.00377365974158
C   4.91870890153864      1.39173456118907     -0.00862816189375
C   7.36980207796101      2.77948220318441     -0.00242013321349
C   7.38016266612146      1.39121750785509     -0.00087345036788
C   6.13979953912259      0.67411862320065      0.00545489144369
H   -8.27919079934664      3.40711804112415     -0.00763522772059
H   8.31511347147953      3.31811809662368     -0.00663070901292
C   -8.59175593758115      0.72483255304480     -0.00123170985383
C   -8.59902460370342     -0.63263980622873      0.00089141472904
C   -6.13981313911873     -0.67413663715361     -0.00609792660607
C   -7.38018411213749     -1.39126618958160      0.00131813493501
C   -4.91868448025621     -1.39175501803000      0.00624257154343
C   -3.68443829568458     -0.68723731573599     -0.00478966852105
C   -2.46081704024768     -1.40334517882457      0.00575341766833
C   -1.23116201232071     -0.70217386488055     -0.00636696112346
C   -0.00756962538737     -1.41741884941102      0.00108956317991
C   1.22364771588843     -0.71527537726392      0.01109518512883
C   2.44567064933149     -1.42964328900682     -0.00065482763106
C   3.67686670284649     -0.72670743155550     -0.00479541202602
C   6.13224884641929     -0.73997883984993     -0.00632338623858
C   4.90351914550401     -1.44445752054090      0.00751768830159
C   8.59901484869081      0.63260386666793     -0.00101133422380
C   8.59174548810050     -0.72485086719319      0.00072504603735
C   7.36486276438985     -1.47033266560598      0.00049486934466
H   -9.52830597181814      1.27684744919284     -0.00270163681798
H   9.54141097460619      1.17457248844457     -0.00206336648518
C   -7.36983790976868     -2.77954514593389      0.00312634335708
C   -4.92459910905015     -2.80843725734101     -0.00460528907921
C   -6.16662249566744     -3.51665219282533      0.00169655107992
C   -3.70251035970491     -3.52468154912026      0.00571878010666
C   -2.46764698511392     -2.82132596280400     -0.00632585824990
C   -0.01513347410770     -2.83314164539971     -0.00604426974092
C   -1.24712184122656     -3.53473217556300      0.00551968366725
C   1.20924506964357     -3.54791467864352      0.00805871345849
C   2.43733602215464     -2.84764173817541     -0.00608104485234
C   4.89430234377080     -2.86112296828604     -0.00526030478103
C   3.66461525504104     -3.56421984553201      0.00761911515957
C   6.12863901474565     -3.58258405771778      0.00096495711699
C   7.33967266469532     -2.85841330737039      0.00248018319869
H   -9.54144911125902     -1.17456346666430      0.00226083090216
H   9.52826186807155     -1.27691907390448      0.00197485379837
H   -8.31516504384864     -3.31814985321231      0.00729857188773
H   8.27915514249207     -3.40714078989363      0.00681973918158
C   -6.14499418870218     -4.92764727278338      0.00302254913999
C   -3.70678334799751     -4.94126171411716     -0.00679841894792
C   -4.95559005800169     -5.64349397349412      0.00116871569699
C   -2.48612132622665     -5.65478557440947      0.00614125209662
C   -1.25405833548005     -4.95612205000132     -0.00503435388927
C   1.20101257386816     -4.96928038819302     -0.00385322963129
C   -0.03033667441341     -5.66952030313900      0.00398997003238
C   3.65375010132847     -4.98074377541453     -0.00309522988330
C   2.42549269587528     -5.68117463552727      0.00628170066869
C   6.09196561781097     -4.99325796338655      0.00325918379042
C   4.89497644461045     -5.69634842095790      0.00202298796027
H   -7.08989238804069     -5.46699984223871      0.00742531082125
H   7.03105520920009     -5.54265853633254      0.00683896355417
C   -4.92354532219813     -7.07882109967734      0.00061394679214
C   -2.48534208823777     -7.08772807792913     -0.00189594564379
C   -3.75168589177895     -7.76394715763627     -0.00170126671874
C   -0.03794895698805     -7.09946487446944     -0.00168022049625
C   -1.27795610040136     -7.77290438466689     -0.00366491325785
C   2.40944432072629     -7.11402201200282     -0.00081701968533
C   1.19474993715296     -7.78618536556242     -0.00296931056689
C   4.84762105249800     -7.13126211057943      0.00168979497423
C   3.66847160587561     -7.80378799294376     -0.00065863938960
H   -5.86994035041618     -7.61383059804164      0.00215798365757
H   5.78824962538815     -7.67633218931421      0.00281691445618
H   -3.75352693944918     -8.85107156923607     -0.00353718114765
H   -1.28430440589466     -8.86087539249706     -0.00809229711623
H   1.18922157469537     -8.87416062058945     -0.00706194725726
H   3.65854661482387     -8.89086063405326     -0.00231318081200

    units angstrom      # Angstroms are the default
    no_reorient         # Geometry fixed, default
    symmetry c1         # C1 symmetry, default
}

set {
    scf_type DF         # Density fitting, faster than exact integrals
    freeze_core True    # Freeze core electrons
    basis jun-cc-pVDZ   # Jun-cc-pVDZ basis set, recommended for sSAPT0 in https://doi.org/10.1063/1.4867135
}

energy('ssapt0')        # Compute sSAPT0 energy, includes also SAPT0
--------------------------------------------------------------------------

  //              Dimer HF             //
    Molecular point group: c1
  Charge       = 1
  Multiplicity = 1
  Basis Set: JUN-CC-PVDZ
    Blend: JUN-CC-PVDZ
  Basis Set: (JUN-CC-PVDZ AUX)
    Blend: JUN-CC-PVDZ-JKFIT
  @DF-RHF Final Energy: -3953.64697271484283
    Total Energy =                      -3953.6469727148432867
 Dipole X            :         -0.0021952            0.0004804           -0.0017148
 Dipole Y            :         -0.0494504            0.0561130            0.0066626
 Dipole Z            :         30.8049195          -41.8408439          -11.0359244
 Magnitude           :                                                   11.0359266
  //            Monomer A HF           //
    Molecular point group: c1
  Multiplicity = 1
  Basis Set: JUN-CC-PVDZ
    Blend: JUN-CC-PVDZ
  Basis Set: (JUN-CC-PVDZ AUX)
    Blend: JUN-CC-PVDZ-JKFIT
  @DF-RHF Final Energy:  -303.29725285316346
    Total Energy =                       -303.2972528531634566
  //            Monomer B HF           //
    Molecular point group: c1

    Geometry (in Angstrom), charge = 0, multiplicity = 1:

       Center              X                  Y                   Z               Mass
    ------------   -----------------  -----------------  -----------------  -----------------
      Gh(C)           0.680062820275    -0.008027535675    -7.866990393580    12.000000000000
      Gh(C)          -0.680508179725    -0.005999535675    -7.866606393580    12.000000000000
      Gh(N)          -1.085639179725    -0.005001535675    -6.548282393580    14.003074004430
      Gh(C)           0.000103820275    -0.001725535675    -5.766881393580    12.000000000000
      Gh(C)          -2.477369179725     0.044404464325    -6.080303393580    12.000000000000
      Gh(N)           1.085217820275    -0.005001535675    -6.548282393580    14.003074004430
      Gh(H)           1.385141820275    -0.015855535675    -8.684429393580     1.007825032230
      Gh(H)          -1.385306179725    -0.006189535675    -8.684275393580     1.007825032230
      Gh(H)          -0.000013179725     0.000021464325    -4.685792393580     1.007825032230
      Gh(C)           2.478112820275    -0.021893535675    -6.083184393580    12.000000000000
      Gh(H)           2.490587820275     0.005451464325    -4.992931393580     1.007825032230
      Gh(H)           2.967023820275    -0.935339535675    -6.430360393580     1.007825032230
      Gh(H)           3.001423820275     0.853589464325    -6.474656393580     1.007825032230
      Gh(H)          -2.857363179725     1.066475464325    -6.160262393580     1.007825032230
      Gh(H)          -3.082683179725    -0.625679535675    -6.693367393580     1.007825032230
      Gh(H)          -2.518132179725    -0.282579535675    -5.040355393580     1.007825032230
         C           -3.668445443746     7.803766634408     0.550838647756    12.000000000000
         C           -4.847602899072     7.131256295665     0.548472072823    12.000000000000
         C           -4.894963478901     5.696344867857     0.547899161725    12.000000000000
         C           -3.653744858499     4.980744805284     0.555559603454    12.000000000000
         C           -2.409429301220     7.113995501000     0.551032990016    12.000000000000
         C           -2.425481523830     5.681136415228     0.544028101146    12.000000000000
         C           -1.194748196161     7.786158658634     0.552505170558    12.000000000000
         C            0.037954849212     7.099436110082     0.550334466253    12.000000000000
         C            0.030328407694     5.669504024030     0.544851081337    12.000000000000
         C           -1.200988687630     4.969284812240     0.553820815271    12.000000000000
         C            1.277953646089     7.772873907520     0.551710314813    12.000000000000
         C            2.485353904999     7.087711349563     0.549435826909    12.000000000000
         C            2.486124505192     5.654785274566     0.542498077921    12.000000000000
         C            1.254078739919     4.956092577989     0.554126019509    12.000000000000
         C            3.751710411681     7.763926615305     0.549562678289    12.000000000000
         C            4.923561876460     7.078795241315     0.547506197581    12.000000000000
         C            4.955603091600     5.643461927694     0.547345784774    12.000000000000
         C            3.706797354479     4.941224672658     0.552437344944    12.000000000000
         H           -3.658525317484     8.890841883460     0.552523636006     1.007825032230
         H           -1.189217509482     8.874135551685     0.556477046999     1.007825032230
         H            1.284290059161     8.860847899813     0.555869138954     1.007825032230
         H            3.753537907074     8.851049743297     0.551085202605     1.007825032230
         H            5.869954523482     7.613809298981     0.546580830539     1.007825032230
         H           -5.788235887228     7.676316677259     0.546912225467     1.007825032230
         C           -6.091978138422     4.993274477968     0.546026921234    12.000000000000
         C           -6.128665660043     3.582594633123     0.547228098263    12.000000000000
         C           -3.664583919771     3.564196644069     0.544303003645    12.000000000000
         C           -4.894302384424     2.861095240226     0.553471988630    12.000000000000
         C           -2.437339174623     2.847626121410     0.556134782182    12.000000000000
         C           -1.209232037322     3.547901399303     0.542455755390    12.000000000000
         C            1.247137392437     3.534695215755     0.541647148985    12.000000000000
         C            0.015171859844     2.833126303630     0.553331332209    12.000000000000
         C            2.467640992715     2.821304441580     0.553431390333    12.000000000000
         C            3.702545294854     3.524674618749     0.539943429490    12.000000000000
         C            6.144976206658     4.927586830457     0.546112339562    12.000000000000
         C            6.166584179136     3.516598940267     0.548278892999    12.000000000000
         C            4.924605778734     2.808422389679     0.554817639236    12.000000000000
         H            7.089901329916     5.466902230548     0.542350458713     1.007825032230
         H           -7.031045930827     5.542702417183     0.541793706283     1.007825032230
         C           -7.339702220848     2.858425998905     0.545600930821    12.000000000000
         C           -7.364886137784     1.470337835908     0.547366468949    12.000000000000
         C           -4.903508788672     1.444441276485     0.542650204757    12.000000000000
         C           -6.132261332336     0.739953821379     0.554940248740    12.000000000000
         C           -3.676878980242     0.726711606998     0.553277921157    12.000000000000
         C           -2.445660765791     1.429655597587     0.542968210955    12.000000000000
         C           -1.223604861027     0.715338965960     0.554397475487    12.000000000000
         C            0.007633689588     1.417397613563     0.552863129204    12.000000000000
         C            1.231215628021     0.702131154912     0.534036543548    12.000000000000
         C            2.460816920806     1.403306500451     0.553541052439    12.000000000000
         C            3.684426074471     0.687212892537     0.552712266162    12.000000000000
         C            4.918704721813     1.391749025514     0.540310444526    12.000000000000
         C            7.369797898236     2.779496667509     0.546518473207    12.000000000000
         C            7.380158486396     1.391231972180     0.548065156052    12.000000000000
         C            6.139795359397     0.674133087526     0.554393497864    12.000000000000
         H           -8.279194979072     3.407132505449     0.541303378699     1.007825032230
         H            8.315109291754     3.318132560949     0.542307897407     1.007825032230
         C           -8.591760117307     0.724847017370     0.547706896566    12.000000000000
         C           -8.599028783429    -0.632625341904     0.549830021149    12.000000000000
         C           -6.139817318844    -0.674122172829     0.542840679814    12.000000000000
         C           -7.380188291863    -1.391251725257     0.550256741355    12.000000000000
         C           -4.918688659982    -1.391740553705     0.555181177964    12.000000000000
         C           -3.684442475410    -0.687222851411     0.544148937899    12.000000000000
         C           -2.460821219973    -1.403330714500     0.554692024088    12.000000000000
         C           -1.231166192046    -0.702159400556     0.542571645297    12.000000000000
         C           -0.007573805113    -1.417404385086     0.550028169600    12.000000000000
         C            1.223643536163    -0.715260912939     0.560033791549    12.000000000000
         C            2.445666469606    -1.429628824682     0.548283778789    12.000000000000
         C            3.676862523121    -0.726692967231     0.544143194394    12.000000000000
         C            6.132244666694    -0.739964375525     0.542615220181    12.000000000000
         C            4.903514965779    -1.444443056216     0.556456294722    12.000000000000
         C            8.599010668965     0.632618330993     0.547927272196    12.000000000000
         C            8.591741308375    -0.724836402868     0.549663652457    12.000000000000
         C            7.364858584664    -1.470318201281     0.549433475765    12.000000000000
         H           -9.528310151544     1.276861913518     0.546236969602     1.007825032230
         H            9.541406794881     1.174586952770     0.546875239935     1.007825032230
         C           -7.369842089494    -2.779530681609     0.552064949777    12.000000000000
         C           -4.924603288776    -2.808422793016     0.544333317341    12.000000000000
         C           -6.166626675393    -3.516637728500     0.550635157500    12.000000000000
         C           -3.702514539430    -3.524667084795     0.554657386527    12.000000000000
         C           -2.467651164839    -2.821311498479     0.542612748170    12.000000000000
         C           -0.015137653833    -2.833127181075     0.542894336679    12.000000000000
         C           -1.247126020952    -3.534717711238     0.554458290087    12.000000000000
         C            1.209240889918    -3.547900214319     0.556997319879    12.000000000000
         C            2.437331842429    -2.847627273850     0.542857561568    12.000000000000
         C            4.894298164045    -2.861108503961     0.543678301639    12.000000000000
         C            3.664611075316    -3.564205381207     0.556557721580    12.000000000000
         C            6.128634835020    -3.582569593393     0.549903563537    12.000000000000
         C            7.339668484970    -2.858398843045     0.551418789619    12.000000000000
         H           -9.541453290984    -1.174549002339     0.551199437322     1.007825032230
         H            9.528257688346    -1.276904609579     0.550913460218     1.007825032230
         H           -8.315169223574    -3.318135388887     0.556237178308     1.007825032230
         H            8.279150962767    -3.407126325569     0.555758345602     1.007825032230
         C           -6.144998368428    -4.927632808458     0.551961155560    12.000000000000
         C           -3.706787527723    -4.941247249792     0.542140187472    12.000000000000
         C           -4.955594237727    -5.643479509169     0.550107322117    12.000000000000
         C           -2.486125505952    -5.654771110084     0.555079858517    12.000000000000
         C           -1.254062515205    -4.956107585676     0.543904252531    12.000000000000
         C            1.201008394143    -4.969265923868     0.545085376789    12.000000000000
         C           -0.030340854139    -5.669505838814     0.552928576452    12.000000000000
         C            3.653745921603    -4.980729311090     0.545843376537    12.000000000000
         C            2.425488516150    -5.681160171202     0.555220307089    12.000000000000
         C            6.091961438086    -4.993243499062     0.552197790210    12.000000000000
         C            4.894972264885    -5.696333956633     0.550961594380    12.000000000000
         H           -7.089896567766    -5.466985377914     0.556363917241     1.007825032230
         H            7.031051029475    -5.542644072008     0.555777569974     1.007825032230
         C           -4.923549501924    -7.078806635352     0.549552553212    12.000000000000
         C           -2.485346267963    -7.087713613604     0.547042660776    12.000000000000
         C           -3.751690071504    -7.763932693311     0.547237339701    12.000000000000
         C           -0.037953136713    -7.099450410144     0.547258385924    12.000000000000
         C           -1.277960280127    -7.772889920342     0.545273693162    12.000000000000
         C            2.409440141001    -7.114007547678     0.548121586735    12.000000000000
         C            1.194745757428    -7.786170901237     0.545969295853    12.000000000000
         C            4.847616872773    -7.131247646254     0.550628401394    12.000000000000
         C            3.668467426150    -7.803773528619     0.548279967030    12.000000000000
         H           -5.869944530142    -7.613816133717     0.551096590078     1.007825032230
         H            5.788245445663    -7.676317724989     0.551755520876     1.007825032230
         H           -3.753531119175    -8.851057104911     0.545401425272     1.007825032230
         H           -1.284308585620    -8.860860928172     0.540846309304     1.007825032230
         H            1.189217394970    -8.874146156264     0.541876659163     1.007825032230
         H            3.658542435098    -8.890846169728     0.546625425608     1.007825032230

  Charge       = 0
  Multiplicity = 1
  Basis Set: JUN-CC-PVDZ
    Blend: JUN-CC-PVDZ
  Basis Set: (JUN-CC-PVDZ AUX)
    Blend: JUN-CC-PVDZ-JKFIT

    Orbital Energies [Eh]
    ---------------------

    Doubly Occupied:

       1A    -11.264041     2A    -11.263726     3A    -11.263723
       4A    -11.263382     5A    -11.263378     6A    -11.263344
       7A    -11.263186     8A    -11.263161     9A    -11.263159
      10A    -11.262999    11A    -11.262841    12A    -11.262836
      13A    -11.262358    14A    -11.262354    15A    -11.262283
      16A    -11.262282    17A    -11.262230    18A    -11.262196
      19A    -11.262151    20A    -11.262113    21A    -11.262111
      22A    -11.261959    23A    -11.261955    24A    -11.261836
      25A    -11.261822    26A    -11.261807    27A    -11.261803
      28A    -11.261756    29A    -11.261748    30A    -11.261674
      31A    -11.261648    32A    -11.261644    33A    -11.261618
      34A    -11.261617    35A    -11.261596    36A    -11.261550
      37A    -11.261411    38A    -11.261401    39A    -11.261395
      40A    -11.261388    41A    -11.261382    42A    -11.261374
      43A    -11.261369    44A    -11.261354    45A    -11.261349
      46A    -11.261327    47A    -11.261322    48A    -11.261319
      49A    -11.261162    50A    -11.261131    51A    -11.261128
      52A    -11.261047    53A    -11.261046    54A    -11.260976
      55A    -11.260011    56A    -11.259998    57A    -11.259995
      58A    -11.259967    59A    -11.259964    60A    -11.259948
      61A    -11.259388    62A    -11.259363    63A    -11.259359
      64A    -11.259308    65A    -11.259305    66A    -11.259276
      67A    -11.259015    68A    -11.258998    69A    -11.258995
      70A    -11.258968    71A    -11.258965    72A    -11.258954
      73A    -11.254588    74A    -11.254587    75A    -11.254584
      76A    -11.254583    77A    -11.254577    78A    -11.254573
      79A    -11.253736    80A    -11.253735    81A    -11.253733
      82A    -11.253731    83A    -11.253729    84A    -11.253722
      85A    -11.253652    86A    -11.253650    87A    -11.253648
      88A    -11.253647    89A    -11.253644    90A    -11.253638
      91A    -11.253116    92A    -11.253115    93A    -11.253112
      94A    -11.253111    95A    -11.253105    96A    -11.253102
      97A     -1.254121    98A     -1.239134    99A     -1.239131
     100A     -1.220579   101A     -1.220574   102A     -1.215597
     103A     -1.201141   104A     -1.195710   105A     -1.188291
     106A     -1.188286   107A     -1.173860   108A     -1.173858
     109A     -1.155765   110A     -1.155761   111A     -1.152867
     112A     -1.144814   113A     -1.144812   114A     -1.128691
     115A     -1.114847   116A     -1.113256   117A     -1.112629
     118A     -1.112614   119A     -1.111705   120A     -1.088550
     121A     -1.088536   122A     -1.077052   123A     -1.077051
     124A     -1.067744   125A     -1.067713   126A     -1.065113
     127A     -1.046912   128A     -1.046903   129A     -1.040599
     130A     -1.038825   131A     -1.038824   132A     -1.025379
     133A     -1.021548   134A     -1.021496   135A     -1.007283
     136A     -1.006926   137A     -1.003902   138A     -1.000623
     139A     -1.000574   140A     -0.991160   141A     -0.971113
     142A     -0.971064   143A     -0.955983   144A     -0.955928
     145A     -0.905748   146A     -0.905707   147A     -0.905633
     148A     -0.905592   149A     -0.904503   150A     -0.892519
     151A     -0.892460   152A     -0.890505   153A     -0.890448
     154A     -0.889583   155A     -0.872313   156A     -0.869130
     157A     -0.851642   158A     -0.848001   159A     -0.847980
     160A     -0.845737   161A     -0.843144   162A     -0.834675
     163A     -0.834663   164A     -0.828207   165A     -0.828202
     166A     -0.784664   167A     -0.784653   168A     -0.783789
     169A     -0.783763   170A     -0.782409   171A     -0.782389
     172A     -0.782171   173A     -0.767100   174A     -0.760942
     175A     -0.750717   176A     -0.733579   177A     -0.727183
     178A     -0.727167   179A     -0.725205   180A     -0.724650
     181A     -0.724630   182A     -0.718644   183A     -0.713909
     184A     -0.713903   185A     -0.699686   186A     -0.699671
     187A     -0.686277   188A     -0.686053   189A     -0.686049
     190A     -0.682274   191A     -0.682265   192A     -0.678904
     193A     -0.653737   194A     -0.650985   195A     -0.650954
     196A     -0.649954   197A     -0.649940   198A     -0.649660
     199A     -0.641075   200A     -0.641045   201A     -0.640185
     202A     -0.639250   203A     -0.636149   204A     -0.636122
     205A     -0.629253   206A     -0.617694   207A     -0.615395
     208A     -0.615374   209A     -0.608905   210A     -0.608898
     211A     -0.599173   212A     -0.599146   213A     -0.598860
     214A     -0.598732   215A     -0.598710   216A     -0.598182
     217A     -0.595161   218A     -0.595149   219A     -0.594831
     220A     -0.594386   221A     -0.592076   222A     -0.592073
     223A     -0.587542   224A     -0.577871   225A     -0.577860
     226A     -0.575727   227A     -0.575724   228A     -0.573480
     229A     -0.569585   230A     -0.568281   231A     -0.568257
     232A     -0.566866   233A     -0.566857   234A     -0.560990
     235A     -0.558845   236A     -0.558823   237A     -0.558506
     238A     -0.554478   239A     -0.550623   240A     -0.547549
     241A     -0.544331   242A     -0.535029   243A     -0.535006
     244A     -0.533642   245A     -0.533620   246A     -0.528171
     247A     -0.528155   248A     -0.527940   249A     -0.517300
     250A     -0.517267   251A     -0.515417   252A     -0.515411
     253A     -0.509733   254A     -0.509718   255A     -0.498127
     256A     -0.496559   257A     -0.496530   258A     -0.493835
     259A     -0.493822   260A     -0.489473   261A     -0.481542
     262A     -0.477480   263A     -0.477477   264A     -0.474093
     265A     -0.469559   266A     -0.466637   267A     -0.466633
     268A     -0.458868   269A     -0.446841   270A     -0.446781
     271A     -0.441090   272A     -0.440819   273A     -0.440792
     274A     -0.434748   275A     -0.433965   276A     -0.407438
     277A     -0.407415   278A     -0.386475   279A     -0.386426
     280A     -0.385789   281A     -0.385789   282A     -0.383820
     283A     -0.354390   284A     -0.354373   285A     -0.350728
     286A     -0.338155   287A     -0.335654   288A     -0.335589
     289A     -0.332772   290A     -0.332766   291A     -0.307153
     292A     -0.302014   293A     -0.301954   294A     -0.300904
     295A     -0.286233   296A     -0.256520   297A     -0.253566
     298A     -0.253515   299A     -0.204325   300A     -0.204238

  @DF-RHF Final Energy: -3650.33791301030442

   => Energetics <=

    Nuclear Repulsion Energy =          15611.4211649754306563
    One-Electron Energy =              -36072.0856132102271658
    Two-Electron Energy =               16810.3265352244925452
    Total Energy =                      -3650.3379130103057832
 Dipole X            :         -0.0009263            0.0002112           -0.0007151
 Dipole Y            :          0.0011398           -0.0013774           -0.0002376
 Dipole Z            :       -622.4039917          622.4095674            0.0055757
 Magnitude           :                                                    0.0056264

    SAPT Results
  --------------------------------------------------------------------------------------------------------
    Electrostatics                 -8.39709387 [mEh]      -5.26925596 [kcal/mol]     -22.04656692 [kJ/mol]
      Elst10,r                     -8.39709387 [mEh]      -5.26925596 [kcal/mol]     -22.04656692 [kJ/mol]

    Exchange                        0.00007919 [mEh]       0.00004969 [kcal/mol]       0.00020791 [kJ/mol]
      Exch10                        0.00007919 [mEh]       0.00004969 [kcal/mol]       0.00020791 [kJ/mol]
      Exch10(S^2)                   0.00007919 [mEh]       0.00004969 [kcal/mol]       0.00020791 [kJ/mol]

    Induction                      -3.40983669 [mEh]      -2.13970483 [kcal/mol]      -8.95252501 [kJ/mol]
      Ind20,r                      -3.34628711 [mEh]      -2.09982686 [kcal/mol]      -8.78567560 [kJ/mol]
      Exch-Ind20,r                  0.00070317 [mEh]       0.00044125 [kcal/mol]       0.00184618 [kJ/mol]
      delta HF,r (2)               -0.06425276 [mEh]      -0.04031921 [kcal/mol]      -0.16869559 [kJ/mol]

    Dispersion                     -1.63181981 [mEh]      -1.02398239 [kcal/mol]      -4.28434232 [kJ/mol]
      Disp20                       -1.63204179 [mEh]      -1.02412168 [kcal/mol]      -4.28492513 [kJ/mol]
      Exch-Disp20                   0.00022198 [mEh]       0.00013929 [kcal/mol]       0.00058280 [kJ/mol]
      Disp20 (SS)                  -0.81602089 [mEh]      -0.51206084 [kcal/mol]      -2.14246256 [kJ/mol]
      Disp20 (OS)                  -0.81602089 [mEh]      -0.51206084 [kcal/mol]      -2.14246256 [kJ/mol]
      Exch-Disp20 (SS)              0.00016917 [mEh]       0.00010616 [kcal/mol]       0.00044416 [kJ/mol]
      Exch-Disp20 (OS)              0.00005280 [mEh]       0.00003314 [kcal/mol]       0.00013864 [kJ/mol]

  Total HF                        -11.80685137 [mEh]      -7.40891109 [kcal/mol]     -30.99888401 [kJ/mol]
  Total SAPT0                     -13.43867119 [mEh]      -8.43289348 [kcal/mol]     -35.28322634 [kJ/mol]

  Special recipe for scaled SAPT0 (see Manual):
    Electrostatics sSAPT0          -8.39709387 [mEh]      -5.26925596 [kcal/mol]     -22.04656692 [kJ/mol]
    Exchange sSAPT0                 0.00007919 [mEh]       0.00004969 [kcal/mol]       0.00020791 [kJ/mol]
    Induction sSAPT0               -3.40983669 [mEh]      -2.13970483 [kcal/mol]      -8.95252501 [kJ/mol]
    Dispersion sSAPT0              -1.63181981 [mEh]      -1.02398239 [kcal/mol]      -4.28434232 [kJ/mol]
  Total sSAPT0                    -13.43867119 [mEh]      -8.43289348 [kcal/mol]     -35.28322634 [kJ/mol]
  --------------------------------------------------------------------------------------------------------

*** Psi4 exiting successfully. Buy a developer a beer!
