                               Psi4 1.9 release

  ==> Input File <==

--------------------------------------------------------------------------
memory 32 GB # how much memory is available ! Depends on the nodes/cores !

molecule dimer {
# monomer A
-1 1    # Charge and multiplicity
B -0.000046  0.000337 3.399994
F -1.153597  0.000048 4.215641
F  1.153661 -0.000581 4.215641
F -0.000019 -1.153637 2.584360
F -0.000019  1.153978 2.584360
--
# monomer B
0 1     # Charge and multiplicity
C   1.22531237526482      0.70753866091955      0.00613762728373
C   1.22532433589282     -0.70753852257020     -0.00619318228664
C   -0.00000567409046      1.41496628609039     -0.00672680580738
C   2.45644923379077      1.41832825917820      0.00902448468363
C   0.00001130712078     -1.41497612663474      0.00347275151708
C   -1.22530046906674      0.70754574598412      0.00838914760619
C   2.45643823516184     -1.41832293188077     -0.00843833914343
C   -0.00000085313587      2.83680140328112     -0.00913035594137
C   3.68182717731192      0.70931832800114     -0.00808954934571
C   2.45512052870677      2.83422403348893     -0.00819210630633
C   3.68182158506039     -0.70933346742900      0.00798293467272
C   -1.22531311884624     -0.70752714354401     -0.00512042085974
C   1.22670006104402      3.54346985599427      0.00816696660346
C   0.00000526469929     -2.83678176723568      0.00832091913869
C   -2.45643555300670      1.41831729028492      0.00842454345199
C   2.45512389762097     -2.83422965658853      0.00783102630520
C   -1.22671388474763      3.54346943575023      0.00827029982280
C   4.91451777504333      1.42717324448953     -0.00160886631602
C   3.69315067131765      3.54279566454522     -0.00155906667985
C   -2.45643712022637     -1.41831290883911     -0.00846337726810
C   1.22670532178455     -3.54347386990643     -0.00780316414624
C   -2.45512491866593      2.83421703463423     -0.00818572995999
C   4.91452486062398     -1.42718653794377      0.00136387641845
C   1.22142509354026      4.97013443726031      0.00150231067809
C   4.89300870916237      2.82518837202648     -0.00039219795739
C   -1.22669652864725     -3.54347062507680     -0.00753595973677
C   -3.68181849668397      0.70932533873199     -0.00807686886569
C   3.69314758099218     -3.54280096939050      0.00148176697923
C   -1.22143177215231      4.97012866986289      0.00168580605083
C   6.13477145276790      0.68054831910577     -0.00083909176631
C   3.65678936045204      4.97295361556775     -0.00065042889723
C   -2.45512642789169     -2.83421472106065      0.00758666850712
C   -3.68181869921921     -0.70932533146830      0.00810055625144
C   4.89301309775526     -2.82519973363176      0.00021895393805
C   -0.00000059327114      5.65044773803267      0.00045449734393
C   6.13477559217374     -0.68055448207492      0.00042622874941
C   2.47813196269732      5.65357712333155      0.00063835075260
C   1.22142288457925     -4.97012668293268     -0.00129718634452
C   -3.69316190412301      3.54279732619245     -0.00139355922051
C   -1.22142804110313     -4.97011793159564     -0.00140994817719
C   -4.91452132810043      1.42717581899491     -0.00153192130862
C   3.65678749952045     -4.97295485423912      0.00080007163680
C   -2.47813805026426      5.65357479452875      0.00092287576113
C   -3.69314125872231     -3.54278984697859      0.00136564082345
C   -4.91451200321153     -1.42718062802730      0.00139857359209
C   -0.00000552908399     -5.65043791501335      0.00005899322272
C   -4.89302000425900      2.82518897091939     -0.00040227981744
C   2.47812647313991     -5.65357317188818     -0.00029052915548
C   -3.65679823041642      4.97295655404175     -0.00047374852278
C   -4.89299899901461     -2.82519139505969      0.00006491824035
C   -2.47812801824129     -5.65356579800621     -0.00056571680280
C   -6.13477002348955      0.68054913825639     -0.00086464346868
C   -3.65678835334731     -4.97294365097028      0.00058578382008
C   -6.13476456307132     -0.68055354348201      0.00040575295444
H   5.83528897565761      3.36927626695423      0.00396712770529
H   7.07385965258860      1.22821762089947     -0.00037744837300
H   4.60066374401555      5.51238117445323     -0.00014522814529
H   5.83528386714679     -3.36930568472863     -0.00423551337640
H   -0.00001167146422      6.73853104613662     -0.00389474766392
H   7.07386165167227     -1.22822657074368     -0.00008250934481
H   2.47331421164041      6.74068466339473      0.00017162982210
H   4.60066897122302     -5.51237575717576      0.00039007446835
H   -2.47331820069565      6.74068209160650      0.00047297644710
H   -0.00000978838621     -6.73852780445195      0.00458867820736
H   -5.83530143450167      3.36927132229595      0.00410314985360
H   2.47330840367253     -6.74068500242887      0.00027980126949
H   -4.60067436136587      5.51237839860371      0.00002010017831
H   -5.83527902699321     -3.36928859177951     -0.00451481925734
H   -2.47329986759855     -6.74067870613986     -0.00016951527498
H   -7.07385728692578      1.22822084484047     -0.00046143985387
H   -4.60067330624313     -5.51236229778631      0.00021776644566
H   -7.07385645456741     -1.22822025997701     -0.00017736581114

    units angstrom      # Angstroms are the default
    no_reorient         # Geometry fixed, default
    symmetry c1         # C1 symmetry, default
}

set {
    scf_type DF         # Density fitting, faster than exact integrals
    freeze_core True    # Freeze core electrons
    basis jun-cc-pVDZ   # Jun-cc-pVDZ basis set, recommended for sSAPT0 in https://doi.org/10.1063/1.4867135
}

energy('ssapt0')        # Compute sSAPT0 energy, includes also SAPT0
--------------------------------------------------------------------------

  //              Dimer HF             //
    Molecular point group: c1
  Charge       = -1
  Multiplicity = 1
  Basis Set: JUN-CC-PVDZ
    Blend: JUN-CC-PVDZ
  Basis Set: (JUN-CC-PVDZ AUX)
    Blend: JUN-CC-PVDZ-JKFIT
  @DF-RHF Final Energy: -2478.65343042819177
    Total Energy =                      -2478.6534304281922232
 Dipole X            :         -0.0002018           -0.0000160           -0.0002178
 Dipole Y            :          0.0005642           -0.0001716            0.0003925
 Dipole Z            :         16.6583021          -20.8429595           -4.1846573
 Magnitude           :                                                    4.1846573
  //            Monomer A HF           //
    Molecular point group: c1
  Multiplicity = 1
  Basis Set: JUN-CC-PVDZ
    Blend: JUN-CC-PVDZ
  Basis Set: (JUN-CC-PVDZ AUX)
    Blend: JUN-CC-PVDZ-JKFIT
  @DF-RHF Final Energy:  -422.77393160969370
    Total Energy =                       -422.7739316096937046
  //            Monomer B HF           //
    Molecular point group: c1

    Geometry (in Angstrom), charge = 0, multiplicity = 1:

       Center              X                  Y                   Z               Mass
    ------------   -----------------  -----------------  -----------------  -----------------
      Gh(B)          -0.000046449334     0.000336519434     3.007229395393    11.009305360000
      Gh(F)          -1.153597449334     0.000047519434     3.822876395393    18.998403162730
      Gh(F)           1.153660550666    -0.000581480566     3.822876395393    18.998403162730
      Gh(F)          -0.000019449334    -1.153637480566     2.191595395393    18.998403162730
      Gh(F)          -0.000019449334     1.153977519434     2.191595395393    18.998403162730
         C            1.225311925931     0.707538180353    -0.386626977323    12.000000000000
         C            1.225323886559    -0.707539003137    -0.398957786894    12.000000000000
         C           -0.000006123424     1.414965805524    -0.399491410414    12.000000000000
         C            2.456448784457     1.418327778612    -0.383740119923    12.000000000000
         C            0.000010857787    -1.414976607201    -0.389291853090    12.000000000000
         C           -1.225300918401     0.707545265418    -0.384375457001    12.000000000000
         C            2.456437785828    -1.418323412447    -0.401202943750    12.000000000000
         C           -0.000001302470     2.836800922715    -0.401894960548    12.000000000000
         C            3.681826727978     0.709317847435    -0.400854153953    12.000000000000
         C            2.455120079373     2.834223552923    -0.400956710913    12.000000000000
         C            3.681821135726    -0.709333947995    -0.384781669934    12.000000000000
         C           -1.225313568180    -0.707527624110    -0.397885025467    12.000000000000
         C            1.226699611710     3.543469375428    -0.384597638003    12.000000000000
         C            0.000004815365    -2.836782247802    -0.384443685468    12.000000000000
         C           -2.456436002341     1.418316809719    -0.384340061155    12.000000000000
         C            2.455123448287    -2.834230137155    -0.384933578302    12.000000000000
         C           -1.226714334082     3.543468955184    -0.384494304784    12.000000000000
         C            4.914517325709     1.427172763923    -0.394373470923    12.000000000000
         C            3.693150221984     3.542795183979    -0.394323671287    12.000000000000
         C           -2.456437569560    -1.418313389406    -0.401227981875    12.000000000000
         C            1.226704872451    -3.543474350473    -0.400567768753    12.000000000000
         C           -2.455125368000     2.834216554068    -0.400950334567    12.000000000000
         C            4.914524411290    -1.427187018510    -0.391400728189    12.000000000000
         C            1.221424644206     4.970133956694    -0.391262293929    12.000000000000
         C            4.893008259828     2.825187891460    -0.393156802564    12.000000000000
         C           -1.226696977981    -3.543471105643    -0.400300564344    12.000000000000
         C           -3.681818946018     0.709324858166    -0.400841473473    12.000000000000
         C            3.693147131658    -3.542801449957    -0.391282837628    12.000000000000
         C           -1.221432221486     4.970128189296    -0.391078798556    12.000000000000
         C            6.134771003434     0.680547838539    -0.393603696373    12.000000000000
         C            3.656788911118     4.972953135001    -0.393415033504    12.000000000000
         C           -2.455126877226    -2.834215201627    -0.385177936100    12.000000000000
         C           -3.681819148553    -0.709325812035    -0.384664048356    12.000000000000
         C            4.893012648421    -2.825200214198    -0.392545650669    12.000000000000
         C           -0.000001042605     5.650447257466    -0.392310107263    12.000000000000
         C            6.134775142840    -0.680554962641    -0.392338375858    12.000000000000
         C            2.478131513363     5.653576642765    -0.392126253854    12.000000000000
         C            1.221422435245    -4.970127163499    -0.394061790951    12.000000000000
         C           -3.693162353457     3.542796845626    -0.394158163827    12.000000000000
         C           -1.221428490437    -4.970118412162    -0.394174552784    12.000000000000
         C           -4.914521777434     1.427175338429    -0.394296525916    12.000000000000
         C            3.656787050187    -4.972955334806    -0.391964532970    12.000000000000
         C           -2.478138499598     5.653574313962    -0.391841728846    12.000000000000
         C           -3.693141708056    -3.542790327545    -0.391398963784    12.000000000000
         C           -4.914512452545    -1.427181108594    -0.391366031015    12.000000000000
         C           -0.000005978418    -5.650438395580    -0.392705611384    12.000000000000
         C           -4.893020453593     2.825188490353    -0.393166884424    12.000000000000
         C            2.478126023806    -5.653573652455    -0.393055133762    12.000000000000
         C           -3.656798679750     4.972956073475    -0.393238353130    12.000000000000
         C           -4.892999448349    -2.825191875626    -0.392699686367    12.000000000000
         C           -2.478128467575    -5.653566278573    -0.393330321410    12.000000000000
         C           -6.134770472823     0.680548657690    -0.393629248076    12.000000000000
         C           -3.656788802681    -4.972944131537    -0.392178820787    12.000000000000
         C           -6.134765012405    -0.680554024048    -0.392358851653    12.000000000000
         H            5.835288526324     3.369275786388    -0.388797476902     1.007825032230
         H            7.073859203255     1.228217140333    -0.393142052980     1.007825032230
         H            4.600663294682     5.512380693887    -0.392909832752     1.007825032230
         H            5.835283417813    -3.369306165295    -0.397000117983     1.007825032230
         H           -0.000012120798     6.738530565570    -0.396659352271     1.007825032230
         H            7.073861202338    -1.228227051310    -0.392847113952     1.007825032230
         H            2.473313762307     6.740684182828    -0.392592974785     1.007825032230
         H            4.600668521889    -5.512376237742    -0.392374530139     1.007825032230
         H           -2.473318650030     6.740681611040    -0.392291628160     1.007825032230
         H           -0.000010237720    -6.738528285018    -0.388175926400     1.007825032230
         H           -5.835301883836     3.369270841730    -0.388661454753     1.007825032230
         H            2.473307954339    -6.740685482995    -0.392484803337     1.007825032230
         H           -4.600674810700     5.512377918037    -0.392744504429     1.007825032230
         H           -5.835279476327    -3.369289072346    -0.397279423864     1.007825032230
         H           -2.473300316932    -6.740679186706    -0.392934119882     1.007825032230
         H           -7.073857736260     1.228220364274    -0.393226044461     1.007825032230
         H           -4.600673755577    -5.512362778353    -0.392546838161     1.007825032230
         H           -7.073856903901    -1.228220740543    -0.392941970418     1.007825032230

  Charge       = 0
  Multiplicity = 1
  Basis Set: JUN-CC-PVDZ
    Blend: JUN-CC-PVDZ
  Basis Set: (JUN-CC-PVDZ AUX)
    Blend: JUN-CC-PVDZ-JKFIT

    Orbital Energies [Eh]
    ---------------------

    Doubly Occupied:

       1A    -11.260678     2A    -11.260268     3A    -11.260182
       4A    -11.259498     5A    -11.259433     6A    -11.259274
       7A    -11.259039     8A    -11.258985     9A    -11.258941
      10A    -11.258659    11A    -11.258626    12A    -11.258531
      13A    -11.258475    14A    -11.258473    15A    -11.258470
      16A    -11.258435    17A    -11.258431    18A    -11.258413
      19A    -11.258412    20A    -11.258408    21A    -11.258392
      22A    -11.258349    23A    -11.258315    24A    -11.258090
      25A    -11.257321    26A    -11.257266    27A    -11.257254
      28A    -11.257136    29A    -11.257118    30A    -11.257044
      31A    -11.256414    32A    -11.256350    33A    -11.256339
      34A    -11.256246    35A    -11.256226    36A    -11.256188
      37A    -11.252291    38A    -11.252290    39A    -11.252288
      40A    -11.252286    41A    -11.252286    42A    -11.252283
      43A    -11.251388    44A    -11.251387    45A    -11.251382
      46A    -11.251379    47A    -11.251372    48A    -11.251370
      49A    -11.250853    50A    -11.250851    51A    -11.250850
      52A    -11.250847    53A    -11.250846    54A    -11.250844
      55A     -1.244022    56A     -1.219800    57A     -1.219791
      58A     -1.189533    59A     -1.189528    60A     -1.180906
      61A     -1.157561    62A     -1.148971    63A     -1.135459
      64A     -1.135455    65A     -1.113194    66A     -1.113186
      67A     -1.082411    68A     -1.082406    69A     -1.078574
      70A     -1.065982    71A     -1.065980    72A     -1.039395
      73A     -1.024245    74A     -1.021722    75A     -1.021691
      76A     -1.017732    77A     -1.012799    78A     -0.987003
      79A     -0.986955    80A     -0.961875    81A     -0.961827
      82A     -0.894290    83A     -0.894263    84A     -0.887898
      85A     -0.886149    86A     -0.886088    87A     -0.881375
      88A     -0.881333    89A     -0.861896    90A     -0.837422
      91A     -0.818202    92A     -0.816581    93A     -0.812117
      94A     -0.812107    95A     -0.794687    96A     -0.794678
      97A     -0.746601    98A     -0.744836    99A     -0.733381
     100A     -0.733375   101A     -0.732179   102A     -0.732157
     103A     -0.716475   104A     -0.698969   105A     -0.698961
     106A     -0.693568   107A     -0.693557   108A     -0.661226
     109A     -0.653066   110A     -0.651121   111A     -0.650251
     112A     -0.650248   113A     -0.639359   114A     -0.639357
     115A     -0.629694   116A     -0.627506   117A     -0.627482
     118A     -0.606466   119A     -0.605821   120A     -0.601641
     121A     -0.599724   122A     -0.599700   123A     -0.593626
     124A     -0.591172   125A     -0.591169   126A     -0.585286
     127A     -0.576410   128A     -0.576361   129A     -0.567327
     130A     -0.567314   131A     -0.565927   132A     -0.565907
     133A     -0.558690   134A     -0.554837   135A     -0.554831
     136A     -0.538593   137A     -0.538589   138A     -0.538186
     139A     -0.538185   140A     -0.529711   141A     -0.528187
     142A     -0.522862   143A     -0.522856   144A     -0.500502
     145A     -0.495603   146A     -0.493231   147A     -0.487837
     148A     -0.485058   149A     -0.481742   150A     -0.481734
     151A     -0.470373   152A     -0.470318   153A     -0.450984
     154A     -0.450903   155A     -0.439079   156A     -0.439061
     157A     -0.404740   158A     -0.404703   159A     -0.403371
     160A     -0.375428   161A     -0.375421   162A     -0.349140
     163A     -0.337577   164A     -0.336552   165A     -0.336494
     166A     -0.311071   167A     -0.298121   168A     -0.284323
     169A     -0.284269   170A     -0.224904   171A     -0.224838

  @DF-RHF Final Energy: -2055.89388963676902

   => Energetics <=

    Nuclear Repulsion Energy =           6452.5568002797781446
    One-Electron Energy =              -15636.4853692683864210
    Two-Electron Energy =                7128.0346793518401682
    Total Energy =                      -2055.8938896367690177
 Dipole X            :          0.0000617            0.0000112            0.0000729
 Dipole Y            :          0.0003010           -0.0000531            0.0002479
 Dipole Z            :        253.8398189         -253.8398398           -0.0000209
 Magnitude           :                                                    0.0002592

    SAPT Results
  --------------------------------------------------------------------------------------------------------
    Electrostatics                 -1.50645602 [mEh]      -0.94531542 [kcal/mol]      -3.95519973 [kJ/mol]
      Elst10,r                     -1.50645602 [mEh]      -0.94531542 [kcal/mol]      -3.95519973 [kJ/mol]

    Exchange                       36.46497938 [mEh]      22.88212002 [kcal/mol]      95.73879018 [kJ/mol]
      Exch10                       36.46497938 [mEh]      22.88212002 [kcal/mol]      95.73879018 [kJ/mol]
      Exch10(S^2)                  36.25285719 [mEh]      22.74901134 [kcal/mol]      95.18186344 [kJ/mol]

    Induction                     -20.56770509 [mEh]     -12.90642980 [kcal/mol]     -54.00050228 [kJ/mol]
      Ind20,r                     -31.68860728 [mEh]     -19.88490128 [kcal/mol]     -83.19842696 [kJ/mol]
      Exch-Ind20,r                 14.01317689 [mEh]       8.79340126 [kcal/mol]      36.79159085 [kJ/mol]
      delta HF,r (2)               -2.89227470 [mEh]      -1.81492978 [kcal/mol]      -7.59366618 [kJ/mol]

    Dispersion                    -15.61027362 [mEh]      -9.79559459 [kcal/mol]     -40.98476775 [kJ/mol]
      Disp20                      -19.46546480 [mEh]     -12.21476357 [kcal/mol]     -51.10657079 [kJ/mol]
      Exch-Disp20                   3.85519118 [mEh]       2.41916899 [kcal/mol]      10.12180304 [kJ/mol]
      Disp20 (SS)                  -9.73273240 [mEh]      -6.10738179 [kcal/mol]     -25.55328539 [kJ/mol]
      Disp20 (OS)                  -9.73273240 [mEh]      -6.10738179 [kcal/mol]     -25.55328539 [kJ/mol]
      Exch-Disp20 (SS)              2.13542724 [mEh]       1.34000083 [kcal/mol]       5.60656345 [kJ/mol]
      Exch-Disp20 (OS)              1.71976393 [mEh]       1.07916816 [kcal/mol]       4.51523959 [kJ/mol]

  Total HF                         14.39081827 [mEh]       9.03037480 [kcal/mol]      37.78308816 [kJ/mol]
  Total SAPT0                      -1.21945535 [mEh]      -0.76521979 [kcal/mol]      -3.20167958 [kJ/mol]

  Special recipe for scaled SAPT0 (see Manual):
    Electrostatics sSAPT0          -1.50645602 [mEh]      -0.94531542 [kcal/mol]      -3.95519973 [kJ/mol]
    Exchange sSAPT0                36.46497938 [mEh]      22.88212002 [kcal/mol]      95.73879018 [kJ/mol]
    Induction sSAPT0              -20.32028192 [mEh]     -12.75116941 [kcal/mol]     -53.35089282 [kJ/mol]
    Dispersion sSAPT0             -15.54220457 [mEh]      -9.75288061 [kcal/mol]     -40.80605248 [kJ/mol]
  Total sSAPT0                     -0.90396312 [mEh]      -0.56724542 [kcal/mol]      -2.37335485 [kJ/mol]
  --------------------------------------------------------------------------------------------------------

*** Psi4 exiting successfully. Buy a developer a beer!
