                               Psi4 1.9 release

  ==> Input File <==

--------------------------------------------------------------------------
memory 32 GB # how much memory is available ! Depends on the nodes/cores !

molecule dimer {
# monomer A
+1 1    # Charge and multiplicity
C  0.680067 -0.008042 -7.615929
C -0.680504 -0.006014 -7.615545
N -1.085635 -0.005016 -6.297221
C  0.000108 -0.001740 -5.515820
C -2.477365  0.044390 -5.829242
N  1.085222 -0.005016 -6.297221
H  1.385146 -0.015870 -8.433368
H -1.385302 -0.006204 -8.433214
H -0.000009  0.000007 -4.434731
C  2.478117 -0.021908 -5.832123
H  2.490592  0.005437 -4.741870
H  2.967028 -0.935354 -6.179299
H  3.001428  0.853575 -6.223595
H -2.857359  1.066461 -5.909201
H -3.082679 -0.625694 -6.442306
H -2.518128 -0.282594 -4.789294
--
# monomer B
0 1     # Charge and multiplicity
C   1.22531237526482      0.70753866091955      0.00613762728373
C   1.22532433589282     -0.70753852257020     -0.00619318228664
C   -0.00000567409046      1.41496628609039     -0.00672680580738
C   2.45644923379077      1.41832825917820      0.00902448468363
C   0.00001130712078     -1.41497612663474      0.00347275151708
C   -1.22530046906674      0.70754574598412      0.00838914760619
C   2.45643823516184     -1.41832293188077     -0.00843833914343
C   -0.00000085313587      2.83680140328112     -0.00913035594137
C   3.68182717731192      0.70931832800114     -0.00808954934571
C   2.45512052870677      2.83422403348893     -0.00819210630633
C   3.68182158506039     -0.70933346742900      0.00798293467272
C   -1.22531311884624     -0.70752714354401     -0.00512042085974
C   1.22670006104402      3.54346985599427      0.00816696660346
C   0.00000526469929     -2.83678176723568      0.00832091913869
C   -2.45643555300670      1.41831729028492      0.00842454345199
C   2.45512389762097     -2.83422965658853      0.00783102630520
C   -1.22671388474763      3.54346943575023      0.00827029982280
C   4.91451777504333      1.42717324448953     -0.00160886631602
C   3.69315067131765      3.54279566454522     -0.00155906667985
C   -2.45643712022637     -1.41831290883911     -0.00846337726810
C   1.22670532178455     -3.54347386990643     -0.00780316414624
C   -2.45512491866593      2.83421703463423     -0.00818572995999
C   4.91452486062398     -1.42718653794377      0.00136387641845
C   1.22142509354026      4.97013443726031      0.00150231067809
C   4.89300870916237      2.82518837202648     -0.00039219795739
C   -1.22669652864725     -3.54347062507680     -0.00753595973677
C   -3.68181849668397      0.70932533873199     -0.00807686886569
C   3.69314758099218     -3.54280096939050      0.00148176697923
C   -1.22143177215231      4.97012866986289      0.00168580605083
C   6.13477145276790      0.68054831910577     -0.00083909176631
C   3.65678936045204      4.97295361556775     -0.00065042889723
C   -2.45512642789169     -2.83421472106065      0.00758666850712
C   -3.68181869921921     -0.70932533146830      0.00810055625144
C   4.89301309775526     -2.82519973363176      0.00021895393805
C   -0.00000059327114      5.65044773803267      0.00045449734393
C   6.13477559217374     -0.68055448207492      0.00042622874941
C   2.47813196269732      5.65357712333155      0.00063835075260
C   1.22142288457925     -4.97012668293268     -0.00129718634452
C   -3.69316190412301      3.54279732619245     -0.00139355922051
C   -1.22142804110313     -4.97011793159564     -0.00140994817719
C   -4.91452132810043      1.42717581899491     -0.00153192130862
C   3.65678749952045     -4.97295485423912      0.00080007163680
C   -2.47813805026426      5.65357479452875      0.00092287576113
C   -3.69314125872231     -3.54278984697859      0.00136564082345
C   -4.91451200321153     -1.42718062802730      0.00139857359209
C   -0.00000552908399     -5.65043791501335      0.00005899322272
C   -4.89302000425900      2.82518897091939     -0.00040227981744
C   2.47812647313991     -5.65357317188818     -0.00029052915548
C   -3.65679823041642      4.97295655404175     -0.00047374852278
C   -4.89299899901461     -2.82519139505969      0.00006491824035
C   -2.47812801824129     -5.65356579800621     -0.00056571680280
C   -6.13477002348955      0.68054913825639     -0.00086464346868
C   -3.65678835334731     -4.97294365097028      0.00058578382008
C   -6.13476456307132     -0.68055354348201      0.00040575295444
H   5.83528897565761      3.36927626695423      0.00396712770529
H   7.07385965258860      1.22821762089947     -0.00037744837300
H   4.60066374401555      5.51238117445323     -0.00014522814529
H   5.83528386714679     -3.36930568472863     -0.00423551337640
H   -0.00001167146422      6.73853104613662     -0.00389474766392
H   7.07386165167227     -1.22822657074368     -0.00008250934481
H   2.47331421164041      6.74068466339473      0.00017162982210
H   4.60066897122302     -5.51237575717576      0.00039007446835
H   -2.47331820069565      6.74068209160650      0.00047297644710
H   -0.00000978838621     -6.73852780445195      0.00458867820736
H   -5.83530143450167      3.36927132229595      0.00410314985360
H   2.47330840367253     -6.74068500242887      0.00027980126949
H   -4.60067436136587      5.51237839860371      0.00002010017831
H   -5.83527902699321     -3.36928859177951     -0.00451481925734
H   -2.47329986759855     -6.74067870613986     -0.00016951527498
H   -7.07385728692578      1.22822084484047     -0.00046143985387
H   -4.60067330624313     -5.51236229778631      0.00021776644566
H   -7.07385645456741     -1.22822025997701     -0.00017736581114

    units angstrom      # Angstroms are the default
    no_reorient         # Geometry fixed, default
    symmetry c1         # C1 symmetry, default
}

set {
    scf_type DF         # Density fitting, faster than exact integrals
    freeze_core True    # Freeze core electrons
    basis jun-cc-pVDZ   # Jun-cc-pVDZ basis set, recommended for sSAPT0 in https://doi.org/10.1063/1.4867135
}

energy('ssapt0')        # Compute sSAPT0 energy, includes also SAPT0
--------------------------------------------------------------------------

  //              Dimer HF             //
    Molecular point group: c1
  Charge       = 1
  Multiplicity = 1
  Basis Set: JUN-CC-PVDZ
    Blend: JUN-CC-PVDZ
  Basis Set: (JUN-CC-PVDZ AUX)
    Blend: JUN-CC-PVDZ-JKFIT
  @DF-RHF Final Energy: -2359.20244456108367
    Total Energy =                      -2359.2024445610841212
 Dipole X            :         -0.0013942            0.0006313           -0.0007629
 Dipole Y            :         -0.0484372            0.0560211            0.0075839
 Dipole Z            :         22.3984386          -31.4743287           -9.0758901
 Magnitude           :                                                    9.0758933
  //            Monomer A HF           //
    Molecular point group: c1
  Multiplicity = 1
  Basis Set: JUN-CC-PVDZ
    Blend: JUN-CC-PVDZ
  Basis Set: (JUN-CC-PVDZ AUX)
    Blend: JUN-CC-PVDZ-JKFIT
  @DF-RHF Final Energy:  -303.29734832116367
    Total Energy =                       -303.2973483211636676
  //            Monomer B HF           //
    Molecular point group: c1

    Geometry (in Angstrom), charge = 0, multiplicity = 1:

       Center              X                  Y                   Z               Mass
    ------------   -----------------  -----------------  -----------------  -----------------
      Gh(C)           0.680066520158    -0.008042372515    -6.801890538954    12.000000000000
      Gh(C)          -0.680504479842    -0.006014372515    -6.801506538954    12.000000000000
      Gh(N)          -1.085635479842    -0.005016372515    -5.483182538954    14.003074004430
      Gh(C)           0.000107520158    -0.001740372515    -4.701781538954    12.000000000000
      Gh(C)          -2.477365479842     0.044389627485    -5.015203538954    12.000000000000
      Gh(N)           1.085221520158    -0.005016372515    -5.483182538954    14.003074004430
      Gh(H)           1.385145520158    -0.015870372515    -7.619329538954     1.007825032230
      Gh(H)          -1.385302479842    -0.006204372515    -7.619175538954     1.007825032230
      Gh(H)          -0.000009479842     0.000006627485    -3.620692538954     1.007825032230
      Gh(C)           2.478116520158    -0.021908372515    -5.018084538954    12.000000000000
      Gh(H)           2.490591520158     0.005436627485    -3.927831538954     1.007825032230
      Gh(H)           2.967027520158    -0.935354372515    -5.365260538954     1.007825032230
      Gh(H)           3.001427520158     0.853574627485    -5.409556538954     1.007825032230
      Gh(H)          -2.857359479842     1.066460627485    -5.095162538954     1.007825032230
      Gh(H)          -3.082679479842    -0.625694372515    -5.628267538954     1.007825032230
      Gh(H)          -2.518128479842    -0.282594372515    -3.975255538954     1.007825032230
         C            1.225311895423     0.707538288405     0.820176088329    12.000000000000
         C            1.225323856051    -0.707538895085     0.807845278759    12.000000000000
         C           -0.000006153932     1.414965913575     0.807311655238    12.000000000000
         C            2.456448753949     1.418327886663     0.823062945729    12.000000000000
         C            0.000010827279    -1.414976499150     0.817511212563    12.000000000000
         C           -1.225300948908     0.707545373469     0.822427608652    12.000000000000
         C            2.456437755320    -1.418323304396     0.805600121902    12.000000000000
         C           -0.000001332978     2.836801030766     0.804908105104    12.000000000000
         C            3.681826697470     0.709317955486     0.805948911700    12.000000000000
         C            2.455120048865     2.834223660974     0.805846354739    12.000000000000
         C            3.681821105219    -0.709333839944     0.822021395718    12.000000000000
         C           -1.225313598688    -0.707527516059     0.808918040186    12.000000000000
         C            1.226699581202     3.543469483479     0.822205427649    12.000000000000
         C            0.000004784858    -2.836782139751     0.822359380184    12.000000000000
         C           -2.456436032848     1.418316917770     0.822463004498    12.000000000000
         C            2.455123417779    -2.834230029103     0.821869487351    12.000000000000
         C           -1.226714364589     3.543469063235     0.822308760868    12.000000000000
         C            4.914517295202     1.427172871975     0.812429594730    12.000000000000
         C            3.693150191476     3.542795292030     0.812479394366    12.000000000000
         C           -2.456437600068    -1.418313281354     0.805575083777    12.000000000000
         C            1.226704841943    -3.543474242421     0.806235296899    12.000000000000
         C           -2.455125398508     2.834216662119     0.805852731086    12.000000000000
         C            4.914524380782    -1.427186910459     0.815402337464    12.000000000000
         C            1.221424613699     4.970134064745     0.815540771724    12.000000000000
         C            4.893008229321     2.825187999512     0.813646263088    12.000000000000
         C           -1.226697008489    -3.543470997592     0.806502501309    12.000000000000
         C           -3.681818976526     0.709324966217     0.805961592180    12.000000000000
         C            3.693147101150    -3.542801341905     0.815520228025    12.000000000000
         C           -1.221432251994     4.970128297348     0.815724267096    12.000000000000
         C            6.134770972926     0.680547946591     0.813199369279    12.000000000000
         C            3.656788880610     4.972953243053     0.813388032148    12.000000000000
         C           -2.455126907733    -2.834215093576     0.821625129553    12.000000000000
         C           -3.681819179061    -0.709325703983     0.822139017297    12.000000000000
         C            4.893012617914    -2.825200106147     0.814257414984    12.000000000000
         C           -0.000001073113     5.650447365518     0.814492958389    12.000000000000
         C            6.134775112332    -0.680554854590     0.814464689795    12.000000000000
         C            2.478131482856     5.653576750817     0.814676811798    12.000000000000
         C            1.221422404738    -4.970127055448     0.812741274701    12.000000000000
         C           -3.693162383965     3.542796953677     0.812644901825    12.000000000000
         C           -1.221428520945    -4.970118304111     0.812628512868    12.000000000000
         C           -4.914521807942     1.427175446480     0.812506539737    12.000000000000
         C            3.656787019679    -4.972955226754     0.814838532682    12.000000000000
         C           -2.478138530106     5.653574422014     0.814961336807    12.000000000000
         C           -3.693141738564    -3.542790219494     0.815404101869    12.000000000000
         C           -4.914512483053    -1.427181000542     0.815437034638    12.000000000000
         C           -0.000006008926    -5.650438287528     0.814097454268    12.000000000000
         C           -4.893020484101     2.825188598404     0.813636181228    12.000000000000
         C            2.478125993298    -5.653573544403     0.813747931890    12.000000000000
         C           -3.656798710258     4.972956181527     0.813564712523    12.000000000000
         C           -4.892999478856    -2.825191767575     0.814103379286    12.000000000000
         C           -2.478128498083    -5.653566170521     0.813472744243    12.000000000000
         C           -6.134770503331     0.680548765741     0.813173817577    12.000000000000
         C           -3.656788833189    -4.972944023485     0.814624244866    12.000000000000
         C           -6.134765042913    -0.680553915997     0.814444214000    12.000000000000
         H            5.835288495816     3.369275894439     0.818005588751     1.007825032230
         H            7.073859172747     1.228217248385     0.813661012673     1.007825032230
         H            4.600663264174     5.512380801938     0.813893232900     1.007825032230
         H            5.835283387305    -3.369306057244     0.809802947669     1.007825032230
         H           -0.000012151306     6.738530673622     0.810143713382     1.007825032230
         H            7.073861171831    -1.228226943259     0.813955951701     1.007825032230
         H            2.473313731799     6.740684290880     0.814210090868     1.007825032230
         H            4.600668491381    -5.512376129691     0.814428535514     1.007825032230
         H           -2.473318680537     6.740681719092     0.814511437493     1.007825032230
         H           -0.000010268228    -6.738528176967     0.818627139253     1.007825032230
         H           -5.835301914343     3.369270949781     0.818141610899     1.007825032230
         H            2.473307923831    -6.740685374944     0.814318262315     1.007825032230
         H           -4.600674841208     5.512378026089     0.814058561224     1.007825032230
         H           -5.835279506835    -3.369288964294     0.809523641788     1.007825032230
         H           -2.473300347440    -6.740679078655     0.813868945771     1.007825032230
         H           -7.073857766768     1.228220472326     0.813577021192     1.007825032230
         H           -4.600673786085    -5.512362670301     0.814256227491     1.007825032230
         H           -7.073856934409    -1.228220632492     0.813861095234     1.007825032230

  Charge       = 0
  Multiplicity = 1
  Basis Set: JUN-CC-PVDZ
    Blend: JUN-CC-PVDZ
  Basis Set: (JUN-CC-PVDZ AUX)
    Blend: JUN-CC-PVDZ-JKFIT

    Orbital Energies [Eh]
    ---------------------

    Doubly Occupied:

       1A    -11.260616     2A    -11.260174     3A    -11.260169
       4A    -11.259459     5A    -11.259456     6A    -11.259286
       7A    -11.259074     8A    -11.258998     9A    -11.258996
      10A    -11.258674    11A    -11.258669    12A    -11.258598
      13A    -11.258537    14A    -11.258531    15A    -11.258529
      16A    -11.258500    17A    -11.258493    18A    -11.258477
      19A    -11.258466    20A    -11.258459    21A    -11.258453
      22A    -11.258359    23A    -11.258354    24A    -11.258060
      25A    -11.257391    26A    -11.257329    27A    -11.257328
      28A    -11.257194    29A    -11.257193    30A    -11.257109
      31A    -11.256486    32A    -11.256415    33A    -11.256414
      34A    -11.256306    35A    -11.256304    36A    -11.256257
      37A    -11.252346    38A    -11.252346    39A    -11.252343
      40A    -11.252343    41A    -11.252335    42A    -11.252333
      43A    -11.251468    44A    -11.251466    45A    -11.251463
      46A    -11.251459    47A    -11.251456    48A    -11.251453
      49A    -11.250907    50A    -11.250907    51A    -11.250904
      52A    -11.250903    53A    -11.250896    54A    -11.250894
      55A     -1.244180    56A     -1.219921    57A     -1.219912
      58A     -1.189636    59A     -1.189625    60A     -1.181059
      61A     -1.157644    62A     -1.149068    63A     -1.135604
      64A     -1.135591    65A     -1.113275    66A     -1.113271
      67A     -1.082530    68A     -1.082523    69A     -1.078709
      70A     -1.066062    71A     -1.066056    72A     -1.039488
      73A     -1.024381    74A     -1.021883    75A     -1.021833
      76A     -1.017808    77A     -1.012874    78A     -0.987122
      79A     -0.987071    80A     -0.961966    81A     -0.961914
      82A     -0.894379    83A     -0.894354    84A     -0.888048
      85A     -0.886295    86A     -0.886243    87A     -0.881496
      88A     -0.881450    89A     -0.861986    90A     -0.837481
      91A     -0.818298    92A     -0.816721    93A     -0.812234
      94A     -0.812229    95A     -0.794773    96A     -0.794761
      97A     -0.746730    98A     -0.744960    99A     -0.733520
     100A     -0.733518   101A     -0.732267   102A     -0.732244
     103A     -0.716598   104A     -0.699065   105A     -0.699046
     106A     -0.693684   107A     -0.693658   108A     -0.661315
     109A     -0.653222   110A     -0.651266   111A     -0.650336
     112A     -0.650330   113A     -0.639447   114A     -0.639436
     115A     -0.629812   116A     -0.627621   117A     -0.627608
     118A     -0.606496   119A     -0.605873   120A     -0.601759
     121A     -0.599833   122A     -0.599788   123A     -0.593725
     124A     -0.591337   125A     -0.591319   126A     -0.585350
     127A     -0.576440   128A     -0.576379   129A     -0.567403
     130A     -0.567385   131A     -0.566059   132A     -0.566043
     133A     -0.558831   134A     -0.554933   135A     -0.554932
     136A     -0.538676   137A     -0.538674   138A     -0.538249
     139A     -0.538238   140A     -0.529804   141A     -0.528209
     142A     -0.522965   143A     -0.522948   144A     -0.500585
     145A     -0.495673   146A     -0.493320   147A     -0.487893
     148A     -0.485165   149A     -0.481848   150A     -0.481843
     151A     -0.470382   152A     -0.470380   153A     -0.451130
     154A     -0.451056   155A     -0.439133   156A     -0.439125
     157A     -0.404813   158A     -0.404783   159A     -0.403447
     160A     -0.375488   161A     -0.375483   162A     -0.349191
     163A     -0.337645   164A     -0.336614   165A     -0.336569
     166A     -0.311162   167A     -0.298160   168A     -0.284408
     169A     -0.284362   170A     -0.224984   171A     -0.224921

  @DF-RHF Final Energy: -2055.89250313854836

   => Energetics <=

    Nuclear Repulsion Energy =           6452.5568002797781446
    One-Electron Energy =              -15636.4546142596773279
    Two-Electron Energy =                7128.0053108413521841
    Total Energy =                      -2055.8925031385479087
 Dipole X            :          0.0001051           -0.0000085            0.0000966
 Dipole Y            :         -0.0000650            0.0000167           -0.0000483
 Dipole Z            :       -526.0924566          526.1004905            0.0080339
 Magnitude           :                                                    0.0080346

    SAPT Results
  --------------------------------------------------------------------------------------------------------
    Electrostatics                 -8.89111339 [mEh]      -5.57925789 [kcal/mol]     -23.34361500 [kJ/mol]
      Elst10,r                     -8.89111339 [mEh]      -5.57925789 [kcal/mol]     -23.34361500 [kJ/mol]

    Exchange                        0.00772629 [mEh]       0.00484832 [kcal/mol]       0.02028536 [kJ/mol]
      Exch10                        0.00772629 [mEh]       0.00484832 [kcal/mol]       0.02028536 [kJ/mol]
      Exch10(S^2)                   0.00772625 [mEh]       0.00484829 [kcal/mol]       0.02028526 [kJ/mol]

    Induction                      -3.70971426 [mEh]      -2.32788085 [kcal/mol]      -9.73985346 [kJ/mol]
      Ind20,r                      -3.59703122 [mEh]      -2.25717117 [kcal/mol]      -9.44400417 [kJ/mol]
      Exch-Ind20,r                  0.00285243 [mEh]       0.00178992 [kcal/mol]       0.00748905 [kJ/mol]
      delta HF,r (2)               -0.11553547 [mEh]      -0.07249960 [kcal/mol]      -0.30333833 [kJ/mol]

    Dispersion                     -2.49887347 [mEh]      -1.56806677 [kcal/mol]      -6.56079138 [kJ/mol]
      Disp20                       -2.50060964 [mEh]      -1.56915624 [kcal/mol]      -6.56534971 [kJ/mol]
      Exch-Disp20                   0.00173618 [mEh]       0.00108947 [kcal/mol]       0.00455833 [kJ/mol]
      Disp20 (SS)                  -1.25030482 [mEh]      -0.78457812 [kcal/mol]      -3.28267486 [kJ/mol]
      Disp20 (OS)                  -1.25030482 [mEh]      -0.78457812 [kcal/mol]      -3.28267486 [kJ/mol]
      Exch-Disp20 (SS)              0.00123306 [mEh]       0.00077376 [kcal/mol]       0.00323740 [kJ/mol]
      Exch-Disp20 (OS)              0.00050312 [mEh]       0.00031571 [kcal/mol]       0.00132093 [kJ/mol]

  Total HF                        -12.59310137 [mEh]      -7.90229042 [kcal/mol]     -33.06318310 [kJ/mol]
  Total SAPT0                     -15.09197484 [mEh]      -9.47035719 [kcal/mol]     -39.62397448 [kJ/mol]

  Special recipe for scaled SAPT0 (see Manual):
    Electrostatics sSAPT0          -8.89111339 [mEh]      -5.57925789 [kcal/mol]     -23.34361500 [kJ/mol]
    Exchange sSAPT0                 0.00772629 [mEh]       0.00484832 [kcal/mol]       0.02028536 [kJ/mol]
    Induction sSAPT0               -3.70971426 [mEh]      -2.32788085 [kcal/mol]      -9.73985346 [kJ/mol]
    Dispersion sSAPT0              -2.49887347 [mEh]      -1.56806677 [kcal/mol]      -6.56079138 [kJ/mol]
  Total sSAPT0                    -15.09197484 [mEh]      -9.47035719 [kcal/mol]     -39.62397448 [kJ/mol]
  --------------------------------------------------------------------------------------------------------

*** Psi4 exiting successfully. Buy a developer a beer!
