                               Psi4 1.9 release

  ==> Input File <==

--------------------------------------------------------------------------
memory 32 GB # how much memory is available ! Depends on the nodes/cores !

molecule dimer {
# monomer A
-1 1    # Charge and multiplicity
B -0.000046  0.000337 4.199994
F -1.153597  0.000048 5.015641
F  1.153661 -0.000581 5.015641
F -0.000019 -1.153637 3.384360
F -0.000019  1.153978 3.384360
--
# monomer B
0 1     # Charge and multiplicity
C   1.22531237526482      0.70753866091955      0.00613762728373
C   1.22532433589282     -0.70753852257020     -0.00619318228664
C   -0.00000567409046      1.41496628609039     -0.00672680580738
C   2.45644923379077      1.41832825917820      0.00902448468363
C   0.00001130712078     -1.41497612663474      0.00347275151708
C   -1.22530046906674      0.70754574598412      0.00838914760619
C   2.45643823516184     -1.41832293188077     -0.00843833914343
C   -0.00000085313587      2.83680140328112     -0.00913035594137
C   3.68182717731192      0.70931832800114     -0.00808954934571
C   2.45512052870677      2.83422403348893     -0.00819210630633
C   3.68182158506039     -0.70933346742900      0.00798293467272
C   -1.22531311884624     -0.70752714354401     -0.00512042085974
C   1.22670006104402      3.54346985599427      0.00816696660346
C   0.00000526469929     -2.83678176723568      0.00832091913869
C   -2.45643555300670      1.41831729028492      0.00842454345199
C   2.45512389762097     -2.83422965658853      0.00783102630520
C   -1.22671388474763      3.54346943575023      0.00827029982280
C   4.91451777504333      1.42717324448953     -0.00160886631602
C   3.69315067131765      3.54279566454522     -0.00155906667985
C   -2.45643712022637     -1.41831290883911     -0.00846337726810
C   1.22670532178455     -3.54347386990643     -0.00780316414624
C   -2.45512491866593      2.83421703463423     -0.00818572995999
C   4.91452486062398     -1.42718653794377      0.00136387641845
C   1.22142509354026      4.97013443726031      0.00150231067809
C   4.89300870916237      2.82518837202648     -0.00039219795739
C   -1.22669652864725     -3.54347062507680     -0.00753595973677
C   -3.68181849668397      0.70932533873199     -0.00807686886569
C   3.69314758099218     -3.54280096939050      0.00148176697923
C   -1.22143177215231      4.97012866986289      0.00168580605083
C   6.13477145276790      0.68054831910577     -0.00083909176631
C   3.65678936045204      4.97295361556775     -0.00065042889723
C   -2.45512642789169     -2.83421472106065      0.00758666850712
C   -3.68181869921921     -0.70932533146830      0.00810055625144
C   4.89301309775526     -2.82519973363176      0.00021895393805
C   -0.00000059327114      5.65044773803267      0.00045449734393
C   6.13477559217374     -0.68055448207492      0.00042622874941
C   2.47813196269732      5.65357712333155      0.00063835075260
C   1.22142288457925     -4.97012668293268     -0.00129718634452
C   -3.69316190412301      3.54279732619245     -0.00139355922051
C   -1.22142804110313     -4.97011793159564     -0.00140994817719
C   -4.91452132810043      1.42717581899491     -0.00153192130862
C   3.65678749952045     -4.97295485423912      0.00080007163680
C   -2.47813805026426      5.65357479452875      0.00092287576113
C   -3.69314125872231     -3.54278984697859      0.00136564082345
C   -4.91451200321153     -1.42718062802730      0.00139857359209
C   -0.00000552908399     -5.65043791501335      0.00005899322272
C   -4.89302000425900      2.82518897091939     -0.00040227981744
C   2.47812647313991     -5.65357317188818     -0.00029052915548
C   -3.65679823041642      4.97295655404175     -0.00047374852278
C   -4.89299899901461     -2.82519139505969      0.00006491824035
C   -2.47812801824129     -5.65356579800621     -0.00056571680280
C   -6.13477002348955      0.68054913825639     -0.00086464346868
C   -3.65678835334731     -4.97294365097028      0.00058578382008
C   -6.13476456307132     -0.68055354348201      0.00040575295444
H   5.83528897565761      3.36927626695423      0.00396712770529
H   7.07385965258860      1.22821762089947     -0.00037744837300
H   4.60066374401555      5.51238117445323     -0.00014522814529
H   5.83528386714679     -3.36930568472863     -0.00423551337640
H   -0.00001167146422      6.73853104613662     -0.00389474766392
H   7.07386165167227     -1.22822657074368     -0.00008250934481
H   2.47331421164041      6.74068466339473      0.00017162982210
H   4.60066897122302     -5.51237575717576      0.00039007446835
H   -2.47331820069565      6.74068209160650      0.00047297644710
H   -0.00000978838621     -6.73852780445195      0.00458867820736
H   -5.83530143450167      3.36927132229595      0.00410314985360
H   2.47330840367253     -6.74068500242887      0.00027980126949
H   -4.60067436136587      5.51237839860371      0.00002010017831
H   -5.83527902699321     -3.36928859177951     -0.00451481925734
H   -2.47329986759855     -6.74067870613986     -0.00016951527498
H   -7.07385728692578      1.22822084484047     -0.00046143985387
H   -4.60067330624313     -5.51236229778631      0.00021776644566
H   -7.07385645456741     -1.22822025997701     -0.00017736581114

    units angstrom      # Angstroms are the default
    no_reorient         # Geometry fixed, default
    symmetry c1         # C1 symmetry, default
}

set {
    scf_type DF         # Density fitting, faster than exact integrals
    freeze_core True    # Freeze core electrons
    basis jun-cc-pVDZ   # Jun-cc-pVDZ basis set, recommended for sSAPT0 in https://doi.org/10.1063/1.4867135
}

energy('ssapt0')        # Compute sSAPT0 energy, includes also SAPT0
--------------------------------------------------------------------------

  //              Dimer HF             //
    Molecular point group: c1
  Charge       = -1
  Multiplicity = 1
  Basis Set: JUN-CC-PVDZ
    Blend: JUN-CC-PVDZ
  Basis Set: (JUN-CC-PVDZ AUX)
    Blend: JUN-CC-PVDZ-JKFIT
  @DF-RHF Final Energy: -2478.66289270104880
    Total Energy =                      -2478.6628927010497137
 Dipole X            :         -0.0002354           -0.0000160           -0.0002514
 Dipole Y            :          0.0011991           -0.0001716            0.0010274
 Dipole Z            :         19.9951962          -25.7472263           -5.7520301
 Magnitude           :                                                    5.7520302
  //            Monomer A HF           //
    Molecular point group: c1
  Multiplicity = 1
  Basis Set: JUN-CC-PVDZ
    Blend: JUN-CC-PVDZ
  Basis Set: (JUN-CC-PVDZ AUX)
    Blend: JUN-CC-PVDZ-JKFIT
  @DF-RHF Final Energy:  -422.77267367231406
    Total Energy =                       -422.7726736723140561
  //            Monomer B HF           //
    Molecular point group: c1

    Geometry (in Angstrom), charge = 0, multiplicity = 1:

       Center              X                  Y                   Z               Mass
    ------------   -----------------  -----------------  -----------------  -----------------
      Gh(B)          -0.000046449334     0.000336519434     3.714813661092    11.009305360000
      Gh(F)          -1.153597449334     0.000047519434     4.530460661092    18.998403162730
      Gh(F)           1.153660550666    -0.000581480566     4.530460661092    18.998403162730
      Gh(F)          -0.000019449334    -1.153637480566     2.899179661092    18.998403162730
      Gh(F)          -0.000019449334     1.153977519434     2.899179661092    18.998403162730
         C            1.225311925931     0.707538180353    -0.479042711624    12.000000000000
         C            1.225323886559    -0.707539003137    -0.491373521195    12.000000000000
         C           -0.000006123424     1.414965805524    -0.491907144716    12.000000000000
         C            2.456448784457     1.418327778612    -0.476155854225    12.000000000000
         C            0.000010857787    -1.414976607201    -0.481707587391    12.000000000000
         C           -1.225300918401     0.707545265418    -0.476791191302    12.000000000000
         C            2.456437785828    -1.418323412447    -0.493618678052    12.000000000000
         C           -0.000001302470     2.836800922715    -0.494310694850    12.000000000000
         C            3.681826727978     0.709317847435    -0.493269888254    12.000000000000
         C            2.455120079373     2.834223552923    -0.493372445215    12.000000000000
         C            3.681821135726    -0.709333947995    -0.477197404235    12.000000000000
         C           -1.225313568180    -0.707527624110    -0.490300759768    12.000000000000
         C            1.226699611710     3.543469375428    -0.477013372305    12.000000000000
         C            0.000004815365    -2.836782247802    -0.476859419769    12.000000000000
         C           -2.456436002341     1.418316809719    -0.476755795456    12.000000000000
         C            2.455123448287    -2.834230137155    -0.477349312603    12.000000000000
         C           -1.226714334082     3.543468955184    -0.476910039085    12.000000000000
         C            4.914517325709     1.427172763923    -0.486789205224    12.000000000000
         C            3.693150221984     3.542795183979    -0.486739405588    12.000000000000
         C           -2.456437569560    -1.418313389406    -0.493643716176    12.000000000000
         C            1.226704872451    -3.543474350473    -0.492983503054    12.000000000000
         C           -2.455125368000     2.834216554068    -0.493366068868    12.000000000000
         C            4.914524411290    -1.427187018510    -0.483816462490    12.000000000000
         C            1.221424644206     4.970133956694    -0.483678028230    12.000000000000
         C            4.893008259828     2.825187891460    -0.485572536866    12.000000000000
         C           -1.226696977981    -3.543471105643    -0.492716298645    12.000000000000
         C           -3.681818946018     0.709324858166    -0.493257207774    12.000000000000
         C            3.693147131658    -3.542801449957    -0.483698571929    12.000000000000
         C           -1.221432221486     4.970128189296    -0.483494532857    12.000000000000
         C            6.134771003434     0.680547838539    -0.486019430674    12.000000000000
         C            3.656788911118     4.972953135001    -0.485830767805    12.000000000000
         C           -2.455126877226    -2.834215201627    -0.477593670401    12.000000000000
         C           -3.681819148553    -0.709325812035    -0.477079782657    12.000000000000
         C            4.893012648421    -2.825200214198    -0.484961384970    12.000000000000
         C           -0.000001042605     5.650447257466    -0.484725841564    12.000000000000
         C            6.134775142840    -0.680554962641    -0.484754110159    12.000000000000
         C            2.478131513363     5.653576642765    -0.484541988156    12.000000000000
         C            1.221422435245    -4.970127163499    -0.486477525253    12.000000000000
         C           -3.693162353457     3.542796845626    -0.486573898129    12.000000000000
         C           -1.221428490437    -4.970118412162    -0.486590287085    12.000000000000
         C           -4.914521777434     1.427175338429    -0.486712260217    12.000000000000
         C            3.656787050187    -4.972955334806    -0.484380267271    12.000000000000
         C           -2.478138499598     5.653574313962    -0.484257463147    12.000000000000
         C           -3.693141708056    -3.542790327545    -0.483814698085    12.000000000000
         C           -4.914512452545    -1.427181108594    -0.483781765316    12.000000000000
         C           -0.000005978418    -5.650438395580    -0.485121345685    12.000000000000
         C           -4.893020453593     2.825188490353    -0.485582618726    12.000000000000
         C            2.478126023806    -5.653573652455    -0.485470868064    12.000000000000
         C           -3.656798679750     4.972956073475    -0.485654087431    12.000000000000
         C           -4.892999448349    -2.825191875626    -0.485115420668    12.000000000000
         C           -2.478128467575    -5.653566278573    -0.485746055711    12.000000000000
         C           -6.134770472823     0.680548657690    -0.486044982377    12.000000000000
         C           -3.656788802681    -4.972944131537    -0.484594555088    12.000000000000
         C           -6.134765012405    -0.680554024048    -0.484774585954    12.000000000000
         H            5.835288526324     3.369275786388    -0.481213211203     1.007825032230
         H            7.073859203255     1.228217140333    -0.485557787281     1.007825032230
         H            4.600663294682     5.512380693887    -0.485325567053     1.007825032230
         H            5.835283417813    -3.369306165295    -0.489415852285     1.007825032230
         H           -0.000012120798     6.738530565570    -0.489075086572     1.007825032230
         H            7.073861202338    -1.228227051310    -0.485262848253     1.007825032230
         H            2.473313762307     6.740684182828    -0.485008709086     1.007825032230
         H            4.600668521889    -5.512376237742    -0.484790264440     1.007825032230
         H           -2.473318650030     6.740681611040    -0.484707362461     1.007825032230
         H           -0.000010237720    -6.738528285018    -0.480591660701     1.007825032230
         H           -5.835301883836     3.369270841730    -0.481077189055     1.007825032230
         H            2.473307954339    -6.740685482995    -0.484900537639     1.007825032230
         H           -4.600674810700     5.512377918037    -0.485160238730     1.007825032230
         H           -5.835279476327    -3.369289072346    -0.489695158166     1.007825032230
         H           -2.473300316932    -6.740679186706    -0.485349854183     1.007825032230
         H           -7.073857736260     1.228220364274    -0.485641778762     1.007825032230
         H           -4.600673755577    -5.512362778353    -0.484962572463     1.007825032230
         H           -7.073856903901    -1.228220740543    -0.485357704719     1.007825032230

  Charge       = 0
  Multiplicity = 1
  Basis Set: JUN-CC-PVDZ
    Blend: JUN-CC-PVDZ
  Basis Set: (JUN-CC-PVDZ AUX)
    Blend: JUN-CC-PVDZ-JKFIT

    Orbital Energies [Eh]
    ---------------------

    Doubly Occupied:

       1A    -11.260686     2A    -11.260269     3A    -11.260202
       4A    -11.259526     5A    -11.259451     6A    -11.259305
       7A    -11.259067     8A    -11.259020     9A    -11.258960
      10A    -11.258675    11A    -11.258647    12A    -11.258552
      13A    -11.258494    14A    -11.258491    15A    -11.258489
      16A    -11.258453    17A    -11.258452    18A    -11.258436
      19A    -11.258429    20A    -11.258428    21A    -11.258409
      22A    -11.258367    23A    -11.258333    24A    -11.258105
      25A    -11.257350    26A    -11.257298    27A    -11.257282
      28A    -11.257169    29A    -11.257146    30A    -11.257075
      31A    -11.256446    32A    -11.256382    33A    -11.256371
      34A    -11.256283    35A    -11.256252    36A    -11.256219
      37A    -11.252303    38A    -11.252302    39A    -11.252297
      40A    -11.252295    41A    -11.252294    42A    -11.252292
      43A    -11.251412    44A    -11.251410    45A    -11.251406
      46A    -11.251403    47A    -11.251396    48A    -11.251391
      49A    -11.250865    50A    -11.250864    51A    -11.250858
      52A    -11.250856    53A    -11.250854    54A    -11.250853
      55A     -1.244070    56A     -1.219842    57A     -1.219823
      58A     -1.189561    59A     -1.189556    60A     -1.180947
      61A     -1.157581    62A     -1.149000    63A     -1.135503
      64A     -1.135498    65A     -1.113216    66A     -1.113208
      67A     -1.082447    68A     -1.082443    69A     -1.078611
      70A     -1.066003    71A     -1.066001    72A     -1.039421
      73A     -1.024291    74A     -1.021767    75A     -1.021734
      76A     -1.017752    77A     -1.012820    78A     -0.987036
      79A     -0.986995    80A     -0.961901    81A     -0.961851
      82A     -0.894313    83A     -0.894286    84A     -0.887937
      85A     -0.886198    86A     -0.886126    87A     -0.881406
      88A     -0.881368    89A     -0.861922    90A     -0.837436
      91A     -0.818229    92A     -0.816624    93A     -0.812150
      94A     -0.812139    95A     -0.794709    96A     -0.794702
      97A     -0.746634    98A     -0.744873    99A     -0.733428
     100A     -0.733407   101A     -0.732202   102A     -0.732182
     103A     -0.716508   104A     -0.698989   105A     -0.698988
     106A     -0.693595   107A     -0.693590   108A     -0.661252
     109A     -0.653110   110A     -0.651162   111A     -0.650273
     112A     -0.650269   113A     -0.639385   114A     -0.639376
     115A     -0.629726   116A     -0.627542   117A     -0.627513
     118A     -0.606484   119A     -0.605832   120A     -0.601675
     121A     -0.599744   122A     -0.599730   123A     -0.593655
     124A     -0.591217   125A     -0.591210   126A     -0.585302
     127A     -0.576458   128A     -0.576362   129A     -0.567346
     130A     -0.567333   131A     -0.565967   132A     -0.565943
     133A     -0.558729   134A     -0.554862   135A     -0.554857
     136A     -0.538616   137A     -0.538612   138A     -0.538213
     139A     -0.538208   140A     -0.529738   141A     -0.528189
     142A     -0.522886   143A     -0.522885   144A     -0.500526
     145A     -0.495623   146A     -0.493254   147A     -0.487857
     148A     -0.485087   149A     -0.481773   150A     -0.481764
     151A     -0.470384   152A     -0.470339   153A     -0.451028
     154A     -0.450943   155A     -0.439092   156A     -0.439078
     157A     -0.404768   158A     -0.404739   159A     -0.403406
     160A     -0.375436   161A     -0.375432   162A     -0.349149
     163A     -0.337637   164A     -0.336602   165A     -0.336525
     166A     -0.311097   167A     -0.298128   168A     -0.284365
     169A     -0.284323   170A     -0.224942   171A     -0.224864

  @DF-RHF Final Energy: -2055.89355715047031

   => Energetics <=

    Nuclear Repulsion Energy =           6452.5568002797781446
    One-Electron Energy =              -15636.4756483905675850
    Two-Electron Energy =                7128.0252909603186708
    Total Energy =                      -2055.8935571504698601
 Dipole X            :          0.0000668            0.0000112            0.0000780
 Dipole Y            :          0.0003330           -0.0000531            0.0002798
 Dipole Z            :        313.5661267         -313.5668660           -0.0007393
 Magnitude           :                                                    0.0007943

    SAPT Results
  --------------------------------------------------------------------------------------------------------
    Electrostatics                 11.85953468 [mEh]       7.44197037 [kcal/mol]      31.13720402 [kJ/mol]
      Elst10,r                     11.85953468 [mEh]       7.44197037 [kcal/mol]      31.13720402 [kJ/mol]

    Exchange                        2.37912158 [mEh]       1.49292133 [kcal/mol]       6.24638284 [kJ/mol]
      Exch10                        2.37912158 [mEh]       1.49292133 [kcal/mol]       6.24638284 [kJ/mol]
      Exch10(S^2)                   2.37867847 [mEh]       1.49264327 [kcal/mol]       6.24521946 [kJ/mol]

    Induction                     -10.90053452 [mEh]      -6.84018868 [kcal/mol]     -28.61934945 [kJ/mol]
      Ind20,r                     -11.39578212 [mEh]      -7.15096124 [kcal/mol]     -29.91962183 [kJ/mol]
      Exch-Ind20,r                  0.58669256 [mEh]       0.36815514 [kcal/mol]       1.54036110 [kJ/mol]
      delta HF,r (2)               -0.09144496 [mEh]      -0.05738258 [kcal/mol]      -0.24008872 [kJ/mol]

    Dispersion                     -5.50379888 [mEh]      -3.45368594 [kcal/mol]     -14.45022197 [kJ/mol]
      Disp20                       -5.90209331 [mEh]      -3.70361947 [kcal/mol]     -15.49594385 [kJ/mol]
      Exch-Disp20                   0.39829443 [mEh]       0.24993353 [kcal/mol]       1.04572188 [kJ/mol]
      Disp20 (SS)                  -2.95104665 [mEh]      -1.85180973 [kcal/mol]      -7.74797192 [kJ/mol]
      Disp20 (OS)                  -2.95104665 [mEh]      -1.85180973 [kcal/mol]      -7.74797192 [kJ/mol]
      Exch-Disp20 (SS)              0.24259230 [mEh]       0.15222897 [kcal/mol]       0.63692599 [kJ/mol]
      Exch-Disp20 (OS)              0.15570213 [mEh]       0.09770456 [kcal/mol]       0.40879589 [kJ/mol]

  Total HF                          3.33812174 [mEh]       2.09470301 [kcal/mol]       8.76423741 [kJ/mol]
  Total SAPT0                      -2.16567714 [mEh]      -1.35898292 [kcal/mol]      -5.68598456 [kJ/mol]

  Special recipe for scaled SAPT0 (see Manual):
    Electrostatics sSAPT0          11.85953468 [mEh]       7.44197037 [kcal/mol]      31.13720402 [kJ/mol]
    Exchange sSAPT0                 2.37912158 [mEh]       1.49292133 [kcal/mol]       6.24638284 [kJ/mol]
    Induction sSAPT0              -10.90020659 [mEh]      -6.83998290 [kcal/mol]     -28.61848845 [kJ/mol]
    Dispersion sSAPT0              -5.50357625 [mEh]      -3.45354624 [kcal/mol]     -14.44963745 [kJ/mol]
  Total sSAPT0                     -2.16512658 [mEh]      -1.35863744 [kcal/mol]      -5.68453905 [kJ/mol]
  --------------------------------------------------------------------------------------------------------

*** Psi4 exiting successfully. Buy a developer a beer!
