                               Psi4 1.9 release

  ==> Input File <==

--------------------------------------------------------------------------
memory 64 GB # how much memory is available ! Depends on the nodes/cores !

molecule dimer {
# monomer A
-1 1    # Charge and multiplicity
B -1.977592e-04  2.742729e-04 2.600034
F  1.123153e-16  1.430594e-17 4.012819
F  1.147860e+00  6.757812e-01 2.128893
F  1.191806e-02 -1.332011e+00 2.129095
F -1.159666e+00  6.560735e-01 2.129174
--
# monomer B
0 1     # Charge and multiplicity
C   -3.66844126402057      7.80375217008252      0.00190004133558
C   -4.84759871934653      7.13124183134024     -0.00046653359696
C   -4.89495929917518      5.69633040353158     -0.00103944469517
C   -3.65374067877320      4.98073034095895      0.00662099703436
C   -2.40942512149445      7.11398103667468      0.00209438359570
C   -2.42547734410473      5.68112195090346     -0.00491050527438
C   -1.19474401643570      7.78614419430947      0.00356656413763
C   0.03795902893699      7.09942164575698      0.00139585983271
C   0.03033258741920      5.66948955970466     -0.00408752508301
C   -1.20098450790502      4.96927034791531      0.00488220885047
C   1.27795782581485      7.77285944319479      0.00277170839332
C   2.48535808472416      7.08769688523756      0.00049722048857
C   2.48612868491717      5.65477081024076     -0.00644052849921
C   1.25408291964399      4.95607811366431      0.00518741308898
C   3.75171459140595      7.76391215098033      0.00062407186893
C   4.92356605618520      7.07878077698995     -0.00143240883900
C   4.95560727132542      5.64344746336949     -0.00159282164606
C   3.70680153420475      4.94121020833308      0.00349873852374
H   -3.65852113775815      8.89082741913536      0.00358502958574
H   -1.18921332975660      8.87412108735996      0.00753844057883
H   1.28429423888630      8.86083343548850      0.00693053253426
H   3.75354208679975      8.85103527897216      0.00214659618464
H   5.86995870320703      7.61379483465560     -0.00235777588134
H   -5.78823170750226      7.67630221293400     -0.00202638095293
C   -6.09197395869619      4.99326001364347     -0.00291168518608
C   -6.12866148031747      3.58258016879823     -0.00171050815740
C   -3.66457974004527      3.56418217974434     -0.00463560277484
C   -4.89429820469869      2.86108077590057      0.00453338221034
C   -2.43733499489796      2.84761165708481      0.00719617576166
C   -1.20922785759670      3.54788693497833     -0.00648285103018
C   1.24714157216223      3.53468075142962     -0.00729145743546
C   0.01517603956900      2.83311183930540      0.00439272578912
C   2.46764517244071      2.82128997725533      0.00449278391269
C   3.70254947457969      3.52466015442405     -0.00899517692985
C   6.14498038638375      4.92757236613191     -0.00282626685777
C   6.16658835886151      3.51658447594213     -0.00065971342101
C   4.92460995845939      2.80840792535402      0.00587903281610
H   7.08990550964105      5.46688776622306     -0.00658814770723
H   -7.03104175110130      5.54268795285765     -0.00714490013730
C   -7.33969804112295      2.85841153457957     -0.00333767559888
C   -7.36488195805880      1.47032337158330     -0.00157213747140
C   -4.90350460894690      1.44442681216000     -0.00628840166334
C   -6.13225715261081      0.73993935705394      0.00600164231964
C   -3.67687480051673      0.72669714267312      0.00433931473643
C   -2.44565658606518      1.42964113326212     -0.00597039546461
C   -1.22360068130162      0.71532450163492      0.00545886906656
C   0.00763786931376      1.41738314923765      0.00392452278437
C   1.23121980774686      0.70211669058719     -0.01490206287210
C   2.46082110053113      1.40329203612573      0.00460244601878
C   3.68443025419614      0.68719842821222      0.00377365974158
C   4.91870890153864      1.39173456118907     -0.00862816189375
C   7.36980207796101      2.77948220318441     -0.00242013321349
C   7.38016266612146      1.39121750785509     -0.00087345036788
C   6.13979953912259      0.67411862320065      0.00545489144369
H   -8.27919079934664      3.40711804112415     -0.00763522772059
H   8.31511347147953      3.31811809662368     -0.00663070901292
C   -8.59175593758115      0.72483255304480     -0.00123170985383
C   -8.59902460370342     -0.63263980622873      0.00089141472904
C   -6.13981313911873     -0.67413663715361     -0.00609792660607
C   -7.38018411213749     -1.39126618958160      0.00131813493501
C   -4.91868448025621     -1.39175501803000      0.00624257154343
C   -3.68443829568458     -0.68723731573599     -0.00478966852105
C   -2.46081704024768     -1.40334517882457      0.00575341766833
C   -1.23116201232071     -0.70217386488055     -0.00636696112346
C   -0.00756962538737     -1.41741884941102      0.00108956317991
C   1.22364771588843     -0.71527537726392      0.01109518512883
C   2.44567064933149     -1.42964328900682     -0.00065482763106
C   3.67686670284649     -0.72670743155550     -0.00479541202602
C   6.13224884641929     -0.73997883984993     -0.00632338623858
C   4.90351914550401     -1.44445752054090      0.00751768830159
C   8.59901484869081      0.63260386666793     -0.00101133422380
C   8.59174548810050     -0.72485086719319      0.00072504603735
C   7.36486276438985     -1.47033266560598      0.00049486934466
H   -9.52830597181814      1.27684744919284     -0.00270163681798
H   9.54141097460619      1.17457248844457     -0.00206336648518
C   -7.36983790976868     -2.77954514593389      0.00312634335708
C   -4.92459910905015     -2.80843725734101     -0.00460528907921
C   -6.16662249566744     -3.51665219282533      0.00169655107992
C   -3.70251035970491     -3.52468154912026      0.00571878010666
C   -2.46764698511392     -2.82132596280400     -0.00632585824990
C   -0.01513347410770     -2.83314164539971     -0.00604426974092
C   -1.24712184122656     -3.53473217556300      0.00551968366725
C   1.20924506964357     -3.54791467864352      0.00805871345849
C   2.43733602215464     -2.84764173817541     -0.00608104485234
C   4.89430234377080     -2.86112296828604     -0.00526030478103
C   3.66461525504104     -3.56421984553201      0.00761911515957
C   6.12863901474565     -3.58258405771778      0.00096495711699
C   7.33967266469532     -2.85841330737039      0.00248018319869
H   -9.54144911125902     -1.17456346666430      0.00226083090216
H   9.52826186807155     -1.27691907390448      0.00197485379837
H   -8.31516504384864     -3.31814985321231      0.00729857188773
H   8.27915514249207     -3.40714078989363      0.00681973918158
C   -6.14499418870218     -4.92764727278338      0.00302254913999
C   -3.70678334799751     -4.94126171411716     -0.00679841894792
C   -4.95559005800169     -5.64349397349412      0.00116871569699
C   -2.48612132622665     -5.65478557440947      0.00614125209662
C   -1.25405833548005     -4.95612205000132     -0.00503435388927
C   1.20101257386816     -4.96928038819302     -0.00385322963129
C   -0.03033667441341     -5.66952030313900      0.00398997003238
C   3.65375010132847     -4.98074377541453     -0.00309522988330
C   2.42549269587528     -5.68117463552727      0.00628170066869
C   6.09196561781097     -4.99325796338655      0.00325918379042
C   4.89497644461045     -5.69634842095790      0.00202298796027
H   -7.08989238804069     -5.46699984223871      0.00742531082125
H   7.03105520920009     -5.54265853633254      0.00683896355417
C   -4.92354532219813     -7.07882109967734      0.00061394679214
C   -2.48534208823777     -7.08772807792913     -0.00189594564379
C   -3.75168589177895     -7.76394715763627     -0.00170126671874
C   -0.03794895698805     -7.09946487446944     -0.00168022049625
C   -1.27795610040136     -7.77290438466689     -0.00366491325785
C   2.40944432072629     -7.11402201200282     -0.00081701968533
C   1.19474993715296     -7.78618536556242     -0.00296931056689
C   4.84762105249800     -7.13126211057943      0.00168979497423
C   3.66847160587561     -7.80378799294376     -0.00065863938960
H   -5.86994035041618     -7.61383059804164      0.00215798365757
H   5.78824962538815     -7.67633218931421      0.00281691445618
H   -3.75352693944918     -8.85107156923607     -0.00353718114765
H   -1.28430440589466     -8.86087539249706     -0.00809229711623
H   1.18922157469537     -8.87416062058945     -0.00706194725726
H   3.65854661482387     -8.89086063405326     -0.00231318081200

    units angstrom      # Angstroms are the default
    no_reorient         # Geometry fixed, default
    symmetry c1         # C1 symmetry, default
}

set {
    scf_type DF         # Density fitting, faster than exact integrals
    freeze_core True    # Freeze core electrons
    basis jun-cc-pVDZ   # Jun-cc-pVDZ basis set, recommended for sSAPT0 in https://doi.org/10.1063/1.4867135
}

energy('ssapt0')        # Compute sSAPT0 energy, includes also SAPT0
--------------------------------------------------------------------------

  //              Dimer HF             //
    Molecular point group: c1
  Charge       = -1
  Multiplicity = 1
  Basis Set: JUN-CC-PVDZ
    Blend: JUN-CC-PVDZ
  Basis Set: (JUN-CC-PVDZ AUX)
    Blend: JUN-CC-PVDZ-JKFIT
  @DF-RHF Final Energy: -4073.01576155908015
    Total Energy =                      -4073.0157615590796922
 Dipole X            :          0.0059859           -0.0000548            0.0059311
 Dipole Y            :          0.0038707           -0.0002464            0.0036243
 Dipole Z            :         12.8981992          -15.4733749           -2.5751758
 Magnitude           :                                                    2.5751852
  //            Monomer A HF           //
    Molecular point group: c1
  Multiplicity = 1
  Basis Set: JUN-CC-PVDZ
    Blend: JUN-CC-PVDZ
  Basis Set: (JUN-CC-PVDZ AUX)
    Blend: JUN-CC-PVDZ-JKFIT
  @DF-RHF Final Energy:  -422.77668092524328
    Total Energy =                       -422.7766809252432836
  //            Monomer B HF           //
    Molecular point group: c1

    Geometry (in Angstrom), charge = 0, multiplicity = 1:

       Center              X                  Y                   Z               Mass
    ------------   -----------------  -----------------  -----------------  -----------------
      Gh(B)          -0.000201921932     0.000288800891     2.420954512774    11.009305360000
      Gh(F)          -0.000004162732     0.000014527991     3.833739512774    18.998403162730
      Gh(F)           1.147855837268     0.675795727991     1.949813512774    18.998403162730
      Gh(F)           0.011913897268    -1.331996472009     1.950015512774    18.998403162730
      Gh(F)          -1.159670162732     0.656088027991     1.950094512774    18.998403162730
         C           -3.668445426752     7.803766698073    -0.177179445891    12.000000000000
         C           -4.847602882078     7.131256359331    -0.179546020823    12.000000000000
         C           -4.894963461907     5.696344931522    -0.180118931922    12.000000000000
         C           -3.653744841505     4.980744868950    -0.172458490192    12.000000000000
         C           -2.409429284226     7.113995564665    -0.176985103631    12.000000000000
         C           -2.425481506836     5.681136478894    -0.183989992501    12.000000000000
         C           -1.194748179167     7.786158722300    -0.175512923089    12.000000000000
         C            0.037954866205     7.099436173748    -0.177683627394    12.000000000000
         C            0.030328424687     5.669504087695    -0.183167012309    12.000000000000
         C           -1.200988670637     4.969284875906    -0.174197278376    12.000000000000
         C            1.277953663083     7.772873971185    -0.176307778833    12.000000000000
         C            2.485353921992     7.087711413228    -0.178582266738    12.000000000000
         C            2.486124522185     5.654785338231    -0.185520015726    12.000000000000
         C            1.254078756912     4.956092641655    -0.173892074137    12.000000000000
         C            3.751710428674     7.763926678971    -0.178455415357    12.000000000000
         C            4.923561893453     7.078795304981    -0.180511896065    12.000000000000
         C            4.955603108594     5.643461991360    -0.180672308872    12.000000000000
         C            3.706797371473     4.941224736324    -0.175580748703    12.000000000000
         H           -3.658525300490     8.890841947126    -0.175494457641     1.007825032230
         H           -1.189217492488     8.874135615351    -0.171541046648     1.007825032230
         H            1.284290076155     8.860847963479    -0.172148954692     1.007825032230
         H            3.753537924068     8.851049806963    -0.176932891042     1.007825032230
         H            5.869954540475     7.613809362646    -0.181437263108     1.007825032230
         H           -5.788235870234     7.676316740925    -0.181105868179     1.007825032230
         C           -6.091978121428     4.993274541634    -0.181991172412    12.000000000000
         C           -6.128665643049     3.582594696789    -0.180789995384    12.000000000000
         C           -3.664583902777     3.564196707735    -0.183715090001    12.000000000000
         C           -4.894302367430     2.861095303891    -0.174546105016    12.000000000000
         C           -2.437339157630     2.847626185075    -0.171883311465    12.000000000000
         C           -1.209232020328     3.547901462969    -0.185562338257    12.000000000000
         C            1.247137409430     3.534695279420    -0.186370944662    12.000000000000
         C            0.015171876837     2.833126367296    -0.174686761437    12.000000000000
         C            2.467641009709     2.821304505246    -0.174586703314    12.000000000000
         C            3.702545311848     3.524674682415    -0.188074664156    12.000000000000
         C            6.144976223652     4.927586894122    -0.181905754084    12.000000000000
         C            6.166584196130     3.516599003933    -0.179739200647    12.000000000000
         C            4.924605795728     2.808422453345    -0.173200454410    12.000000000000
         H            7.089901346909     5.466902294214    -0.185667634934     1.007825032230
         H           -7.031045913833     5.542702480848    -0.186224387364     1.007825032230
         C           -7.339702203855     2.858426062570    -0.182417162825    12.000000000000
         C           -7.364886120791     1.470337899574    -0.180651624698    12.000000000000
         C           -4.903508771679     1.444441340151    -0.185367888890    12.000000000000
         C           -6.132261315343     0.739953885044    -0.173077844907    12.000000000000
         C           -3.676878963248     0.726711670664    -0.174740172490    12.000000000000
         C           -2.445660748797     1.429655661253    -0.185049882691    12.000000000000
         C           -1.223604844033     0.715339029625    -0.173620618160    12.000000000000
         C            0.007633706582     1.417397677228    -0.175154964442    12.000000000000
         C            1.231215645015     0.702131218578    -0.193981550098    12.000000000000
         C            2.460816937799     1.403306564116    -0.174477041208    12.000000000000
         C            3.684426091464     0.687212956203    -0.175305827485    12.000000000000
         C            4.918704738807     1.391749089180    -0.187707649120    12.000000000000
         C            7.369797915229     2.779496731175    -0.181499620440    12.000000000000
         C            7.380158503390     1.391232035846    -0.179952937594    12.000000000000
         C            6.139795376391     0.674133151191    -0.173624595783    12.000000000000
         H           -8.279194962078     3.407132569115    -0.186714714947     1.007825032230
         H            8.315109308748     3.318132624614    -0.185710196239     1.007825032230
         C           -8.591760100313     0.724847081035    -0.180311197080    12.000000000000
         C           -8.599028766435    -0.632625278238    -0.178188072497    12.000000000000
         C           -6.139817301850    -0.674122109163    -0.185177413832    12.000000000000
         C           -7.380188274869    -1.391251661591    -0.177761352291    12.000000000000
         C           -4.918688642988    -1.391740490039    -0.172836915683    12.000000000000
         C           -3.684442458416    -0.687222787745    -0.183869155747    12.000000000000
         C           -2.460821202979    -1.403330650834    -0.173326069558    12.000000000000
         C           -1.231166175052    -0.702159336890    -0.185446448350    12.000000000000
         C           -0.007573788119    -1.417404321420    -0.177989924046    12.000000000000
         C            1.223643553157    -0.715260849273    -0.167984302098    12.000000000000
         C            2.445666486600    -1.429628761016    -0.179734314857    12.000000000000
         C            3.676862540115    -0.726692903565    -0.183874899252    12.000000000000
         C            6.132244683688    -0.739964311859    -0.185402873465    12.000000000000
         C            4.903514982772    -1.444442992550    -0.171561798925    12.000000000000
         C            8.599010685959     0.632618394658    -0.180090821450    12.000000000000
         C            8.591741325369    -0.724836339203    -0.178354441189    12.000000000000
         C            7.364858601658    -1.470318137615    -0.178584617882    12.000000000000
         H           -9.528310134550     1.276861977183    -0.181781124044     1.007825032230
         H            9.541406811874     1.174587016435    -0.181142853712     1.007825032230
         C           -7.369842072500    -2.779530617943    -0.175953143869    12.000000000000
         C           -4.924603271782    -2.808422729350    -0.183684776306    12.000000000000
         C           -6.166626658399    -3.516637664835    -0.177382936146    12.000000000000
         C           -3.702514522437    -3.524667021130    -0.173360707120    12.000000000000
         C           -2.467651147846    -2.821311434813    -0.185405345476    12.000000000000
         C           -0.015137636839    -2.833127117409    -0.185123756967    12.000000000000
         C           -1.247126003958    -3.534717647572    -0.173559803559    12.000000000000
         C            1.209240906912    -3.547900150653    -0.171020773768    12.000000000000
         C            2.437331859423    -2.847627210185    -0.185160532079    12.000000000000
         C            4.894298181039    -2.861108440295    -0.184339792007    12.000000000000
         C            3.664611092309    -3.564205317541    -0.171460372067    12.000000000000
         C            6.128634852014    -3.582569529727    -0.178114530109    12.000000000000
         C            7.339668501964    -2.858398779380    -0.176599304028    12.000000000000
         H           -9.541453273991    -1.174548938674    -0.176818656324     1.007825032230
         H            9.528257705340    -1.276904545914    -0.177104633428     1.007825032230
         H           -8.315169206580    -3.318135325222    -0.171780915339     1.007825032230
         H            8.279150979760    -3.407126261903    -0.172259748045     1.007825032230
         C           -6.144998351434    -4.927632744793    -0.176056938086    12.000000000000
         C           -3.706787510729    -4.941247186127    -0.185877906174    12.000000000000
         C           -4.955594220733    -5.643479445504    -0.177910771529    12.000000000000
         C           -2.486125488958    -5.654771046419    -0.172938235130    12.000000000000
         C           -1.254062498212    -4.956107522011    -0.184113841116    12.000000000000
         C            1.201008411136    -4.969265860202    -0.182932716858    12.000000000000
         C           -0.030340837145    -5.669505775148    -0.175089517194    12.000000000000
         C            3.653745938597    -4.980729247424    -0.182174717110    12.000000000000
         C            2.425488533144    -5.681160107537    -0.172797786558    12.000000000000
         C            6.091961455079    -4.993243435396    -0.175820303436    12.000000000000
         C            4.894972281879    -5.696333892967    -0.177056499266    12.000000000000
         H           -7.089896550772    -5.466985314248    -0.171654176405     1.007825032230
         H            7.031051046468    -5.542644008342    -0.172240523672     1.007825032230
         C           -4.923549484930    -7.078806571687    -0.178465540434    12.000000000000
         C           -2.485346250970    -7.087713549939    -0.180975432870    12.000000000000
         C           -3.751690054511    -7.763932629646    -0.180780753945    12.000000000000
         C           -0.037953119720    -7.099450346479    -0.180759707723    12.000000000000
         C           -1.277960263133    -7.772889856676    -0.182744400484    12.000000000000
         C            2.409440157995    -7.114007484012    -0.179896506912    12.000000000000
         C            1.194745774421    -7.786170837572    -0.182048797793    12.000000000000
         C            4.847616889766    -7.131247582589    -0.177389692252    12.000000000000
         C            3.668467443144    -7.803773464953    -0.179738126616    12.000000000000
         H           -5.869944513148    -7.613816070051    -0.176921503569     1.007825032230
         H            5.788245462656    -7.676317661324    -0.176262572770     1.007825032230
         H           -3.753531102181    -8.851057041246    -0.182616668374     1.007825032230
         H           -1.284308568626    -8.860860864507    -0.187171784343     1.007825032230
         H            1.189217411964    -8.874146092599    -0.186141434484     1.007825032230
         H            3.658542452092    -8.890846106063    -0.181392668038     1.007825032230

  Charge       = 0
  Multiplicity = 1
  Basis Set: JUN-CC-PVDZ
    Blend: JUN-CC-PVDZ
  Basis Set: (JUN-CC-PVDZ AUX)
    Blend: JUN-CC-PVDZ-JKFIT

    Orbital Energies [Eh]
    ---------------------

    Doubly Occupied:

       1A    -11.264156     2A    -11.263780     3A    -11.263772
       4A    -11.263286     5A    -11.263285     6A    -11.263249
       7A    -11.263120     8A    -11.263114     9A    -11.263099
      10A    -11.262843    11A    -11.262740    12A    -11.262737
      13A    -11.262258    14A    -11.262258    15A    -11.262224
      16A    -11.262220    17A    -11.262111    18A    -11.262092
      19A    -11.262054    20A    -11.262017    21A    -11.262015
      22A    -11.261925    23A    -11.261919    24A    -11.261767
      25A    -11.261751    26A    -11.261728    27A    -11.261720
      28A    -11.261684    29A    -11.261676    30A    -11.261589
      31A    -11.261572    32A    -11.261553    33A    -11.261550
      34A    -11.261517    35A    -11.261515    36A    -11.261493
      37A    -11.261335    38A    -11.261329    39A    -11.261323
      40A    -11.261318    41A    -11.261313    42A    -11.261310
      43A    -11.261285    44A    -11.261268    45A    -11.261263
      46A    -11.261240    47A    -11.261237    48A    -11.261232
      49A    -11.261032    50A    -11.260999    51A    -11.260995
      52A    -11.260917    53A    -11.260913    54A    -11.260862
      55A    -11.259914    56A    -11.259900    57A    -11.259898
      58A    -11.259868    59A    -11.259867    60A    -11.259850
      61A    -11.259284    62A    -11.259258    63A    -11.259256
      64A    -11.259202    65A    -11.259200    66A    -11.259170
      67A    -11.258916    68A    -11.258898    69A    -11.258896
      70A    -11.258867    71A    -11.258865    72A    -11.258853
      73A    -11.254536    74A    -11.254535    75A    -11.254531
      76A    -11.254530    77A    -11.254530    78A    -11.254528
      79A    -11.253658    80A    -11.253657    81A    -11.253655
      82A    -11.253653    83A    -11.253652    84A    -11.253650
      85A    -11.253574    86A    -11.253572    87A    -11.253570
      88A    -11.253568    89A    -11.253568    90A    -11.253566
      91A    -11.253064    92A    -11.253063    93A    -11.253059
      94A    -11.253058    95A    -11.253058    96A    -11.253056
      97A     -1.253888    98A     -1.238978    99A     -1.238977
     100A     -1.220459   101A     -1.220455   102A     -1.215382
     103A     -1.201045   104A     -1.195605   105A     -1.188098
     106A     -1.188097   107A     -1.173768   108A     -1.173765
     109A     -1.155606   110A     -1.155603   111A     -1.152664
     112A     -1.144727   113A     -1.144724   114A     -1.128559
     115A     -1.114692   116A     -1.113164   117A     -1.112438
     118A     -1.112423   119A     -1.111626   120A     -1.088414
     121A     -1.088399   122A     -1.076964   123A     -1.076963
     124A     -1.067594   125A     -1.067565   126A     -1.064932
     127A     -1.046795   128A     -1.046788   129A     -1.040471
     130A     -1.038738   131A     -1.038737   132A     -1.025206
     133A     -1.021331   134A     -1.021281   135A     -1.007175
     136A     -1.006809   137A     -1.003786   138A     -1.000462
     139A     -1.000414   140A     -0.991079   141A     -0.970968
     142A     -0.970920   143A     -0.955878   144A     -0.955823
     145A     -0.905556   146A     -0.905555   147A     -0.905516
     148A     -0.905513   149A     -0.904284   150A     -0.892337
     151A     -0.892278   152A     -0.890333   153A     -0.890275
     154A     -0.889441   155A     -0.872215   156A     -0.869065
     157A     -0.851535   158A     -0.847843   159A     -0.847821
     160A     -0.845569   161A     -0.843007   162A     -0.834553
     163A     -0.834540   164A     -0.828114   165A     -0.828111
     166A     -0.784539   167A     -0.784528   168A     -0.783632
     169A     -0.783605   170A     -0.782273   171A     -0.782252
     172A     -0.782008   173A     -0.766989   174A     -0.760762
     175A     -0.750536   176A     -0.733484   177A     -0.727063
     178A     -0.727050   179A     -0.725069   180A     -0.724538
     181A     -0.724520   182A     -0.718447   183A     -0.713741
     184A     -0.713735   185A     -0.699566   186A     -0.699554
     187A     -0.686079   188A     -0.685957   189A     -0.685954
     190A     -0.682173   191A     -0.682162   192A     -0.678738
     193A     -0.653607   194A     -0.650854   195A     -0.650824
     196A     -0.649778   197A     -0.649762   198A     -0.649565
     199A     -0.640889   200A     -0.640862   201A     -0.640088
     202A     -0.639166   203A     -0.635993   204A     -0.635967
     205A     -0.629134   206A     -0.617710   207A     -0.615304
     208A     -0.615285   209A     -0.608795   210A     -0.608788
     211A     -0.599100   212A     -0.599065   213A     -0.598724
     214A     -0.598592   215A     -0.598570   216A     -0.597988
     217A     -0.595066   218A     -0.595053   219A     -0.594708
     220A     -0.594192   221A     -0.591933   222A     -0.591930
     223A     -0.587355   224A     -0.577800   225A     -0.577790
     226A     -0.575640   227A     -0.575637   228A     -0.573379
     229A     -0.569608   230A     -0.568098   231A     -0.568074
     232A     -0.566735   233A     -0.566724   234A     -0.560916
     235A     -0.558694   236A     -0.558676   237A     -0.558428
     238A     -0.554354   239A     -0.550542   240A     -0.547478
     241A     -0.544251   242A     -0.535008   243A     -0.534972
     244A     -0.533517   245A     -0.533496   246A     -0.528071
     247A     -0.528056   248A     -0.527756   249A     -0.517121
     250A     -0.517087   251A     -0.515344   252A     -0.515338
     253A     -0.509638   254A     -0.509622   255A     -0.498021
     256A     -0.496434   257A     -0.496408   258A     -0.493745
     259A     -0.493734   260A     -0.489435   261A     -0.481447
     262A     -0.477412   263A     -0.477408   264A     -0.473988
     265A     -0.469426   266A     -0.466508   267A     -0.466503
     268A     -0.458766   269A     -0.446641   270A     -0.446581
     271A     -0.441002   272A     -0.440756   273A     -0.440733
     274A     -0.434683   275A     -0.433904   276A     -0.407356
     277A     -0.407332   278A     -0.386363   279A     -0.386315
     280A     -0.385731   281A     -0.385730   282A     -0.383715
     283A     -0.354317   284A     -0.354300   285A     -0.350630
     286A     -0.338002   287A     -0.335524   288A     -0.335453
     289A     -0.332713   290A     -0.332706   291A     -0.307019
     292A     -0.301873   293A     -0.301810   294A     -0.300833
     295A     -0.286143   296A     -0.256489   297A     -0.253432
     298A     -0.253380   299A     -0.204232   300A     -0.204143

  @DF-RHF Final Energy: -3650.34045403880054

   => Energetics <=

    Nuclear Repulsion Energy =          15611.4211649754324753
    One-Electron Energy =              -36072.1557881627668394
    Two-Electron Energy =               16810.3941691485342744
    Total Energy =                      -3650.3404540388000896
 Dipole X            :         -0.0000366            0.0002304            0.0001938
 Dipole Y            :          0.0013409           -0.0013052            0.0000357
 Dipole Z            :        203.0457487         -203.0433194            0.0024293
 Magnitude           :                                                    0.0024372

    SAPT Results
  --------------------------------------------------------------------------------------------------------
    Electrostatics                -93.73962315 [mEh]     -58.82250159 [kcal/mol]    -246.11334667 [kJ/mol]
      Elst10,r                    -93.73962315 [mEh]     -58.82250159 [kcal/mol]    -246.11334667 [kJ/mol]

    Exchange                      244.87340297 [mEh]     153.66038024 [kcal/mol]     642.91503092 [kJ/mol]
      Exch10                      244.87340297 [mEh]     153.66038024 [kcal/mol]     642.91503092 [kJ/mol]
      Exch10(S^2)                 238.20899299 [mEh]     149.47839984 [kcal/mol]     625.41762492 [kJ/mol]

    Induction                     -49.76037485 [mEh]     -31.22510664 [kcal/mol]    -130.64584618 [kJ/mol]
      Ind20,r                    -157.71788634 [mEh]     -98.96946786 [kcal/mol]    -414.08825353 [kJ/mol]
      Exch-Ind20,r                120.39030318 [mEh]      75.54605580 [kcal/mol]     316.08469746 [kJ/mol]
      delta HF,r (2)              -12.43279170 [mEh]      -7.80169458 [kcal/mol]     -32.64229011 [kJ/mol]

    Dispersion                    -44.28676396 [mEh]     -27.79036395 [kcal/mol]    -116.27488277 [kJ/mol]
      Disp20                      -63.92941769 [mEh]     -40.11631525 [kcal/mol]    -167.84666302 [kJ/mol]
      Exch-Disp20                  19.64265372 [mEh]      12.32595130 [kcal/mol]      51.57178025 [kJ/mol]
      Disp20 (SS)                 -31.96470884 [mEh]     -20.05815763 [kcal/mol]     -83.92333151 [kJ/mol]
      Disp20 (OS)                 -31.96470884 [mEh]     -20.05815763 [kcal/mol]     -83.92333151 [kJ/mol]
      Exch-Disp20 (SS)             10.30066054 [mEh]       6.46376207 [kcal/mol]      27.04438052 [kJ/mol]
      Exch-Disp20 (OS)              9.34199319 [mEh]       5.86218923 [kcal/mol]      24.52739973 [kJ/mol]

  Total HF                        101.37340496 [mEh]      63.61277200 [kcal/mol]     266.15583806 [kJ/mol]
  Total SAPT0                      57.08664100 [mEh]      35.82240805 [kcal/mol]     149.88095530 [kJ/mol]

  Special recipe for scaled SAPT0 (see Manual):
    Electrostatics sSAPT0         -93.73962315 [mEh]     -58.82250159 [kcal/mol]    -246.11334667 [kJ/mol]
    Exchange sSAPT0               244.87340297 [mEh]     153.66038024 [kcal/mol]     642.91503092 [kJ/mol]
    Induction sSAPT0              -39.37050777 [mEh]     -24.70536661 [kcal/mol]    -103.36725390 [kJ/mol]
    Dispersion sSAPT0             -42.59157294 [mEh]     -26.72661552 [kcal/mol]    -111.82415934 [kJ/mol]
  Total sSAPT0                     69.17169911 [mEh]      43.40589651 [kcal/mol]     181.61027100 [kJ/mol]
  --------------------------------------------------------------------------------------------------------

*** Psi4 exiting successfully. Buy a developer a beer!
