                               Psi4 1.9 release

  ==> Input File <==

--------------------------------------------------------------------------
memory 32 GB # how much memory is available ! Depends on the nodes/cores !

molecule dimer {
# monomer A
-1 1    # Charge and multiplicity
B -1.977592e-04  2.742729e-04 -2.199966
F  1.123153e-16  1.430594e-17 -0.787181
F  1.147860e+00  6.757812e-01 -2.671107
F  1.191806e-02 -1.332011e+00 -2.670905
F -1.159666e+00  6.560735e-01 -2.670826
--
# monomer B
0 1     # Charge and multiplicity
C   1.22531237526482      0.70753866091955      0.00613762728373
C   1.22532433589282     -0.70753852257020     -0.00619318228664
C   -0.00000567409046      1.41496628609039     -0.00672680580738
C   2.45644923379077      1.41832825917820      0.00902448468363
C   0.00001130712078     -1.41497612663474      0.00347275151708
C   -1.22530046906674      0.70754574598412      0.00838914760619
C   2.45643823516184     -1.41832293188077     -0.00843833914343
C   -0.00000085313587      2.83680140328112     -0.00913035594137
C   3.68182717731192      0.70931832800114     -0.00808954934571
C   2.45512052870677      2.83422403348893     -0.00819210630633
C   3.68182158506039     -0.70933346742900      0.00798293467272
C   -1.22531311884624     -0.70752714354401     -0.00512042085974
C   1.22670006104402      3.54346985599427      0.00816696660346
C   0.00000526469929     -2.83678176723568      0.00832091913869
C   -2.45643555300670      1.41831729028492      0.00842454345199
C   2.45512389762097     -2.83422965658853      0.00783102630520
C   -1.22671388474763      3.54346943575023      0.00827029982280
C   4.91451777504333      1.42717324448953     -0.00160886631602
C   3.69315067131765      3.54279566454522     -0.00155906667985
C   -2.45643712022637     -1.41831290883911     -0.00846337726810
C   1.22670532178455     -3.54347386990643     -0.00780316414624
C   -2.45512491866593      2.83421703463423     -0.00818572995999
C   4.91452486062398     -1.42718653794377      0.00136387641845
C   1.22142509354026      4.97013443726031      0.00150231067809
C   4.89300870916237      2.82518837202648     -0.00039219795739
C   -1.22669652864725     -3.54347062507680     -0.00753595973677
C   -3.68181849668397      0.70932533873199     -0.00807686886569
C   3.69314758099218     -3.54280096939050      0.00148176697923
C   -1.22143177215231      4.97012866986289      0.00168580605083
C   6.13477145276790      0.68054831910577     -0.00083909176631
C   3.65678936045204      4.97295361556775     -0.00065042889723
C   -2.45512642789169     -2.83421472106065      0.00758666850712
C   -3.68181869921921     -0.70932533146830      0.00810055625144
C   4.89301309775526     -2.82519973363176      0.00021895393805
C   -0.00000059327114      5.65044773803267      0.00045449734393
C   6.13477559217374     -0.68055448207492      0.00042622874941
C   2.47813196269732      5.65357712333155      0.00063835075260
C   1.22142288457925     -4.97012668293268     -0.00129718634452
C   -3.69316190412301      3.54279732619245     -0.00139355922051
C   -1.22142804110313     -4.97011793159564     -0.00140994817719
C   -4.91452132810043      1.42717581899491     -0.00153192130862
C   3.65678749952045     -4.97295485423912      0.00080007163680
C   -2.47813805026426      5.65357479452875      0.00092287576113
C   -3.69314125872231     -3.54278984697859      0.00136564082345
C   -4.91451200321153     -1.42718062802730      0.00139857359209
C   -0.00000552908399     -5.65043791501335      0.00005899322272
C   -4.89302000425900      2.82518897091939     -0.00040227981744
C   2.47812647313991     -5.65357317188818     -0.00029052915548
C   -3.65679823041642      4.97295655404175     -0.00047374852278
C   -4.89299899901461     -2.82519139505969      0.00006491824035
C   -2.47812801824129     -5.65356579800621     -0.00056571680280
C   -6.13477002348955      0.68054913825639     -0.00086464346868
C   -3.65678835334731     -4.97294365097028      0.00058578382008
C   -6.13476456307132     -0.68055354348201      0.00040575295444
H   5.83528897565761      3.36927626695423      0.00396712770529
H   7.07385965258860      1.22821762089947     -0.00037744837300
H   4.60066374401555      5.51238117445323     -0.00014522814529
H   5.83528386714679     -3.36930568472863     -0.00423551337640
H   -0.00001167146422      6.73853104613662     -0.00389474766392
H   7.07386165167227     -1.22822657074368     -0.00008250934481
H   2.47331421164041      6.74068466339473      0.00017162982210
H   4.60066897122302     -5.51237575717576      0.00039007446835
H   -2.47331820069565      6.74068209160650      0.00047297644710
H   -0.00000978838621     -6.73852780445195      0.00458867820736
H   -5.83530143450167      3.36927132229595      0.00410314985360
H   2.47330840367253     -6.74068500242887      0.00027980126949
H   -4.60067436136587      5.51237839860371      0.00002010017831
H   -5.83527902699321     -3.36928859177951     -0.00451481925734
H   -2.47329986759855     -6.74067870613986     -0.00016951527498
H   -7.07385728692578      1.22822084484047     -0.00046143985387
H   -4.60067330624313     -5.51236229778631      0.00021776644566
H   -7.07385645456741     -1.22822025997701     -0.00017736581114

    units angstrom      # Angstroms are the default
    no_reorient         # Geometry fixed, default
    symmetry c1         # C1 symmetry, default
}

set {
    scf_type DF         # Density fitting, faster than exact integrals
    freeze_core True    # Freeze core electrons
    basis jun-cc-pVDZ   # Jun-cc-pVDZ basis set, recommended for sSAPT0 in https://doi.org/10.1063/1.4867135
}

energy('ssapt0')        # Compute sSAPT0 energy, includes also SAPT0
--------------------------------------------------------------------------

  //              Dimer HF             //
    Molecular point group: c1
  Charge       = -1
  Multiplicity = 1
  Basis Set: JUN-CC-PVDZ
    Blend: JUN-CC-PVDZ
  Basis Set: (JUN-CC-PVDZ AUX)
    Blend: JUN-CC-PVDZ-JKFIT
  @DF-RHF Final Energy: -2477.89049320292725
    Total Energy =                      -2477.8904932029272459
 Dipole X            :         -0.0001014            0.0000481           -0.0000533
 Dipole Y            :          0.0002058           -0.0001453            0.0000605
 Dipole Z            :        -11.8242072           13.4868893            1.6626820
 Magnitude           :                                                    1.6626820
  //            Monomer A HF           //
    Molecular point group: c1
  Multiplicity = 1
  Basis Set: JUN-CC-PVDZ
    Blend: JUN-CC-PVDZ
  Basis Set: (JUN-CC-PVDZ AUX)
    Blend: JUN-CC-PVDZ-JKFIT
  @DF-RHF Final Energy:  -422.77931814419190
    Total Energy =                       -422.7793181441919046
  //            Monomer B HF           //
    Molecular point group: c1

    Geometry (in Angstrom), charge = 0, multiplicity = 1:

       Center              X                  Y                   Z               Mass
    ------------   -----------------  -----------------  -----------------  -----------------
      Gh(B)          -0.000198161052     0.000273808717    -1.945820519476    11.009305360000
      Gh(F)          -0.000000401852    -0.000000464183    -0.533035519476    18.998403162730
      Gh(F)           1.147859598148     0.675780735817    -2.416961519476    18.998403162730
      Gh(F)           0.011917658148    -1.332011464183    -2.416759519476    18.998403162730
      Gh(F)          -1.159666401852     0.656073035817    -2.416680519476    18.998403162730
         C            1.225311973413     0.707538196736     0.260283107808    12.000000000000
         C            1.225323934041    -0.707538986754     0.247952298238    12.000000000000
         C           -0.000006075942     1.414965821907     0.247418674717    12.000000000000
         C            2.456448831939     1.418327794995     0.263169965208    12.000000000000
         C            0.000010905269    -1.414976590818     0.257618232041    12.000000000000
         C           -1.225300870919     0.707545281801     0.262534628131    12.000000000000
         C            2.456437833310    -1.418323396064     0.245707141381    12.000000000000
         C           -0.000001254988     2.836800939098     0.245015124583    12.000000000000
         C            3.681826775460     0.709317863818     0.246055931179    12.000000000000
         C            2.455120126855     2.834223569306     0.245953374218    12.000000000000
         C            3.681821183209    -0.709333931612     0.262128415197    12.000000000000
         C           -1.225313520698    -0.707527607727     0.249025059665    12.000000000000
         C            1.226699659192     3.543469391811     0.262312447128    12.000000000000
         C            0.000004862847    -2.836782231419     0.262466399663    12.000000000000
         C           -2.456435954859     1.418316826102     0.262570023976    12.000000000000
         C            2.455123495769    -2.834230120772     0.261976506830    12.000000000000
         C           -1.226714286599     3.543468971567     0.262415780347    12.000000000000
         C            4.914517373191     1.427172780306     0.252536614208    12.000000000000
         C            3.693150269466     3.542795200362     0.252586413845    12.000000000000
         C           -2.456437522078    -1.418313373022     0.245682103256    12.000000000000
         C            1.226704919933    -3.543474334090     0.246342316378    12.000000000000
         C           -2.455125320518     2.834216570451     0.245959750564    12.000000000000
         C            4.914524458772    -1.427187002127     0.255509356943    12.000000000000
         C            1.221424691688     4.970133973077     0.255647791203    12.000000000000
         C            4.893008307311     2.825187907843     0.253753282567    12.000000000000
         C           -1.226696930499    -3.543471089260     0.246609520788    12.000000000000
         C           -3.681818898536     0.709324874549     0.246068611659    12.000000000000
         C            3.693147179140    -3.542801433574     0.255627247504    12.000000000000
         C           -1.221432174004     4.970128205680     0.255831286575    12.000000000000
         C            6.134771050916     0.680547854922     0.253306388758    12.000000000000
         C            3.656788958600     4.972953151384     0.253495051627    12.000000000000
         C           -2.455126829744    -2.834215185244     0.261732149032    12.000000000000
         C           -3.681819101071    -0.709325795652     0.262246036776    12.000000000000
         C            4.893012695903    -2.825200197815     0.254364434462    12.000000000000
         C           -0.000000995123     5.650447273849     0.254599977868    12.000000000000
         C            6.134775190322    -0.680554946258     0.254571709274    12.000000000000
         C            2.478131560845     5.653576659148     0.254783831277    12.000000000000
         C            1.221422482727    -4.970127147116     0.252848294180    12.000000000000
         C           -3.693162305975     3.542796862009     0.252751921304    12.000000000000
         C           -1.221428442955    -4.970118395779     0.252735532347    12.000000000000
         C           -4.914521729952     1.427175354812     0.252613559216    12.000000000000
         C            3.656787097669    -4.972955318422     0.254945552161    12.000000000000
         C           -2.478138452116     5.653574330345     0.255068356286    12.000000000000
         C           -3.693141660574    -3.542790311162     0.255511121348    12.000000000000
         C           -4.914512405063    -1.427181092211     0.255544054117    12.000000000000
         C           -0.000005930936    -5.650438379197     0.254204473747    12.000000000000
         C           -4.893020406111     2.825188506736     0.253743200707    12.000000000000
         C            2.478126071288    -5.653573636072     0.253854951369    12.000000000000
         C           -3.656798632268     4.972956089858     0.253671732002    12.000000000000
         C           -4.892999400866    -2.825191859243     0.254210398765    12.000000000000
         C           -2.478128420093    -5.653566262190     0.253579763722    12.000000000000
         C           -6.134770425341     0.680548674073     0.253280837056    12.000000000000
         C           -3.656788755199    -4.972944115154     0.254731264344    12.000000000000
         C           -6.134764964923    -0.680554007665     0.254551233479    12.000000000000
         H            5.835288573806     3.369275802771     0.258112608230     1.007825032230
         H            7.073859250737     1.228217156716     0.253768032151     1.007825032230
         H            4.600663342164     5.512380710270     0.254000252379     1.007825032230
         H            5.835283465295    -3.369306148912     0.249909967148     1.007825032230
         H           -0.000012073316     6.738530581953     0.250250732860     1.007825032230
         H            7.073861249820    -1.228227034927     0.254062971180     1.007825032230
         H            2.473313809789     6.740684199211     0.254317110347     1.007825032230
         H            4.600668569371    -5.512376221359     0.254535554993     1.007825032230
         H           -2.473318602548     6.740681627423     0.254618456972     1.007825032230
         H           -0.000010190238    -6.738528268635     0.258734158732     1.007825032230
         H           -5.835301836354     3.369270858113     0.258248630378     1.007825032230
         H            2.473308001821    -6.740685466612     0.254425281794     1.007825032230
         H           -4.600674763218     5.512377934420     0.254165580703     1.007825032230
         H           -5.835279428845    -3.369289055963     0.249630661267     1.007825032230
         H           -2.473300269450    -6.740679170323     0.253975965249     1.007825032230
         H           -7.073857688778     1.228220380657     0.253684040671     1.007825032230
         H           -4.600673708095    -5.512362761970     0.254363246970     1.007825032230
         H           -7.073856856419    -1.228220724160     0.253968114713     1.007825032230

  Charge       = 0
  Multiplicity = 1
  Basis Set: JUN-CC-PVDZ
    Blend: JUN-CC-PVDZ
  Basis Set: (JUN-CC-PVDZ AUX)
    Blend: JUN-CC-PVDZ-JKFIT

    Orbital Energies [Eh]
    ---------------------

    Doubly Occupied:

       1A    -11.260635     2A    -11.260183     3A    -11.260180
       4A    -11.259416     5A    -11.259416     6A    -11.259225
       7A    -11.258974     8A    -11.258903     9A    -11.258902
      10A    -11.258582    11A    -11.258578    12A    -11.258461
      13A    -11.258409    14A    -11.258409    15A    -11.258403
      16A    -11.258368    17A    -11.258361    18A    -11.258344
      19A    -11.258343    20A    -11.258341    21A    -11.258336
      22A    -11.258277    23A    -11.258272    24A    -11.258042
      25A    -11.257239    26A    -11.257180    27A    -11.257179
      28A    -11.257049    29A    -11.257049    30A    -11.256968
      31A    -11.256330    32A    -11.256262    33A    -11.256261
      34A    -11.256155    35A    -11.256155    36A    -11.256109
      37A    -11.252236    38A    -11.252235    39A    -11.252234
      40A    -11.252232    41A    -11.252230    42A    -11.252229
      43A    -11.251328    44A    -11.251327    45A    -11.251326
      46A    -11.251310    47A    -11.251309    48A    -11.251306
      49A    -11.250798    50A    -11.250796    51A    -11.250795
      52A    -11.250793    53A    -11.250791    54A    -11.250790
      55A     -1.243835    56A     -1.219679    57A     -1.219678
      58A     -1.189440    59A     -1.189432    60A     -1.180697
      61A     -1.157482    62A     -1.148885    63A     -1.135310
      64A     -1.135303    65A     -1.113114    66A     -1.113110
      67A     -1.082297    68A     -1.082290    69A     -1.078394
      70A     -1.065909    71A     -1.065905    72A     -1.039302
      73A     -1.024116    74A     -1.021541    75A     -1.021498
      76A     -1.017660    77A     -1.012723    78A     -0.986891
      79A     -0.986845    80A     -0.961779    81A     -0.961730
      82A     -0.894200    83A     -0.894174    84A     -0.887724
      85A     -0.886005    86A     -0.885947    87A     -0.881248
      88A     -0.881200    89A     -0.861809    90A     -0.837360
      91A     -0.818111    92A     -0.816451    93A     -0.811966
      94A     -0.811957    95A     -0.794606    96A     -0.794595
      97A     -0.746469    98A     -0.744725    99A     -0.733247
     100A     -0.733238   101A     -0.732087   102A     -0.732064
     103A     -0.716344   104A     -0.698883   105A     -0.698872
     106A     -0.693445   107A     -0.693430   108A     -0.661142
     109A     -0.652936   110A     -0.650983   111A     -0.650156
     112A     -0.650150   113A     -0.639279   114A     -0.639276
     115A     -0.629574   116A     -0.627359   117A     -0.627344
     118A     -0.606515   119A     -0.605767   120A     -0.601533
     121A     -0.599631   122A     -0.599600   123A     -0.593533
     124A     -0.590973   125A     -0.590962   126A     -0.585226
     127A     -0.576358   128A     -0.576352   129A     -0.567249
     130A     -0.567235   131A     -0.565791   132A     -0.565772
     133A     -0.558568   134A     -0.554735   135A     -0.554728
     136A     -0.538500   137A     -0.538498   138A     -0.538143
     139A     -0.538137   140A     -0.529619   141A     -0.528182
     142A     -0.522766   143A     -0.522760   144A     -0.500421
     145A     -0.495542   146A     -0.493144   147A     -0.487784
     148A     -0.484960   149A     -0.481622   150A     -0.481614
     151A     -0.470331   152A     -0.470313   153A     -0.450825
     154A     -0.450747   155A     -0.439019   156A     -0.439010
     157A     -0.404679   158A     -0.404655   159A     -0.403311
     160A     -0.375380   161A     -0.375377   162A     -0.349067
     163A     -0.337504   164A     -0.336460   165A     -0.336402
     166A     -0.311005   167A     -0.298082   168A     -0.284248
     169A     -0.284194   170A     -0.224812   171A     -0.224746

  @DF-RHF Final Energy: -2055.89560768149295

   => Energetics <=

    Nuclear Repulsion Energy =           6452.5568002797772351
    One-Electron Energy =              -15636.5188781190336158
    Two-Electron Energy =                7128.0664701577634332
    Total Energy =                      -2055.8956076814929474
 Dipole X            :         -0.0000010            0.0000419            0.0000409
 Dipole Y            :          0.0000694           -0.0000426            0.0000269
 Dipole Z            :       -164.2546009          164.2493082           -0.0052928
 Magnitude           :                                                    0.0052930

    SAPT Results
  --------------------------------------------------------------------------------------------------------
    Electrostatics               -604.17247797 [mEh]    -379.12395372 [kcal/mol]   -1586.25462237 [kJ/mol]
      Elst10,r                   -604.17247797 [mEh]    -379.12395372 [kcal/mol]   -1586.25462237 [kJ/mol]

    Exchange                     1376.52279074 [mEh]     863.78109206 [kcal/mol]    3614.06008917 [kJ/mol]
      Exch10                     1376.52279074 [mEh]     863.78109206 [kcal/mol]    3614.06008917 [kJ/mol]
      Exch10(S^2)                1229.76210851 [mEh]     771.68737358 [kcal/mol]    3228.73997106 [kJ/mol]

    Induction                      12.08230999 [mEh]       7.58176398 [kcal/mol]      31.72210051 [kJ/mol]
      Ind20,r                    -818.06170103 [mEh]    -513.34146753 [kcal/mol]   -2147.82070014 [kJ/mol]
      Exch-Ind20,r                507.86670095 [mEh]     318.69116626 [kcal/mol]    1333.40383963 [kJ/mol]
      delta HF,r (2)              322.27731007 [mEh]     202.23206525 [kcal/mol]     846.13896102 [kJ/mol]

    Dispersion                   -103.67817408 [mEh]     -65.05903646 [kcal/mol]    -272.20700854 [kJ/mol]
      Disp20                     -176.00595267 [mEh]    -110.44540274 [kcal/mol]    -462.10356508 [kJ/mol]
      Exch-Disp20                  72.32777860 [mEh]      45.38636629 [kcal/mol]     189.89655654 [kJ/mol]
      Disp20 (SS)                 -88.00297634 [mEh]     -55.22270137 [kcal/mol]    -231.05178254 [kJ/mol]
      Disp20 (OS)                 -88.00297634 [mEh]     -55.22270137 [kcal/mol]    -231.05178254 [kJ/mol]
      Exch-Disp20 (SS)             32.62119415 [mEh]      20.47010838 [kcal/mol]      85.64693345 [kJ/mol]
      Exch-Disp20 (OS)             39.70658444 [mEh]      24.91625791 [kcal/mol]     104.24962309 [kJ/mol]

  Total HF                        784.43262276 [mEh]     492.23890232 [kcal/mol]    2059.52756731 [kJ/mol]
  Total SAPT0                     680.75444868 [mEh]     427.17986586 [kcal/mol]    1787.32055877 [kJ/mol]

  Special recipe for scaled SAPT0 (see Manual):
    Electrostatics sSAPT0        -604.17247797 [mEh]    -379.12395372 [kcal/mol]   -1586.25462237 [kJ/mol]
    Exchange sSAPT0              1376.52279074 [mEh]     863.78109206 [kcal/mol]    3614.06008917 [kJ/mol]
    Induction sSAPT0              216.47245994 [mEh]     135.83851942 [kcal/mol]     568.34836527 [kJ/mol]
    Dispersion sSAPT0             -74.56997406 [mEh]     -46.79336518 [kcal/mol]    -195.78343993 [kJ/mol]
  Total sSAPT0                    914.25279865 [mEh]     573.70229258 [kcal/mol]    2400.37039214 [kJ/mol]
  --------------------------------------------------------------------------------------------------------

*** Psi4 exiting successfully. Buy a developer a beer!
