                               Psi4 1.9 release

  ==> Input File <==

--------------------------------------------------------------------------
memory 32 GB # how much memory is available ! Depends on the nodes/cores !

molecule dimer {
# monomer A
+1 1    # Charge and multiplicity
C  0.680067 -1.215929 7.608042
C -0.680504 -1.215545 7.606014
N -1.085635  0.102779 7.605016
C  0.000108  0.884180 7.601740
C -2.477365  0.570758 7.555610
N  1.085222  0.102779 7.605016
H  1.385146 -2.033368 7.615870
H -1.385302 -2.033214 7.606204
H -0.000009  1.965269 7.599993
C  2.478117  0.567877 7.621908
H  2.490592  1.658130 7.594563
H  2.967028  0.220701 8.535354
H  3.001428  0.176405 6.746425
H -2.857359  0.490799 6.533539
H -3.082679 -0.042306 8.225694
H -2.518128  1.610706 7.882594
--
# monomer B
0 1     # Charge and multiplicity
C   1.22531237526482      0.70753866091955      0.00613762728373
C   1.22532433589282     -0.70753852257020     -0.00619318228664
C   -0.00000567409046      1.41496628609039     -0.00672680580738
C   2.45644923379077      1.41832825917820      0.00902448468363
C   0.00001130712078     -1.41497612663474      0.00347275151708
C   -1.22530046906674      0.70754574598412      0.00838914760619
C   2.45643823516184     -1.41832293188077     -0.00843833914343
C   -0.00000085313587      2.83680140328112     -0.00913035594137
C   3.68182717731192      0.70931832800114     -0.00808954934571
C   2.45512052870677      2.83422403348893     -0.00819210630633
C   3.68182158506039     -0.70933346742900      0.00798293467272
C   -1.22531311884624     -0.70752714354401     -0.00512042085974
C   1.22670006104402      3.54346985599427      0.00816696660346
C   0.00000526469929     -2.83678176723568      0.00832091913869
C   -2.45643555300670      1.41831729028492      0.00842454345199
C   2.45512389762097     -2.83422965658853      0.00783102630520
C   -1.22671388474763      3.54346943575023      0.00827029982280
C   4.91451777504333      1.42717324448953     -0.00160886631602
C   3.69315067131765      3.54279566454522     -0.00155906667985
C   -2.45643712022637     -1.41831290883911     -0.00846337726810
C   1.22670532178455     -3.54347386990643     -0.00780316414624
C   -2.45512491866593      2.83421703463423     -0.00818572995999
C   4.91452486062398     -1.42718653794377      0.00136387641845
C   1.22142509354026      4.97013443726031      0.00150231067809
C   4.89300870916237      2.82518837202648     -0.00039219795739
C   -1.22669652864725     -3.54347062507680     -0.00753595973677
C   -3.68181849668397      0.70932533873199     -0.00807686886569
C   3.69314758099218     -3.54280096939050      0.00148176697923
C   -1.22143177215231      4.97012866986289      0.00168580605083
C   6.13477145276790      0.68054831910577     -0.00083909176631
C   3.65678936045204      4.97295361556775     -0.00065042889723
C   -2.45512642789169     -2.83421472106065      0.00758666850712
C   -3.68181869921921     -0.70932533146830      0.00810055625144
C   4.89301309775526     -2.82519973363176      0.00021895393805
C   -0.00000059327114      5.65044773803267      0.00045449734393
C   6.13477559217374     -0.68055448207492      0.00042622874941
C   2.47813196269732      5.65357712333155      0.00063835075260
C   1.22142288457925     -4.97012668293268     -0.00129718634452
C   -3.69316190412301      3.54279732619245     -0.00139355922051
C   -1.22142804110313     -4.97011793159564     -0.00140994817719
C   -4.91452132810043      1.42717581899491     -0.00153192130862
C   3.65678749952045     -4.97295485423912      0.00080007163680
C   -2.47813805026426      5.65357479452875      0.00092287576113
C   -3.69314125872231     -3.54278984697859      0.00136564082345
C   -4.91451200321153     -1.42718062802730      0.00139857359209
C   -0.00000552908399     -5.65043791501335      0.00005899322272
C   -4.89302000425900      2.82518897091939     -0.00040227981744
C   2.47812647313991     -5.65357317188818     -0.00029052915548
C   -3.65679823041642      4.97295655404175     -0.00047374852278
C   -4.89299899901461     -2.82519139505969      0.00006491824035
C   -2.47812801824129     -5.65356579800621     -0.00056571680280
C   -6.13477002348955      0.68054913825639     -0.00086464346868
C   -3.65678835334731     -4.97294365097028      0.00058578382008
C   -6.13476456307132     -0.68055354348201      0.00040575295444
H   5.83528897565761      3.36927626695423      0.00396712770529
H   7.07385965258860      1.22821762089947     -0.00037744837300
H   4.60066374401555      5.51238117445323     -0.00014522814529
H   5.83528386714679     -3.36930568472863     -0.00423551337640
H   -0.00001167146422      6.73853104613662     -0.00389474766392
H   7.07386165167227     -1.22822657074368     -0.00008250934481
H   2.47331421164041      6.74068466339473      0.00017162982210
H   4.60066897122302     -5.51237575717576      0.00039007446835
H   -2.47331820069565      6.74068209160650      0.00047297644710
H   -0.00000978838621     -6.73852780445195      0.00458867820736
H   -5.83530143450167      3.36927132229595      0.00410314985360
H   2.47330840367253     -6.74068500242887      0.00027980126949
H   -4.60067436136587      5.51237839860371      0.00002010017831
H   -5.83527902699321     -3.36928859177951     -0.00451481925734
H   -2.47329986759855     -6.74067870613986     -0.00016951527498
H   -7.07385728692578      1.22822084484047     -0.00046143985387
H   -4.60067330624313     -5.51236229778631      0.00021776644566
H   -7.07385645456741     -1.22822025997701     -0.00017736581114

    units angstrom      # Angstroms are the default
    no_reorient         # Geometry fixed, default
    symmetry c1         # C1 symmetry, default
}

set {
    scf_type DF         # Density fitting, faster than exact integrals
    freeze_core True    # Freeze core electrons
    basis jun-cc-pVDZ   # Jun-cc-pVDZ basis set, recommended for sSAPT0 in https://doi.org/10.1063/1.4867135
}

energy('ssapt0')        # Compute sSAPT0 energy, includes also SAPT0
--------------------------------------------------------------------------

  //              Dimer HF             //
    Molecular point group: c1
  Charge       = 1
  Multiplicity = 1
  Basis Set: JUN-CC-PVDZ
    Blend: JUN-CC-PVDZ
  Basis Set: (JUN-CC-PVDZ AUX)
    Blend: JUN-CC-PVDZ-JKFIT
  @DF-RHF Final Energy: -2359.19637100626733
    Total Energy =                      -2359.1963710062664177
 Dipole X            :          0.0024153            0.0006313            0.0030466
 Dipole Y            :         -1.4995479            1.8864948            0.3869469
 Dipole Z            :        -27.7454251           39.5603984           11.8149734
 Magnitude           :                                                   11.8213084
  //            Monomer A HF           //
    Molecular point group: c1
  Multiplicity = 1
  Basis Set: JUN-CC-PVDZ
    Blend: JUN-CC-PVDZ
  Basis Set: (JUN-CC-PVDZ AUX)
    Blend: JUN-CC-PVDZ-JKFIT
  @DF-RHF Final Energy:  -303.29720729659226
    Total Energy =                       -303.2972072965922621
  //            Monomer B HF           //
    Molecular point group: c1

    Geometry (in Angstrom), charge = 0, multiplicity = 1:

       Center              X                  Y                   Z               Mass
    ------------   -----------------  -----------------  -----------------  -----------------
      Gh(C)           0.680066520158    -1.215933861162     6.641370812372    12.000000000000
      Gh(C)          -0.680504479842    -1.215549861162     6.639342812372    12.000000000000
      Gh(N)          -1.085635479842     0.102774138838     6.638344812372    14.003074004430
      Gh(C)           0.000107520158     0.884175138838     6.635068812372    12.000000000000
      Gh(C)          -2.477365479842     0.570753138838     6.588938812372    12.000000000000
      Gh(N)           1.085221520158     0.102774138838     6.638344812372    14.003074004430
      Gh(H)           1.385145520158    -2.033372861162     6.649198812372     1.007825032230
      Gh(H)          -1.385302479842    -2.033218861162     6.639532812372     1.007825032230
      Gh(H)          -0.000009479842     1.965264138838     6.633321812372     1.007825032230
      Gh(C)           2.478116520158     0.567872138838     6.655236812372    12.000000000000
      Gh(H)           2.490591520158     1.658125138838     6.627891812372     1.007825032230
      Gh(H)           2.967027520158     0.220696138838     7.568682812372     1.007825032230
      Gh(H)           3.001427520158     0.176400138838     5.779753812372     1.007825032230
      Gh(H)          -2.857359479842     0.490794138838     5.566867812372     1.007825032230
      Gh(H)          -3.082679479842    -0.042310861162     7.259022812372     1.007825032230
      Gh(H)          -2.518128479842     1.610701138838     6.915922812372     1.007825032230
         C            1.225311895423     0.707533799757    -0.960533560345    12.000000000000
         C            1.225323856051    -0.707543383733    -0.972864369915    12.000000000000
         C           -0.000006153932     1.414961424928    -0.973397993436    12.000000000000
         C            2.456448753949     1.418323398016    -0.957646702945    12.000000000000
         C            0.000010827279    -1.414980987797    -0.963198436111    12.000000000000
         C           -1.225300948908     0.707540884822    -0.958282040022    12.000000000000
         C            2.456437755320    -1.418327793043    -0.975109526772    12.000000000000
         C           -0.000001332978     2.836796542119    -0.975801543570    12.000000000000
         C            3.681826697470     0.709313466839    -0.974760736974    12.000000000000
         C            2.455120048865     2.834219172327    -0.974863293935    12.000000000000
         C            3.681821105219    -0.709338328591    -0.958688252956    12.000000000000
         C           -1.225313598688    -0.707532004706    -0.971791608488    12.000000000000
         C            1.226699581202     3.543464994832    -0.958504221025    12.000000000000
         C            0.000004784858    -2.836786628398    -0.958350268490    12.000000000000
         C           -2.456436032848     1.418312429123    -0.958246644176    12.000000000000
         C            2.455123417779    -2.834234517751    -0.958840161323    12.000000000000
         C           -1.226714364589     3.543464574588    -0.958400887806    12.000000000000
         C            4.914517295202     1.427168383327    -0.968280053944    12.000000000000
         C            3.693150191476     3.542790803383    -0.968230254308    12.000000000000
         C           -2.456437600068    -1.418317770001    -0.975134564896    12.000000000000
         C            1.226704841943    -3.543478731069    -0.974474351775    12.000000000000
         C           -2.455125398508     2.834212173472    -0.974856917588    12.000000000000
         C            4.914524380782    -1.427191399106    -0.965307311210    12.000000000000
         C            1.221424613699     4.970129576098    -0.965168876950    12.000000000000
         C            4.893008229321     2.825183510864    -0.967063385586    12.000000000000
         C           -1.226697008489    -3.543475486239    -0.974207147365    12.000000000000
         C           -3.681818976526     0.709320477570    -0.974748056494    12.000000000000
         C            3.693147101150    -3.542805830553    -0.965189420649    12.000000000000
         C           -1.221432251994     4.970123808701    -0.964985381577    12.000000000000
         C            6.134770972926     0.680543457943    -0.967510279395    12.000000000000
         C            3.656788880610     4.972948754405    -0.967321616526    12.000000000000
         C           -2.455126907733    -2.834219582223    -0.959084519121    12.000000000000
         C           -3.681819179061    -0.709330192631    -0.958570631377    12.000000000000
         C            4.893012617914    -2.825204594794    -0.966452233690    12.000000000000
         C           -0.000001073113     5.650442876870    -0.966216690284    12.000000000000
         C            6.134775112332    -0.680559343237    -0.966244958879    12.000000000000
         C            2.478131482856     5.653572262169    -0.966032836876    12.000000000000
         C            1.221422404738    -4.970131544095    -0.967968373973    12.000000000000
         C           -3.693162383965     3.542792465030    -0.968064746849    12.000000000000
         C           -1.221428520945    -4.970122792758    -0.968081135806    12.000000000000
         C           -4.914521807942     1.427170957833    -0.968203108937    12.000000000000
         C            3.656787019679    -4.972959715401    -0.965871115992    12.000000000000
         C           -2.478138530106     5.653569933366    -0.965748311867    12.000000000000
         C           -3.693141738564    -3.542794708141    -0.965305546805    12.000000000000
         C           -4.914512483053    -1.427185489190    -0.965272614036    12.000000000000
         C           -0.000006008926    -5.650442776176    -0.966612194406    12.000000000000
         C           -4.893020484101     2.825184109757    -0.967073467446    12.000000000000
         C            2.478125993298    -5.653578033051    -0.966961716784    12.000000000000
         C           -3.656798710258     4.972951692879    -0.967144936151    12.000000000000
         C           -4.892999478856    -2.825196256222    -0.966606269388    12.000000000000
         C           -2.478128498083    -5.653570659169    -0.967236904431    12.000000000000
         C           -6.134770503331     0.680544277094    -0.967535831097    12.000000000000
         C           -3.656788833189    -4.972948512133    -0.966085403808    12.000000000000
         C           -6.134765042913    -0.680558404644    -0.966265434674    12.000000000000
         H            5.835288495816     3.369271405792    -0.962704059923     1.007825032230
         H            7.073859172747     1.228212759737    -0.967048636001     1.007825032230
         H            4.600663264174     5.512376313291    -0.966816415774     1.007825032230
         H            5.835283387305    -3.369310545891    -0.970906701005     1.007825032230
         H           -0.000012151306     6.738526184974    -0.970565935292     1.007825032230
         H            7.073861171831    -1.228231431906    -0.966753696973     1.007825032230
         H            2.473313731799     6.740679802232    -0.966499557806     1.007825032230
         H            4.600668491381    -5.512380618338    -0.966281113160     1.007825032230
         H           -2.473318680537     6.740677230444    -0.966198211181     1.007825032230
         H           -0.000010268228    -6.738532665614    -0.962082509421     1.007825032230
         H           -5.835301914343     3.369266461134    -0.962568037775     1.007825032230
         H            2.473307923831    -6.740689863591    -0.966391386359     1.007825032230
         H           -4.600674841208     5.512373537441    -0.966651087450     1.007825032230
         H           -5.835279506835    -3.369293452942    -0.971186006886     1.007825032230
         H           -2.473300347440    -6.740683567302    -0.966840702903     1.007825032230
         H           -7.073857766768     1.228215983678    -0.967132627482     1.007825032230
         H           -4.600673786085    -5.512367158949    -0.966453421183     1.007825032230
         H           -7.073856934409    -1.228225121139    -0.966848553439     1.007825032230

  Charge       = 0
  Multiplicity = 1
  Basis Set: JUN-CC-PVDZ
    Blend: JUN-CC-PVDZ
  Basis Set: (JUN-CC-PVDZ AUX)
    Blend: JUN-CC-PVDZ-JKFIT

    Orbital Energies [Eh]
    ---------------------

    Doubly Occupied:

       1A    -11.260671     2A    -11.260228     3A    -11.260227
       4A    -11.259517     5A    -11.259517     6A    -11.259347
       7A    -11.259138     8A    -11.259061     9A    -11.259059
      10A    -11.258735    11A    -11.258731    12A    -11.258663
      13A    -11.258600    14A    -11.258595    15A    -11.258592
      16A    -11.258564    17A    -11.258557    18A    -11.258541
      19A    -11.258528    20A    -11.258523    21A    -11.258517
      22A    -11.258419    23A    -11.258416    24A    -11.258117
      25A    -11.257458    26A    -11.257396    27A    -11.257395
      28A    -11.257260    29A    -11.257260    30A    -11.257175
      31A    -11.256553    32A    -11.256482    33A    -11.256482
      34A    -11.256372    35A    -11.256372    36A    -11.256324
      37A    -11.252399    38A    -11.252398    39A    -11.252397
      40A    -11.252396    41A    -11.252393    42A    -11.252391
      43A    -11.251533    44A    -11.251530    45A    -11.251529
      46A    -11.251524    47A    -11.251523    48A    -11.251518
      49A    -11.250961    50A    -11.250960    51A    -11.250958
      52A    -11.250956    53A    -11.250954    54A    -11.250953
      55A     -1.244294    56A     -1.220014    57A     -1.220013
      58A     -1.189722    59A     -1.189715    60A     -1.181165
      61A     -1.157721    62A     -1.149153    63A     -1.135704
      64A     -1.135697    65A     -1.113354    66A     -1.113350
      67A     -1.082627    68A     -1.082620    69A     -1.078810
      70A     -1.066138    71A     -1.066134    72A     -1.039577
      73A     -1.024487    74A     -1.021992    75A     -1.021948
      76A     -1.017886    77A     -1.012948    78A     -0.987219
      79A     -0.987173    80A     -0.962048    81A     -0.961998
      82A     -0.894467    83A     -0.894440    84A     -0.888163
      85A     -0.886410    86A     -0.886352    87A     -0.881598
      88A     -0.881551    89A     -0.862072    90A     -0.837551
      91A     -0.818388    92A     -0.816830    93A     -0.812338
      94A     -0.812329    95A     -0.794853    96A     -0.794843
      97A     -0.746837    98A     -0.745063    99A     -0.733631
     100A     -0.733622   101A     -0.732352   102A     -0.732328
     103A     -0.716698   104A     -0.699149   105A     -0.699137
     106A     -0.693774   107A     -0.693758   108A     -0.661398
     109A     -0.653332   110A     -0.651377   111A     -0.650416
     112A     -0.650410   113A     -0.639528   114A     -0.639525
     115A     -0.629912   116A     -0.627723   117A     -0.627708
     118A     -0.606455   119A     -0.605934   120A     -0.601864
     121A     -0.599918   122A     -0.599886   123A     -0.593821
     124A     -0.591452   125A     -0.591441   126A     -0.585419
     127A     -0.576417   128A     -0.576414   129A     -0.567477
     130A     -0.567463   131A     -0.566164   132A     -0.566145
     133A     -0.558939   134A     -0.555022   135A     -0.555016
     136A     -0.538759   137A     -0.538757   138A     -0.538288
     139A     -0.538282   140A     -0.529894   141A     -0.528205
     142A     -0.523050   143A     -0.523043   144A     -0.500667
     145A     -0.495718   146A     -0.493406   147A     -0.487946
     148A     -0.485264   149A     -0.481946   150A     -0.481938
     151A     -0.470437   152A     -0.470420   153A     -0.451249
     154A     -0.451172   155A     -0.439188   156A     -0.439179
     157A     -0.404869   158A     -0.404846   159A     -0.403489
     160A     -0.375543   161A     -0.375540   162A     -0.349246
     163A     -0.337714   164A     -0.336682   165A     -0.336625
     166A     -0.311223   167A     -0.298210   168A     -0.284479
     169A     -0.284426   170A     -0.225048   171A     -0.224982

  @DF-RHF Final Energy: -2055.89168154426534

   => Energetics <=

    Nuclear Repulsion Energy =           6452.5568002797772351
    One-Electron Energy =              -15636.4268934355932288
    Two-Electron Energy =                7127.9784116115506549
    Total Energy =                      -2055.8916815442653387
 Dipole X            :          0.0000970           -0.0000085            0.0000884
 Dipole Y            :          0.0028643           -0.0028843           -0.0000199
 Dipole Z            :        624.7464209         -624.7478219           -0.0014010
 Magnitude           :                                                    0.0014039

    SAPT Results
  --------------------------------------------------------------------------------------------------------
    Electrostatics                 -6.02167692 [mEh]      -3.77865931 [kcal/mol]     -15.80991057 [kJ/mol]
      Elst10,r                     -6.02167692 [mEh]      -3.77865931 [kcal/mol]     -15.80991057 [kJ/mol]

    Exchange                       -0.00016949 [mEh]      -0.00010636 [kcal/mol]      -0.00044501 [kJ/mol]
      Exch10                       -0.00016949 [mEh]      -0.00010636 [kcal/mol]      -0.00044501 [kJ/mol]
      Exch10(S^2)                  -0.00016949 [mEh]      -0.00010636 [kcal/mol]      -0.00044501 [kJ/mol]

    Induction                      -1.46031900 [mEh]      -0.91636401 [kcal/mol]      -3.83406701 [kJ/mol]
      Ind20,r                      -1.44445580 [mEh]      -0.90640970 [kcal/mol]      -3.79241818 [kJ/mol]
      Exch-Ind20,r                  0.00011734 [mEh]       0.00007363 [kcal/mol]       0.00030807 [kJ/mol]
      delta HF,r (2)               -0.01598054 [mEh]      -0.01002794 [kcal/mol]      -0.04195689 [kJ/mol]

    Dispersion                     -0.80832883 [mEh]      -0.50723400 [kcal/mol]      -2.12226704 [kJ/mol]
      Disp20                       -0.80836987 [mEh]      -0.50725975 [kcal/mol]      -2.12237480 [kJ/mol]
      Exch-Disp20                   0.00004105 [mEh]       0.00002576 [kcal/mol]       0.00010776 [kJ/mol]
      Disp20 (SS)                  -0.40418494 [mEh]      -0.25362988 [kcal/mol]      -1.06118740 [kJ/mol]
      Disp20 (OS)                  -0.40418494 [mEh]      -0.25362988 [kcal/mol]      -1.06118740 [kJ/mol]
      Exch-Disp20 (SS)              0.00003084 [mEh]       0.00001935 [kcal/mol]       0.00008097 [kJ/mol]
      Exch-Disp20 (OS)              0.00001021 [mEh]       0.00000640 [kcal/mol]       0.00002679 [kJ/mol]

  Total HF                         -7.48216541 [mEh]      -4.69512968 [kcal/mol]     -19.64442258 [kJ/mol]
  Total SAPT0                      -8.29049424 [mEh]      -5.20236368 [kcal/mol]     -21.76668962 [kJ/mol]

  Special recipe for scaled SAPT0 (see Manual):
    Electrostatics sSAPT0          -6.02167692 [mEh]      -3.77865931 [kcal/mol]     -15.80991057 [kJ/mol]
    Exchange sSAPT0                -0.00016949 [mEh]      -0.00010636 [kcal/mol]      -0.00044501 [kJ/mol]
    Induction sSAPT0               -1.46031900 [mEh]      -0.91636401 [kcal/mol]      -3.83406701 [kJ/mol]
    Dispersion sSAPT0              -0.80832883 [mEh]      -0.50723400 [kcal/mol]      -2.12226704 [kJ/mol]
  Total sSAPT0                     -8.29049424 [mEh]      -5.20236368 [kcal/mol]     -21.76668962 [kJ/mol]
  --------------------------------------------------------------------------------------------------------

*** Psi4 exiting successfully. Buy a developer a beer!
