                               Psi4 1.9 release

  ==> Input File <==

--------------------------------------------------------------------------
memory 32 GB # how much memory is available ! Depends on the nodes/cores !

molecule dimer {
# monomer A
-1 1    # Charge and multiplicity
B -0.000046  0.000337 4.599994
F -1.153597  0.000048 5.415641
F  1.153661 -0.000581 5.415641
F -0.000019 -1.153637 3.784360
F -0.000019  1.153978 3.784360
--
# monomer B
0 1     # Charge and multiplicity
C   1.22531237526482      0.70753866091955      0.00613762728373
C   1.22532433589282     -0.70753852257020     -0.00619318228664
C   -0.00000567409046      1.41496628609039     -0.00672680580738
C   2.45644923379077      1.41832825917820      0.00902448468363
C   0.00001130712078     -1.41497612663474      0.00347275151708
C   -1.22530046906674      0.70754574598412      0.00838914760619
C   2.45643823516184     -1.41832293188077     -0.00843833914343
C   -0.00000085313587      2.83680140328112     -0.00913035594137
C   3.68182717731192      0.70931832800114     -0.00808954934571
C   2.45512052870677      2.83422403348893     -0.00819210630633
C   3.68182158506039     -0.70933346742900      0.00798293467272
C   -1.22531311884624     -0.70752714354401     -0.00512042085974
C   1.22670006104402      3.54346985599427      0.00816696660346
C   0.00000526469929     -2.83678176723568      0.00832091913869
C   -2.45643555300670      1.41831729028492      0.00842454345199
C   2.45512389762097     -2.83422965658853      0.00783102630520
C   -1.22671388474763      3.54346943575023      0.00827029982280
C   4.91451777504333      1.42717324448953     -0.00160886631602
C   3.69315067131765      3.54279566454522     -0.00155906667985
C   -2.45643712022637     -1.41831290883911     -0.00846337726810
C   1.22670532178455     -3.54347386990643     -0.00780316414624
C   -2.45512491866593      2.83421703463423     -0.00818572995999
C   4.91452486062398     -1.42718653794377      0.00136387641845
C   1.22142509354026      4.97013443726031      0.00150231067809
C   4.89300870916237      2.82518837202648     -0.00039219795739
C   -1.22669652864725     -3.54347062507680     -0.00753595973677
C   -3.68181849668397      0.70932533873199     -0.00807686886569
C   3.69314758099218     -3.54280096939050      0.00148176697923
C   -1.22143177215231      4.97012866986289      0.00168580605083
C   6.13477145276790      0.68054831910577     -0.00083909176631
C   3.65678936045204      4.97295361556775     -0.00065042889723
C   -2.45512642789169     -2.83421472106065      0.00758666850712
C   -3.68181869921921     -0.70932533146830      0.00810055625144
C   4.89301309775526     -2.82519973363176      0.00021895393805
C   -0.00000059327114      5.65044773803267      0.00045449734393
C   6.13477559217374     -0.68055448207492      0.00042622874941
C   2.47813196269732      5.65357712333155      0.00063835075260
C   1.22142288457925     -4.97012668293268     -0.00129718634452
C   -3.69316190412301      3.54279732619245     -0.00139355922051
C   -1.22142804110313     -4.97011793159564     -0.00140994817719
C   -4.91452132810043      1.42717581899491     -0.00153192130862
C   3.65678749952045     -4.97295485423912      0.00080007163680
C   -2.47813805026426      5.65357479452875      0.00092287576113
C   -3.69314125872231     -3.54278984697859      0.00136564082345
C   -4.91451200321153     -1.42718062802730      0.00139857359209
C   -0.00000552908399     -5.65043791501335      0.00005899322272
C   -4.89302000425900      2.82518897091939     -0.00040227981744
C   2.47812647313991     -5.65357317188818     -0.00029052915548
C   -3.65679823041642      4.97295655404175     -0.00047374852278
C   -4.89299899901461     -2.82519139505969      0.00006491824035
C   -2.47812801824129     -5.65356579800621     -0.00056571680280
C   -6.13477002348955      0.68054913825639     -0.00086464346868
C   -3.65678835334731     -4.97294365097028      0.00058578382008
C   -6.13476456307132     -0.68055354348201      0.00040575295444
H   5.83528897565761      3.36927626695423      0.00396712770529
H   7.07385965258860      1.22821762089947     -0.00037744837300
H   4.60066374401555      5.51238117445323     -0.00014522814529
H   5.83528386714679     -3.36930568472863     -0.00423551337640
H   -0.00001167146422      6.73853104613662     -0.00389474766392
H   7.07386165167227     -1.22822657074368     -0.00008250934481
H   2.47331421164041      6.74068466339473      0.00017162982210
H   4.60066897122302     -5.51237575717576      0.00039007446835
H   -2.47331820069565      6.74068209160650      0.00047297644710
H   -0.00000978838621     -6.73852780445195      0.00458867820736
H   -5.83530143450167      3.36927132229595      0.00410314985360
H   2.47330840367253     -6.74068500242887      0.00027980126949
H   -4.60067436136587      5.51237839860371      0.00002010017831
H   -5.83527902699321     -3.36928859177951     -0.00451481925734
H   -2.47329986759855     -6.74067870613986     -0.00016951527498
H   -7.07385728692578      1.22822084484047     -0.00046143985387
H   -4.60067330624313     -5.51236229778631      0.00021776644566
H   -7.07385645456741     -1.22822025997701     -0.00017736581114

    units angstrom      # Angstroms are the default
    no_reorient         # Geometry fixed, default
    symmetry c1         # C1 symmetry, default
}

set {
    scf_type DF         # Density fitting, faster than exact integrals
    freeze_core True    # Freeze core electrons
    basis jun-cc-pVDZ   # Jun-cc-pVDZ basis set, recommended for sSAPT0 in https://doi.org/10.1063/1.4867135
}

energy('ssapt0')        # Compute sSAPT0 energy, includes also SAPT0
--------------------------------------------------------------------------

  //              Dimer HF             //
    Molecular point group: c1
  Charge       = -1
  Multiplicity = 1
  Basis Set: JUN-CC-PVDZ
    Blend: JUN-CC-PVDZ
  Basis Set: (JUN-CC-PVDZ AUX)
    Blend: JUN-CC-PVDZ-JKFIT
  @DF-RHF Final Energy: -2478.66165849313848
    Total Energy =                      -2478.6616584931380203
 Dipole X            :         -0.0002317           -0.0000160           -0.0002477
 Dipole Y            :          0.0012452           -0.0001716            0.0010736
 Dipole Z            :         21.6823993          -28.1993597           -6.5169604
 Magnitude           :                                                    6.5169605
  //            Monomer A HF           //
    Molecular point group: c1
  Multiplicity = 1
  Basis Set: JUN-CC-PVDZ
    Blend: JUN-CC-PVDZ
  Basis Set: (JUN-CC-PVDZ AUX)
    Blend: JUN-CC-PVDZ-JKFIT
  @DF-RHF Final Energy:  -422.77231572425700
    Total Energy =                       -422.7723157242569982
  //            Monomer B HF           //
    Molecular point group: c1

    Geometry (in Angstrom), charge = 0, multiplicity = 1:

       Center              X                  Y                   Z               Mass
    ------------   -----------------  -----------------  -----------------  -----------------
      Gh(B)          -0.000046449334     0.000336519434     4.068605793941    11.009305360000
      Gh(F)          -1.153597449334     0.000047519434     4.884252793941    18.998403162730
      Gh(F)           1.153660550666    -0.000581480566     4.884252793941    18.998403162730
      Gh(F)          -0.000019449334    -1.153637480566     3.252971793941    18.998403162730
      Gh(F)          -0.000019449334     1.153977519434     3.252971793941    18.998403162730
         C            1.225311925931     0.707538180353    -0.525250578775    12.000000000000
         C            1.225323886559    -0.707539003137    -0.537581388345    12.000000000000
         C           -0.000006123424     1.414965805524    -0.538115011866    12.000000000000
         C            2.456448784457     1.418327778612    -0.522363721375    12.000000000000
         C            0.000010857787    -1.414976607201    -0.527915454542    12.000000000000
         C           -1.225300918401     0.707545265418    -0.522999058453    12.000000000000
         C            2.456437785828    -1.418323412447    -0.539826545202    12.000000000000
         C           -0.000001302470     2.836800922715    -0.540518562000    12.000000000000
         C            3.681826727978     0.709317847435    -0.539477755405    12.000000000000
         C            2.455120079373     2.834223552923    -0.539580312365    12.000000000000
         C            3.681821135726    -0.709333947995    -0.523405271386    12.000000000000
         C           -1.225313568180    -0.707527624110    -0.536508626919    12.000000000000
         C            1.226699611710     3.543469375428    -0.523221239455    12.000000000000
         C            0.000004815365    -2.836782247802    -0.523067286920    12.000000000000
         C           -2.456436002341     1.418316809719    -0.522963662607    12.000000000000
         C            2.455123448287    -2.834230137155    -0.523557179754    12.000000000000
         C           -1.226714334082     3.543468955184    -0.523117906236    12.000000000000
         C            4.914517325709     1.427172763923    -0.532997072375    12.000000000000
         C            3.693150221984     3.542795183979    -0.532947272739    12.000000000000
         C           -2.456437569560    -1.418313389406    -0.539851583327    12.000000000000
         C            1.226704872451    -3.543474350473    -0.539191370205    12.000000000000
         C           -2.455125368000     2.834216554068    -0.539573936019    12.000000000000
         C            4.914524411290    -1.427187018510    -0.530024329640    12.000000000000
         C            1.221424644206     4.970133956694    -0.529885895381    12.000000000000
         C            4.893008259828     2.825187891460    -0.531780404016    12.000000000000
         C           -1.226696977981    -3.543471105643    -0.538924165796    12.000000000000
         C           -3.681818946018     0.709324858166    -0.539465074924    12.000000000000
         C            3.693147131658    -3.542801449957    -0.529906439080    12.000000000000
         C           -1.221432221486     4.970128189296    -0.529702400008    12.000000000000
         C            6.134771003434     0.680547838539    -0.532227297825    12.000000000000
         C            3.656788911118     4.972953135001    -0.532038634956    12.000000000000
         C           -2.455126877226    -2.834215201627    -0.523801537552    12.000000000000
         C           -3.681819148553    -0.709325812035    -0.523287649807    12.000000000000
         C            4.893012648421    -2.825200214198    -0.531169252121    12.000000000000
         C           -0.000001042605     5.650447257466    -0.530933708715    12.000000000000
         C            6.134775142840    -0.680554962641    -0.530961977309    12.000000000000
         C            2.478131513363     5.653576642765    -0.530749855306    12.000000000000
         C            1.221422435245    -4.970127163499    -0.532685392403    12.000000000000
         C           -3.693162353457     3.542796845626    -0.532781765279    12.000000000000
         C           -1.221428490437    -4.970118412162    -0.532798154236    12.000000000000
         C           -4.914521777434     1.427175338429    -0.532920127367    12.000000000000
         C            3.656787050187    -4.972955334806    -0.530588134422    12.000000000000
         C           -2.478138499598     5.653574313962    -0.530465330298    12.000000000000
         C           -3.693141708056    -3.542790327545    -0.530022565235    12.000000000000
         C           -4.914512452545    -1.427181108594    -0.529989632467    12.000000000000
         C           -0.000005978418    -5.650438395580    -0.531329212836    12.000000000000
         C           -4.893020453593     2.825188490353    -0.531790485876    12.000000000000
         C            2.478126023806    -5.653573652455    -0.531678735214    12.000000000000
         C           -3.656798679750     4.972956073475    -0.531861954582    12.000000000000
         C           -4.892999448349    -2.825191875626    -0.531323287818    12.000000000000
         C           -2.478128467575    -5.653566278573    -0.531953922862    12.000000000000
         C           -6.134770472823     0.680548657690    -0.532252849527    12.000000000000
         C           -3.656788802681    -4.972944131537    -0.530802422239    12.000000000000
         C           -6.134765012405    -0.680554024048    -0.530982453104    12.000000000000
         H            5.835288526324     3.369275786388    -0.527421078354     1.007825032230
         H            7.073859203255     1.228217140333    -0.531765654432     1.007825032230
         H            4.600663294682     5.512380693887    -0.531533434204     1.007825032230
         H            5.835283417813    -3.369306165295    -0.535623719435     1.007825032230
         H           -0.000012120798     6.738530565570    -0.535282953723     1.007825032230
         H            7.073861202338    -1.228227051310    -0.531470715404     1.007825032230
         H            2.473313762307     6.740684182828    -0.531216576237     1.007825032230
         H            4.600668521889    -5.512376237742    -0.530998131590     1.007825032230
         H           -2.473318650030     6.740681611040    -0.530915229612     1.007825032230
         H           -0.000010237720    -6.738528285018    -0.526799527851     1.007825032230
         H           -5.835301883836     3.369270841730    -0.527285056205     1.007825032230
         H            2.473307954339    -6.740685482995    -0.531108404789     1.007825032230
         H           -4.600674810700     5.512377918037    -0.531368105880     1.007825032230
         H           -5.835279476327    -3.369289072346    -0.535903025316     1.007825032230
         H           -2.473300316932    -6.740679186706    -0.531557721334     1.007825032230
         H           -7.073857736260     1.228220364274    -0.531849645913     1.007825032230
         H           -4.600673755577    -5.512362778353    -0.531170439613     1.007825032230
         H           -7.073856903901    -1.228220740543    -0.531565571870     1.007825032230

  Charge       = 0
  Multiplicity = 1
  Basis Set: JUN-CC-PVDZ
    Blend: JUN-CC-PVDZ
  Basis Set: (JUN-CC-PVDZ AUX)
    Blend: JUN-CC-PVDZ-JKFIT

    Orbital Energies [Eh]
    ---------------------

    Doubly Occupied:

       1A    -11.260663     2A    -11.260244     3A    -11.260182
       4A    -11.259507     5A    -11.259441     6A    -11.259293
       7A    -11.259062     8A    -11.259009     9A    -11.258961
      10A    -11.258671    11A    -11.258646    12A    -11.258560
      13A    -11.258500    14A    -11.258499    15A    -11.258497
      16A    -11.258461    17A    -11.258460    18A    -11.258440
      19A    -11.258439    20A    -11.258434    21A    -11.258418
      22A    -11.258366    23A    -11.258333    24A    -11.258089
      25A    -11.257353    26A    -11.257295    27A    -11.257289
      28A    -11.257166    29A    -11.257152    30A    -11.257076
      31A    -11.256447    32A    -11.256379    33A    -11.256375
      34A    -11.256277    35A    -11.256260    36A    -11.256221
      37A    -11.252314    38A    -11.252313    39A    -11.252308
      40A    -11.252307    41A    -11.252305    42A    -11.252303
      43A    -11.251427    44A    -11.251426    45A    -11.251421
      46A    -11.251419    47A    -11.251410    48A    -11.251405
      49A    -11.250876    50A    -11.250875    51A    -11.250869
      52A    -11.250868    53A    -11.250866    54A    -11.250865
      55A     -1.244089    56A     -1.219862    57A     -1.219839
      58A     -1.189581    59A     -1.189571    60A     -1.180969
      61A     -1.157598    62A     -1.149018    63A     -1.135523
      64A     -1.135515    65A     -1.113233    66A     -1.113225
      67A     -1.082463    68A     -1.082462    69A     -1.078631
      70A     -1.066019    71A     -1.066017    72A     -1.039437
      73A     -1.024309    74A     -1.021788    75A     -1.021756
      76A     -1.017768    77A     -1.012834    78A     -0.987055
      79A     -0.987012    80A     -0.961917    81A     -0.961868
      82A     -0.894329    83A     -0.894302    84A     -0.887959
      85A     -0.886220    86A     -0.886146    87A     -0.881426
      88A     -0.881388    89A     -0.861937    90A     -0.837450
      91A     -0.818247    92A     -0.816644    93A     -0.812170
      94A     -0.812159    95A     -0.794725    96A     -0.794718
      97A     -0.746654    98A     -0.744891    99A     -0.733450
     100A     -0.733427   101A     -0.732219   102A     -0.732198
     103A     -0.716527   104A     -0.699006   105A     -0.699004
     106A     -0.693614   107A     -0.693609   108A     -0.661268
     109A     -0.653131   110A     -0.651183   111A     -0.650289
     112A     -0.650285   113A     -0.639402   114A     -0.639393
     115A     -0.629745   116A     -0.627562   117A     -0.627532
     118A     -0.606499   119A     -0.605845   120A     -0.601695
     121A     -0.599762   122A     -0.599748   123A     -0.593674
     124A     -0.591242   125A     -0.591232   126A     -0.585316
     127A     -0.576460   128A     -0.576361   129A     -0.567361
     130A     -0.567348   131A     -0.565988   132A     -0.565962
     133A     -0.558750   134A     -0.554879   135A     -0.554874
     136A     -0.538632   137A     -0.538628   138A     -0.538218
     139A     -0.538213   140A     -0.529754   141A     -0.528199
     142A     -0.522904   143A     -0.522903   144A     -0.500541
     145A     -0.495633   146A     -0.493271   147A     -0.487864
     148A     -0.485107   149A     -0.481792   150A     -0.481783
     151A     -0.470400   152A     -0.470346   153A     -0.451050
     154A     -0.450965   155A     -0.439101   156A     -0.439091
     157A     -0.404779   158A     -0.404751   159A     -0.403414
     160A     -0.375449   161A     -0.375446   162A     -0.349156
     163A     -0.337636   164A     -0.336617   165A     -0.336527
     166A     -0.311115   167A     -0.298134   168A     -0.284373
     169A     -0.284334   170A     -0.224956   171A     -0.224877

  @DF-RHF Final Energy: -2055.89328974753198

   => Energetics <=

    Nuclear Repulsion Energy =           6452.5568002797781446
    One-Electron Energy =              -15636.4710062403864868
    Two-Electron Energy =                7128.0209162130777258
    Total Energy =                      -2055.8932897475315258
 Dipole X            :          0.0000659            0.0000112            0.0000771
 Dipole Y            :          0.0002830           -0.0000531            0.0002298
 Dipole Z            :        343.4275516         -343.4303791           -0.0028275
 Magnitude           :                                                    0.0028379

    SAPT Results
  --------------------------------------------------------------------------------------------------------
    Electrostatics                 11.77296733 [mEh]       7.38764853 [kcal/mol]      30.90992147 [kJ/mol]
      Elst10,r                     11.77296733 [mEh]       7.38764853 [kcal/mol]      30.90992147 [kJ/mol]

    Exchange                        0.56928823 [mEh]       0.35723376 [kcal/mol]       1.49466604 [kJ/mol]
      Exch10                        0.56928823 [mEh]       0.35723376 [kcal/mol]       1.49466604 [kJ/mol]
      Exch10(S^2)                   0.56929653 [mEh]       0.35723897 [kcal/mol]       1.49468783 [kJ/mol]

    Induction                      -8.39527691 [mEh]      -5.26811579 [kcal/mol]     -22.04179648 [kJ/mol]
      Ind20,r                      -8.55689386 [mEh]      -5.36953196 [kcal/mol]     -22.46612174 [kJ/mol]
      Exch-Ind20,r                  0.11539766 [mEh]       0.07241313 [kcal/mol]       0.30297653 [kJ/mol]
      delta HF,r (2)                0.04621929 [mEh]       0.02900304 [kcal/mol]       0.12134873 [kJ/mol]

    Dispersion                     -3.46479107 [mEh]      -2.17418922 [kcal/mol]      -9.09680769 [kJ/mol]
      Disp20                       -3.58464475 [mEh]      -2.24939854 [kcal/mol]      -9.41148349 [kJ/mol]
      Exch-Disp20                   0.11985368 [mEh]       0.07520932 [kcal/mol]       0.31467580 [kJ/mol]
      Disp20 (SS)                  -1.79232237 [mEh]      -1.12469927 [kcal/mol]      -4.70574175 [kJ/mol]
      Disp20 (OS)                  -1.79232237 [mEh]      -1.12469927 [kcal/mol]      -4.70574175 [kJ/mol]
      Exch-Disp20 (SS)              0.07739572 [mEh]       0.04856655 [kcal/mol]       0.20320243 [kJ/mol]
      Exch-Disp20 (OS)              0.04245796 [mEh]       0.02664277 [kcal/mol]       0.11147337 [kJ/mol]

  Total HF                          3.94697865 [mEh]       2.47676650 [kcal/mol]      10.36279102 [kJ/mol]
  Total SAPT0                       0.48218758 [mEh]       0.30257728 [kcal/mol]       1.26598333 [kJ/mol]

  Special recipe for scaled SAPT0 (see Manual):
    Electrostatics sSAPT0          11.77296733 [mEh]       7.38764853 [kcal/mol]      30.90992147 [kJ/mol]
    Exchange sSAPT0                 0.56928823 [mEh]       0.35723376 [kcal/mol]       1.49466604 [kJ/mol]
    Induction sSAPT0               -8.39528196 [mEh]      -5.26811896 [kcal/mol]     -22.04180974 [kJ/mol]
    Dispersion sSAPT0              -3.46479631 [mEh]      -2.17419251 [kcal/mol]      -9.09682145 [kJ/mol]
  Total sSAPT0                      0.48217729 [mEh]       0.30257082 [kcal/mol]       1.26595631 [kJ/mol]
  --------------------------------------------------------------------------------------------------------

*** Psi4 exiting successfully. Buy a developer a beer!
