                               Psi4 1.9 release

  ==> Input File <==

--------------------------------------------------------------------------
memory 64 GB # how much memory is available ! Depends on the nodes/cores !

molecule dimer {
# monomer A
+1 1    # Charge and multiplicity
C  0.680067 -0.008042 -7.415929
C -0.680504 -0.006014 -7.415545
N -1.085635 -0.005016 -6.097221
C  0.000108 -0.001740 -5.315820
C -2.477365  0.044390 -5.629242
N  1.085222 -0.005016 -6.097221
H  1.385146 -0.015870 -8.233368
H -1.385302 -0.006204 -8.233214
H -0.000009  0.000007 -4.234731
C  2.478117 -0.021908 -5.632123
H  2.490592  0.005437 -4.541870
H  2.967028 -0.935354 -5.979299
H  3.001428  0.853575 -6.023595
H -2.857359  1.066461 -5.709201
H -3.082679 -0.625694 -6.242306
H -2.518128 -0.282594 -4.589294
--
# monomer B
0 1     # Charge and multiplicity
C   -3.66844126402057      7.80375217008252      0.00190004133558
C   -4.84759871934653      7.13124183134024     -0.00046653359696
C   -4.89495929917518      5.69633040353158     -0.00103944469517
C   -3.65374067877320      4.98073034095895      0.00662099703436
C   -2.40942512149445      7.11398103667468      0.00209438359570
C   -2.42547734410473      5.68112195090346     -0.00491050527438
C   -1.19474401643570      7.78614419430947      0.00356656413763
C   0.03795902893699      7.09942164575698      0.00139585983271
C   0.03033258741920      5.66948955970466     -0.00408752508301
C   -1.20098450790502      4.96927034791531      0.00488220885047
C   1.27795782581485      7.77285944319479      0.00277170839332
C   2.48535808472416      7.08769688523756      0.00049722048857
C   2.48612868491717      5.65477081024076     -0.00644052849921
C   1.25408291964399      4.95607811366431      0.00518741308898
C   3.75171459140595      7.76391215098033      0.00062407186893
C   4.92356605618520      7.07878077698995     -0.00143240883900
C   4.95560727132542      5.64344746336949     -0.00159282164606
C   3.70680153420475      4.94121020833308      0.00349873852374
H   -3.65852113775815      8.89082741913536      0.00358502958574
H   -1.18921332975660      8.87412108735996      0.00753844057883
H   1.28429423888630      8.86083343548850      0.00693053253426
H   3.75354208679975      8.85103527897216      0.00214659618464
H   5.86995870320703      7.61379483465560     -0.00235777588134
H   -5.78823170750226      7.67630221293400     -0.00202638095293
C   -6.09197395869619      4.99326001364347     -0.00291168518608
C   -6.12866148031747      3.58258016879823     -0.00171050815740
C   -3.66457974004527      3.56418217974434     -0.00463560277484
C   -4.89429820469869      2.86108077590057      0.00453338221034
C   -2.43733499489796      2.84761165708481      0.00719617576166
C   -1.20922785759670      3.54788693497833     -0.00648285103018
C   1.24714157216223      3.53468075142962     -0.00729145743546
C   0.01517603956900      2.83311183930540      0.00439272578912
C   2.46764517244071      2.82128997725533      0.00449278391269
C   3.70254947457969      3.52466015442405     -0.00899517692985
C   6.14498038638375      4.92757236613191     -0.00282626685777
C   6.16658835886151      3.51658447594213     -0.00065971342101
C   4.92460995845939      2.80840792535402      0.00587903281610
H   7.08990550964105      5.46688776622306     -0.00658814770723
H   -7.03104175110130      5.54268795285765     -0.00714490013730
C   -7.33969804112295      2.85841153457957     -0.00333767559888
C   -7.36488195805880      1.47032337158330     -0.00157213747140
C   -4.90350460894690      1.44442681216000     -0.00628840166334
C   -6.13225715261081      0.73993935705394      0.00600164231964
C   -3.67687480051673      0.72669714267312      0.00433931473643
C   -2.44565658606518      1.42964113326212     -0.00597039546461
C   -1.22360068130162      0.71532450163492      0.00545886906656
C   0.00763786931376      1.41738314923765      0.00392452278437
C   1.23121980774686      0.70211669058719     -0.01490206287210
C   2.46082110053113      1.40329203612573      0.00460244601878
C   3.68443025419614      0.68719842821222      0.00377365974158
C   4.91870890153864      1.39173456118907     -0.00862816189375
C   7.36980207796101      2.77948220318441     -0.00242013321349
C   7.38016266612146      1.39121750785509     -0.00087345036788
C   6.13979953912259      0.67411862320065      0.00545489144369
H   -8.27919079934664      3.40711804112415     -0.00763522772059
H   8.31511347147953      3.31811809662368     -0.00663070901292
C   -8.59175593758115      0.72483255304480     -0.00123170985383
C   -8.59902460370342     -0.63263980622873      0.00089141472904
C   -6.13981313911873     -0.67413663715361     -0.00609792660607
C   -7.38018411213749     -1.39126618958160      0.00131813493501
C   -4.91868448025621     -1.39175501803000      0.00624257154343
C   -3.68443829568458     -0.68723731573599     -0.00478966852105
C   -2.46081704024768     -1.40334517882457      0.00575341766833
C   -1.23116201232071     -0.70217386488055     -0.00636696112346
C   -0.00756962538737     -1.41741884941102      0.00108956317991
C   1.22364771588843     -0.71527537726392      0.01109518512883
C   2.44567064933149     -1.42964328900682     -0.00065482763106
C   3.67686670284649     -0.72670743155550     -0.00479541202602
C   6.13224884641929     -0.73997883984993     -0.00632338623858
C   4.90351914550401     -1.44445752054090      0.00751768830159
C   8.59901484869081      0.63260386666793     -0.00101133422380
C   8.59174548810050     -0.72485086719319      0.00072504603735
C   7.36486276438985     -1.47033266560598      0.00049486934466
H   -9.52830597181814      1.27684744919284     -0.00270163681798
H   9.54141097460619      1.17457248844457     -0.00206336648518
C   -7.36983790976868     -2.77954514593389      0.00312634335708
C   -4.92459910905015     -2.80843725734101     -0.00460528907921
C   -6.16662249566744     -3.51665219282533      0.00169655107992
C   -3.70251035970491     -3.52468154912026      0.00571878010666
C   -2.46764698511392     -2.82132596280400     -0.00632585824990
C   -0.01513347410770     -2.83314164539971     -0.00604426974092
C   -1.24712184122656     -3.53473217556300      0.00551968366725
C   1.20924506964357     -3.54791467864352      0.00805871345849
C   2.43733602215464     -2.84764173817541     -0.00608104485234
C   4.89430234377080     -2.86112296828604     -0.00526030478103
C   3.66461525504104     -3.56421984553201      0.00761911515957
C   6.12863901474565     -3.58258405771778      0.00096495711699
C   7.33967266469532     -2.85841330737039      0.00248018319869
H   -9.54144911125902     -1.17456346666430      0.00226083090216
H   9.52826186807155     -1.27691907390448      0.00197485379837
H   -8.31516504384864     -3.31814985321231      0.00729857188773
H   8.27915514249207     -3.40714078989363      0.00681973918158
C   -6.14499418870218     -4.92764727278338      0.00302254913999
C   -3.70678334799751     -4.94126171411716     -0.00679841894792
C   -4.95559005800169     -5.64349397349412      0.00116871569699
C   -2.48612132622665     -5.65478557440947      0.00614125209662
C   -1.25405833548005     -4.95612205000132     -0.00503435388927
C   1.20101257386816     -4.96928038819302     -0.00385322963129
C   -0.03033667441341     -5.66952030313900      0.00398997003238
C   3.65375010132847     -4.98074377541453     -0.00309522988330
C   2.42549269587528     -5.68117463552727      0.00628170066869
C   6.09196561781097     -4.99325796338655      0.00325918379042
C   4.89497644461045     -5.69634842095790      0.00202298796027
H   -7.08989238804069     -5.46699984223871      0.00742531082125
H   7.03105520920009     -5.54265853633254      0.00683896355417
C   -4.92354532219813     -7.07882109967734      0.00061394679214
C   -2.48534208823777     -7.08772807792913     -0.00189594564379
C   -3.75168589177895     -7.76394715763627     -0.00170126671874
C   -0.03794895698805     -7.09946487446944     -0.00168022049625
C   -1.27795610040136     -7.77290438466689     -0.00366491325785
C   2.40944432072629     -7.11402201200282     -0.00081701968533
C   1.19474993715296     -7.78618536556242     -0.00296931056689
C   4.84762105249800     -7.13126211057943      0.00168979497423
C   3.66847160587561     -7.80378799294376     -0.00065863938960
H   -5.86994035041618     -7.61383059804164      0.00215798365757
H   5.78824962538815     -7.67633218931421      0.00281691445618
H   -3.75352693944918     -8.85107156923607     -0.00353718114765
H   -1.28430440589466     -8.86087539249706     -0.00809229711623
H   1.18922157469537     -8.87416062058945     -0.00706194725726
H   3.65854661482387     -8.89086063405326     -0.00231318081200

    units angstrom      # Angstroms are the default
    no_reorient         # Geometry fixed, default
    symmetry c1         # C1 symmetry, default
}

set {
    scf_type DF         # Density fitting, faster than exact integrals
    freeze_core True    # Freeze core electrons
    basis jun-cc-pVDZ   # Jun-cc-pVDZ basis set, recommended for sSAPT0 in https://doi.org/10.1063/1.4867135
}

energy('ssapt0')        # Compute sSAPT0 energy, includes also SAPT0
--------------------------------------------------------------------------

  //              Dimer HF             //
    Molecular point group: c1
  Charge       = 1
  Multiplicity = 1
  Basis Set: JUN-CC-PVDZ
    Blend: JUN-CC-PVDZ
  Basis Set: (JUN-CC-PVDZ AUX)
    Blend: JUN-CC-PVDZ-JKFIT
  @DF-RHF Final Energy: -3953.65129230933508
    Total Energy =                      -3953.6512923093359859
 Dipole X            :         -0.0024900            0.0004804           -0.0020096
 Dipole Y            :         -0.0499717            0.0561130            0.0061413
 Dipole Z            :         26.6624265          -35.7676534           -9.1052269
 Magnitude           :                                                    9.1052292
  //            Monomer A HF           //
    Molecular point group: c1
  Multiplicity = 1
  Basis Set: JUN-CC-PVDZ
    Blend: JUN-CC-PVDZ
  Basis Set: (JUN-CC-PVDZ AUX)
    Blend: JUN-CC-PVDZ-JKFIT
  @DF-RHF Final Energy:  -303.29741013707280
    Total Energy =                       -303.2974101370728022
  //            Monomer B HF           //
    Molecular point group: c1

    Geometry (in Angstrom), charge = 0, multiplicity = 1:

       Center              X                  Y                   Z               Mass
    ------------   -----------------  -----------------  -----------------  -----------------
      Gh(C)           0.680062820275    -0.008027535675    -6.943232669164    12.000000000000
      Gh(C)          -0.680508179725    -0.005999535675    -6.942848669164    12.000000000000
      Gh(N)          -1.085639179725    -0.005001535675    -5.624524669164    14.003074004430
      Gh(C)           0.000103820275    -0.001725535675    -4.843123669164    12.000000000000
      Gh(C)          -2.477369179725     0.044404464325    -5.156545669164    12.000000000000
      Gh(N)           1.085217820275    -0.005001535675    -5.624524669164    14.003074004430
      Gh(H)           1.385141820275    -0.015855535675    -7.760671669164     1.007825032230
      Gh(H)          -1.385306179725    -0.006189535675    -7.760517669164     1.007825032230
      Gh(H)          -0.000013179725     0.000021464325    -3.762034669164     1.007825032230
      Gh(C)           2.478112820275    -0.021893535675    -5.159426669164    12.000000000000
      Gh(H)           2.490587820275     0.005451464325    -4.069173669164     1.007825032230
      Gh(H)           2.967023820275    -0.935339535675    -5.506602669164     1.007825032230
      Gh(H)           3.001423820275     0.853589464325    -5.550898669164     1.007825032230
      Gh(H)          -2.857363179725     1.066475464325    -5.236504669164     1.007825032230
      Gh(H)          -3.082683179725    -0.625679535675    -5.769609669164     1.007825032230
      Gh(H)          -2.518132179725    -0.282579535675    -4.116597669164     1.007825032230
         C           -3.668445443746     7.803766634408     0.474596372172    12.000000000000
         C           -4.847602899072     7.131256295665     0.472229797239    12.000000000000
         C           -4.894963478901     5.696344867857     0.471656886141    12.000000000000
         C           -3.653744858499     4.980744805284     0.479317327871    12.000000000000
         C           -2.409429301220     7.113995501000     0.474790714432    12.000000000000
         C           -2.425481523830     5.681136415228     0.467785825562    12.000000000000
         C           -1.194748196161     7.786158658634     0.476262894974    12.000000000000
         C            0.037954849212     7.099436110082     0.474092190669    12.000000000000
         C            0.030328407694     5.669504024030     0.468608805753    12.000000000000
         C           -1.200988687630     4.969284812240     0.477578539687    12.000000000000
         C            1.277953646089     7.772873907520     0.475468039230    12.000000000000
         C            2.485353904999     7.087711349563     0.473193551325    12.000000000000
         C            2.486124505192     5.654785274566     0.466255802337    12.000000000000
         C            1.254078739919     4.956092577989     0.477883743925    12.000000000000
         C            3.751710411681     7.763926615305     0.473320402705    12.000000000000
         C            4.923561876460     7.078795241315     0.471263921997    12.000000000000
         C            4.955603091600     5.643461927694     0.471103509190    12.000000000000
         C            3.706797354479     4.941224672658     0.476195069360    12.000000000000
         H           -3.658525317484     8.890841883460     0.476281360422     1.007825032230
         H           -1.189217509482     8.874135551685     0.480234771415     1.007825032230
         H            1.284290059161     8.860847899813     0.479626863371     1.007825032230
         H            3.753537907074     8.851049743297     0.474842927021     1.007825032230
         H            5.869954523482     7.613809298981     0.470338554955     1.007825032230
         H           -5.788235887228     7.676316677259     0.470669949883     1.007825032230
         C           -6.091978138422     4.993274477968     0.469784645650    12.000000000000
         C           -6.128665660043     3.582594633123     0.470985822679    12.000000000000
         C           -3.664583919771     3.564196644069     0.468060728062    12.000000000000
         C           -4.894302384424     2.861095240226     0.477229713047    12.000000000000
         C           -2.437339174623     2.847626121410     0.479892506598    12.000000000000
         C           -1.209232037322     3.547901399303     0.466213479806    12.000000000000
         C            1.247137392437     3.534695215755     0.465404873401    12.000000000000
         C            0.015171859844     2.833126303630     0.477089056625    12.000000000000
         C            2.467640992715     2.821304441580     0.477189114749    12.000000000000
         C            3.702545294854     3.524674618749     0.463701153907    12.000000000000
         C            6.144976206658     4.927586830457     0.469870063979    12.000000000000
         C            6.166584179136     3.516598940267     0.472036617415    12.000000000000
         C            4.924605778734     2.808422389679     0.478575363652    12.000000000000
         H            7.089901329916     5.466902230548     0.466108183129     1.007825032230
         H           -7.031045930827     5.542702417183     0.465551430699     1.007825032230
         C           -7.339702220848     2.858425998905     0.469358655237    12.000000000000
         C           -7.364886137784     1.470337835908     0.471124193365    12.000000000000
         C           -4.903508788672     1.444441276485     0.466407929173    12.000000000000
         C           -6.132261332336     0.739953821379     0.478697973156    12.000000000000
         C           -3.676878980242     0.726711606998     0.477035645573    12.000000000000
         C           -2.445660765791     1.429655597587     0.466725935372    12.000000000000
         C           -1.223604861027     0.715338965960     0.478155199903    12.000000000000
         C            0.007633689588     1.417397613563     0.476620853621    12.000000000000
         C            1.231215628021     0.702131154912     0.457794267964    12.000000000000
         C            2.460816920806     1.403306500451     0.477298776855    12.000000000000
         C            3.684426074471     0.687212892537     0.476469990578    12.000000000000
         C            4.918704721813     1.391749025514     0.464068168943    12.000000000000
         C            7.369797898236     2.779496667509     0.470276197623    12.000000000000
         C            7.380158486396     1.391231972180     0.471822880468    12.000000000000
         C            6.139795359397     0.674133087526     0.478151222280    12.000000000000
         H           -8.279194979072     3.407132505449     0.465061103116     1.007825032230
         H            8.315109291754     3.318132560949     0.466065621823     1.007825032230
         C           -8.591760117307     0.724847017370     0.471464620983    12.000000000000
         C           -8.599028783429    -0.632625341904     0.473587745565    12.000000000000
         C           -6.139817318844    -0.674122172829     0.466598404230    12.000000000000
         C           -7.380188291863    -1.391251725257     0.474014465771    12.000000000000
         C           -4.918688659982    -1.391740553705     0.478938902380    12.000000000000
         C           -3.684442475410    -0.687222851411     0.467906662315    12.000000000000
         C           -2.460821219973    -1.403330714500     0.478449748505    12.000000000000
         C           -1.231166192046    -0.702159400556     0.466329369713    12.000000000000
         C           -0.007573805113    -1.417404385086     0.473785894016    12.000000000000
         C            1.223643536163    -0.715260912939     0.483791515965    12.000000000000
         C            2.445666469606    -1.429628824682     0.472041503205    12.000000000000
         C            3.676862523121    -0.726692967231     0.467900918810    12.000000000000
         C            6.132244666694    -0.739964375525     0.466372944598    12.000000000000
         C            4.903514965779    -1.444443056216     0.480214019138    12.000000000000
         C            8.599010668965     0.632618330993     0.471684996613    12.000000000000
         C            8.591741308375    -0.724836402868     0.473421376874    12.000000000000
         C            7.364858584664    -1.470318201281     0.473191200181    12.000000000000
         H           -9.528310151544     1.276861913518     0.469994694018     1.007825032230
         H            9.541406794881     1.174586952770     0.470632964351     1.007825032230
         C           -7.369842089494    -2.779530681609     0.475822674193    12.000000000000
         C           -4.924603288776    -2.808422793016     0.468091041757    12.000000000000
         C           -6.166626675393    -3.516637728500     0.474392881916    12.000000000000
         C           -3.702514539430    -3.524667084795     0.478415110943    12.000000000000
         C           -2.467651164839    -2.821311498479     0.466370472586    12.000000000000
         C           -0.015137653833    -2.833127181075     0.466652061095    12.000000000000
         C           -1.247126020952    -3.534717711238     0.478216014504    12.000000000000
         C            1.209240889918    -3.547900214319     0.480755044295    12.000000000000
         C            2.437331842429    -2.847627273850     0.466615285984    12.000000000000
         C            4.894298164045    -2.861108503961     0.467436026055    12.000000000000
         C            3.664611075316    -3.564205381207     0.480315445996    12.000000000000
         C            6.128634835020    -3.582569593393     0.473661287953    12.000000000000
         C            7.339668484970    -2.858398843045     0.475176514035    12.000000000000
         H           -9.541453290984    -1.174549002339     0.474957161739     1.007825032230
         H            9.528257688346    -1.276904609579     0.474671184635     1.007825032230
         H           -8.315169223574    -3.318135388887     0.479994902724     1.007825032230
         H            8.279150962767    -3.407126325569     0.479516070018     1.007825032230
         C           -6.144998368428    -4.927632808458     0.475718879976    12.000000000000
         C           -3.706787527723    -4.941247249792     0.465897911888    12.000000000000
         C           -4.955594237727    -5.643479509169     0.473865046533    12.000000000000
         C           -2.486125505952    -5.654771110084     0.478837582933    12.000000000000
         C           -1.254062515205    -4.956107585676     0.467661976947    12.000000000000
         C            1.201008394143    -4.969265923868     0.468843101205    12.000000000000
         C           -0.030340854139    -5.669505838814     0.476686300869    12.000000000000
         C            3.653745921603    -4.980729311090     0.469601100953    12.000000000000
         C            2.425488516150    -5.681160171202     0.478978031505    12.000000000000
         C            6.091961438086    -4.993243499062     0.475955514627    12.000000000000
         C            4.894972264885    -5.696333956633     0.474719318797    12.000000000000
         H           -7.089896567766    -5.466985377914     0.480121641658     1.007825032230
         H            7.031051029475    -5.542644072008     0.479535294391     1.007825032230
         C           -4.923549501924    -7.078806635352     0.473310277629    12.000000000000
         C           -2.485346267963    -7.087713613604     0.470800385193    12.000000000000
         C           -3.751690071504    -7.763932693311     0.470995064118    12.000000000000
         C           -0.037953136713    -7.099450410144     0.471016110340    12.000000000000
         C           -1.277960280127    -7.772889920342     0.469031417579    12.000000000000
         C            2.409440141001    -7.114007547678     0.471879311151    12.000000000000
         C            1.194745757428    -7.786170901237     0.469727020269    12.000000000000
         C            4.847616872773    -7.131247646254     0.474386125811    12.000000000000
         C            3.668467426150    -7.803773528619     0.472037691447    12.000000000000
         H           -5.869944530142    -7.613816133717     0.474854314494     1.007825032230
         H            5.788245445663    -7.676317724989     0.475513245293     1.007825032230
         H           -3.753531119175    -8.851057104911     0.469159149689     1.007825032230
         H           -1.284308585620    -8.860860928172     0.464604033720     1.007825032230
         H            1.189217394970    -8.874146156264     0.465634383579     1.007825032230
         H            3.658542435098    -8.890846169728     0.470383150024     1.007825032230

  Charge       = 0
  Multiplicity = 1
  Basis Set: JUN-CC-PVDZ
    Blend: JUN-CC-PVDZ
  Basis Set: (JUN-CC-PVDZ AUX)
    Blend: JUN-CC-PVDZ-JKFIT

    Orbital Energies [Eh]
    ---------------------

    Doubly Occupied:

       1A    -11.264015     2A    -11.263694     3A    -11.263691
       4A    -11.263341     5A    -11.263339     6A    -11.263305
       7A    -11.263147     8A    -11.263127     9A    -11.263124
      10A    -11.262956    11A    -11.262800    12A    -11.262796
      13A    -11.262316    14A    -11.262314    15A    -11.262247
      16A    -11.262246    17A    -11.262187    18A    -11.262158
      19A    -11.262112    20A    -11.262076    21A    -11.262072
      22A    -11.261928    23A    -11.261921    24A    -11.261801
      25A    -11.261790    26A    -11.261772    27A    -11.261767
      28A    -11.261723    29A    -11.261713    30A    -11.261637
      31A    -11.261612    32A    -11.261607    33A    -11.261581
      34A    -11.261580    35A    -11.261559    36A    -11.261522
      37A    -11.261379    38A    -11.261370    39A    -11.261364
      40A    -11.261358    41A    -11.261350    42A    -11.261342
      43A    -11.261335    44A    -11.261320    45A    -11.261316
      46A    -11.261294    47A    -11.261288    48A    -11.261284
      49A    -11.261122    50A    -11.261089    51A    -11.261086
      52A    -11.261006    53A    -11.261004    54A    -11.260935
      55A    -11.259974    56A    -11.259962    57A    -11.259957
      58A    -11.259930    59A    -11.259926    60A    -11.259911
      61A    -11.259348    62A    -11.259325    63A    -11.259318
      64A    -11.259269    65A    -11.259264    66A    -11.259236
      67A    -11.258978    68A    -11.258961    69A    -11.258957
      70A    -11.258931    71A    -11.258926    72A    -11.258916
      73A    -11.254564    74A    -11.254563    75A    -11.254558
      76A    -11.254556    77A    -11.254553    78A    -11.254547
      79A    -11.253704    80A    -11.253704    81A    -11.253701
      82A    -11.253698    83A    -11.253696    84A    -11.253689
      85A    -11.253620    86A    -11.253619    87A    -11.253616
      88A    -11.253614    89A    -11.253611    90A    -11.253604
      91A    -11.253092    92A    -11.253090    93A    -11.253086
      94A    -11.253085    95A    -11.253081    96A    -11.253075
      97A     -1.254047    98A     -1.239081    99A     -1.239069
     100A     -1.220532   101A     -1.220523   102A     -1.215535
     103A     -1.201099   104A     -1.195666   105A     -1.188231
     106A     -1.188222   107A     -1.173819   108A     -1.173818
     109A     -1.155706   110A     -1.155702   111A     -1.152807
     112A     -1.144775   113A     -1.144773   114A     -1.128637
     115A     -1.114789   116A     -1.113217   117A     -1.112570
     118A     -1.112552   119A     -1.111669   120A     -1.088498
     121A     -1.088483   122A     -1.077014   123A     -1.077013
     124A     -1.067690   125A     -1.067658   126A     -1.065054
     127A     -1.046865   128A     -1.046855   129A     -1.040548
     130A     -1.038787   131A     -1.038785   132A     -1.025319
     133A     -1.021482   134A     -1.021426   135A     -1.007239
     136A     -1.006874   137A     -1.003856   138A     -1.000566
     139A     -1.000514   140A     -0.991124   141A     -0.971060
     142A     -0.971011   143A     -0.955941   144A     -0.955884
     145A     -0.905679   146A     -0.905641   147A     -0.905598
     148A     -0.905556   149A     -0.904430   150A     -0.892451
     151A     -0.892395   152A     -0.890444   153A     -0.890387
     154A     -0.889526   155A     -0.872273   156A     -0.869099
     157A     -0.851597   158A     -0.847940   159A     -0.847923
     160A     -0.845676   161A     -0.843087   162A     -0.834626
     163A     -0.834614   164A     -0.828169   165A     -0.828163
     166A     -0.784614   167A     -0.784604   168A     -0.783734
     169A     -0.783711   170A     -0.782355   171A     -0.782335
     172A     -0.782110   173A     -0.767052   174A     -0.760878
     175A     -0.750655   176A     -0.733538   177A     -0.727137
     178A     -0.727114   179A     -0.725150   180A     -0.724603
     181A     -0.724580   182A     -0.718578   183A     -0.713849
     184A     -0.713843   185A     -0.699639   186A     -0.699621
     187A     -0.686211   188A     -0.686010   189A     -0.686005
     190A     -0.682229   191A     -0.682219   192A     -0.678849
     193A     -0.653688   194A     -0.650935   195A     -0.650904
     196A     -0.649890   197A     -0.649879   198A     -0.649618
     199A     -0.641014   200A     -0.640979   201A     -0.640141
     202A     -0.639210   203A     -0.636093   204A     -0.636065
     205A     -0.629201   206A     -0.617752   207A     -0.615355
     208A     -0.615332   209A     -0.608858   210A     -0.608852
     211A     -0.599147   212A     -0.599138   213A     -0.598809
     214A     -0.598670   215A     -0.598655   216A     -0.598119
     217A     -0.595118   218A     -0.595106   219A     -0.594781
     220A     -0.594317   221A     -0.592022   222A     -0.592019
     223A     -0.587474   224A     -0.577838   225A     -0.577824
     226A     -0.575711   227A     -0.575699   228A     -0.573434
     229A     -0.569597   230A     -0.568220   231A     -0.568196
     232A     -0.566814   233A     -0.566806   234A     -0.560955
     235A     -0.558791   236A     -0.558761   237A     -0.558470
     238A     -0.554428   239A     -0.550599   240A     -0.547515
     241A     -0.544302   242A     -0.535008   243A     -0.534995
     244A     -0.533594   245A     -0.533574   246A     -0.528129
     247A     -0.528112   248A     -0.527872   249A     -0.517240
     250A     -0.517208   251A     -0.515387   252A     -0.515382
     253A     -0.509690   254A     -0.509676   255A     -0.498080
     256A     -0.496512   257A     -0.496478   258A     -0.493816
     259A     -0.493790   260A     -0.489469   261A     -0.481499
     262A     -0.477450   263A     -0.477448   264A     -0.474046
     265A     -0.469502   266A     -0.466583   267A     -0.466580
     268A     -0.458841   269A     -0.446768   270A     -0.446711
     271A     -0.441056   272A     -0.440794   273A     -0.440760
     274A     -0.434719   275A     -0.433939   276A     -0.407403
     277A     -0.407382   278A     -0.386443   279A     -0.386388
     280A     -0.385761   281A     -0.385760   282A     -0.383793
     283A     -0.354357   284A     -0.354338   285A     -0.350696
     286A     -0.338113   287A     -0.335615   288A     -0.335560
     289A     -0.332741   290A     -0.332738   291A     -0.307111
     292A     -0.301973   293A     -0.301914   294A     -0.300874
     295A     -0.286199   296A     -0.256494   297A     -0.253528
     298A     -0.253481   299A     -0.204289   300A     -0.204203

  @DF-RHF Final Energy: -3650.33868172747316

   => Energetics <=

    Nuclear Repulsion Energy =          15611.4211649754306563
    One-Electron Energy =              -36072.1125437953160144
    Two-Electron Energy =               16810.3526970924140187
    Total Energy =                      -3650.3386817274731584
 Dipole X            :         -0.0008899            0.0002112           -0.0006787
 Dipole Y            :          0.0012133           -0.0013774           -0.0001641
 Dipole Z            :       -535.9536391          535.9633554            0.0097163
 Magnitude           :                                                    0.0097413

    SAPT Results
  --------------------------------------------------------------------------------------------------------
    Electrostatics                 -9.75877621 [mEh]      -6.12372453 [kcal/mol]     -25.62166342 [kJ/mol]
      Elst10,r                     -9.75877621 [mEh]      -6.12372453 [kcal/mol]     -25.62166342 [kJ/mol]

    Exchange                        0.01694791 [mEh]       0.01063498 [kcal/mol]       0.04449674 [kJ/mol]
      Exch10                        0.01694791 [mEh]       0.01063498 [kcal/mol]       0.04449674 [kJ/mol]
      Exch10(S^2)                   0.01694774 [mEh]       0.01063487 [kcal/mol]       0.04449628 [kJ/mol]

    Induction                      -5.45861649 [mEh]      -3.42533356 [kcal/mol]     -14.33159561 [kJ/mol]
      Ind20,r                      -5.30066743 [mEh]      -3.32621903 [kcal/mol]     -13.91690043 [kJ/mol]
      Exch-Ind20,r                  0.00496437 [mEh]       0.00311519 [kcal/mol]       0.01303396 [kJ/mol]
      delta HF,r (2)               -0.16291342 [mEh]      -0.10222972 [kcal/mol]      -0.42772914 [kJ/mol]

    Dispersion                     -3.41329051 [mEh]      -2.14187213 [kcal/mol]      -8.96159301 [kJ/mol]
      Disp20                       -3.41665591 [mEh]      -2.14398395 [kcal/mol]      -8.97042884 [kJ/mol]
      Exch-Disp20                   0.00336539 [mEh]       0.00211182 [kcal/mol]       0.00883584 [kJ/mol]
      Disp20 (SS)                  -1.70832795 [mEh]      -1.07199197 [kcal/mol]      -4.48521442 [kJ/mol]
      Disp20 (OS)                  -1.70832795 [mEh]      -1.07199197 [kcal/mol]      -4.48521442 [kJ/mol]
      Exch-Disp20 (SS)              0.00238467 [mEh]       0.00149640 [kcal/mol]       0.00626094 [kJ/mol]
      Exch-Disp20 (OS)              0.00098072 [mEh]       0.00061541 [kcal/mol]       0.00257489 [kJ/mol]

  Total HF                        -15.20044479 [mEh]      -9.53842311 [kcal/mol]     -39.90876230 [kJ/mol]
  Total SAPT0                     -18.61373530 [mEh]     -11.68029524 [kcal/mol]     -48.87035530 [kJ/mol]

  Special recipe for scaled SAPT0 (see Manual):
    Electrostatics sSAPT0          -9.75877621 [mEh]      -6.12372453 [kcal/mol]     -25.62166342 [kJ/mol]
    Exchange sSAPT0                 0.01694791 [mEh]       0.01063498 [kcal/mol]       0.04449674 [kJ/mol]
    Induction sSAPT0               -5.45861633 [mEh]      -3.42533346 [kcal/mol]     -14.33159521 [kJ/mol]
    Dispersion sSAPT0              -3.41329041 [mEh]      -2.14187207 [kcal/mol]      -8.96159274 [kJ/mol]
  Total sSAPT0                    -18.61373505 [mEh]     -11.68029508 [kcal/mol]     -48.87035463 [kJ/mol]
  --------------------------------------------------------------------------------------------------------

*** Psi4 exiting successfully. Buy a developer a beer!
