                               Psi4 1.9 release

  ==> Input File <==

--------------------------------------------------------------------------
memory 80 GB # how much memory is available ! Depends on the nodes/cores !

molecule dimer {
# monomer A
-1 1    # Charge and multiplicity
B -0.000046  0.000337 3.099994
F -1.153597  0.000048 3.915641
F  1.153661 -0.000581 3.915641
F -0.000019 -1.153637 2.284360
F -0.000019  1.153978 2.284360
--
# monomer B
0 1     # Charge and multiplicity
C   -3.66844126402057      7.80375217008252      0.00190004133558
C   -4.84759871934653      7.13124183134024     -0.00046653359696
C   -4.89495929917518      5.69633040353158     -0.00103944469517
C   -3.65374067877320      4.98073034095895      0.00662099703436
C   -2.40942512149445      7.11398103667468      0.00209438359570
C   -2.42547734410473      5.68112195090346     -0.00491050527438
C   -1.19474401643570      7.78614419430947      0.00356656413763
C   0.03795902893699      7.09942164575698      0.00139585983271
C   0.03033258741920      5.66948955970466     -0.00408752508301
C   -1.20098450790502      4.96927034791531      0.00488220885047
C   1.27795782581485      7.77285944319479      0.00277170839332
C   2.48535808472416      7.08769688523756      0.00049722048857
C   2.48612868491717      5.65477081024076     -0.00644052849921
C   1.25408291964399      4.95607811366431      0.00518741308898
C   3.75171459140595      7.76391215098033      0.00062407186893
C   4.92356605618520      7.07878077698995     -0.00143240883900
C   4.95560727132542      5.64344746336949     -0.00159282164606
C   3.70680153420475      4.94121020833308      0.00349873852374
H   -3.65852113775815      8.89082741913536      0.00358502958574
H   -1.18921332975660      8.87412108735996      0.00753844057883
H   1.28429423888630      8.86083343548850      0.00693053253426
H   3.75354208679975      8.85103527897216      0.00214659618464
H   5.86995870320703      7.61379483465560     -0.00235777588134
H   -5.78823170750226      7.67630221293400     -0.00202638095293
C   -6.09197395869619      4.99326001364347     -0.00291168518608
C   -6.12866148031747      3.58258016879823     -0.00171050815740
C   -3.66457974004527      3.56418217974434     -0.00463560277484
C   -4.89429820469869      2.86108077590057      0.00453338221034
C   -2.43733499489796      2.84761165708481      0.00719617576166
C   -1.20922785759670      3.54788693497833     -0.00648285103018
C   1.24714157216223      3.53468075142962     -0.00729145743546
C   0.01517603956900      2.83311183930540      0.00439272578912
C   2.46764517244071      2.82128997725533      0.00449278391269
C   3.70254947457969      3.52466015442405     -0.00899517692985
C   6.14498038638375      4.92757236613191     -0.00282626685777
C   6.16658835886151      3.51658447594213     -0.00065971342101
C   4.92460995845939      2.80840792535402      0.00587903281610
H   7.08990550964105      5.46688776622306     -0.00658814770723
H   -7.03104175110130      5.54268795285765     -0.00714490013730
C   -7.33969804112295      2.85841153457957     -0.00333767559888
C   -7.36488195805880      1.47032337158330     -0.00157213747140
C   -4.90350460894690      1.44442681216000     -0.00628840166334
C   -6.13225715261081      0.73993935705394      0.00600164231964
C   -3.67687480051673      0.72669714267312      0.00433931473643
C   -2.44565658606518      1.42964113326212     -0.00597039546461
C   -1.22360068130162      0.71532450163492      0.00545886906656
C   0.00763786931376      1.41738314923765      0.00392452278437
C   1.23121980774686      0.70211669058719     -0.01490206287210
C   2.46082110053113      1.40329203612573      0.00460244601878
C   3.68443025419614      0.68719842821222      0.00377365974158
C   4.91870890153864      1.39173456118907     -0.00862816189375
C   7.36980207796101      2.77948220318441     -0.00242013321349
C   7.38016266612146      1.39121750785509     -0.00087345036788
C   6.13979953912259      0.67411862320065      0.00545489144369
H   -8.27919079934664      3.40711804112415     -0.00763522772059
H   8.31511347147953      3.31811809662368     -0.00663070901292
C   -8.59175593758115      0.72483255304480     -0.00123170985383
C   -8.59902460370342     -0.63263980622873      0.00089141472904
C   -6.13981313911873     -0.67413663715361     -0.00609792660607
C   -7.38018411213749     -1.39126618958160      0.00131813493501
C   -4.91868448025621     -1.39175501803000      0.00624257154343
C   -3.68443829568458     -0.68723731573599     -0.00478966852105
C   -2.46081704024768     -1.40334517882457      0.00575341766833
C   -1.23116201232071     -0.70217386488055     -0.00636696112346
C   -0.00756962538737     -1.41741884941102      0.00108956317991
C   1.22364771588843     -0.71527537726392      0.01109518512883
C   2.44567064933149     -1.42964328900682     -0.00065482763106
C   3.67686670284649     -0.72670743155550     -0.00479541202602
C   6.13224884641929     -0.73997883984993     -0.00632338623858
C   4.90351914550401     -1.44445752054090      0.00751768830159
C   8.59901484869081      0.63260386666793     -0.00101133422380
C   8.59174548810050     -0.72485086719319      0.00072504603735
C   7.36486276438985     -1.47033266560598      0.00049486934466
H   -9.52830597181814      1.27684744919284     -0.00270163681798
H   9.54141097460619      1.17457248844457     -0.00206336648518
C   -7.36983790976868     -2.77954514593389      0.00312634335708
C   -4.92459910905015     -2.80843725734101     -0.00460528907921
C   -6.16662249566744     -3.51665219282533      0.00169655107992
C   -3.70251035970491     -3.52468154912026      0.00571878010666
C   -2.46764698511392     -2.82132596280400     -0.00632585824990
C   -0.01513347410770     -2.83314164539971     -0.00604426974092
C   -1.24712184122656     -3.53473217556300      0.00551968366725
C   1.20924506964357     -3.54791467864352      0.00805871345849
C   2.43733602215464     -2.84764173817541     -0.00608104485234
C   4.89430234377080     -2.86112296828604     -0.00526030478103
C   3.66461525504104     -3.56421984553201      0.00761911515957
C   6.12863901474565     -3.58258405771778      0.00096495711699
C   7.33967266469532     -2.85841330737039      0.00248018319869
H   -9.54144911125902     -1.17456346666430      0.00226083090216
H   9.52826186807155     -1.27691907390448      0.00197485379837
H   -8.31516504384864     -3.31814985321231      0.00729857188773
H   8.27915514249207     -3.40714078989363      0.00681973918158
C   -6.14499418870218     -4.92764727278338      0.00302254913999
C   -3.70678334799751     -4.94126171411716     -0.00679841894792
C   -4.95559005800169     -5.64349397349412      0.00116871569699
C   -2.48612132622665     -5.65478557440947      0.00614125209662
C   -1.25405833548005     -4.95612205000132     -0.00503435388927
C   1.20101257386816     -4.96928038819302     -0.00385322963129
C   -0.03033667441341     -5.66952030313900      0.00398997003238
C   3.65375010132847     -4.98074377541453     -0.00309522988330
C   2.42549269587528     -5.68117463552727      0.00628170066869
C   6.09196561781097     -4.99325796338655      0.00325918379042
C   4.89497644461045     -5.69634842095790      0.00202298796027
H   -7.08989238804069     -5.46699984223871      0.00742531082125
H   7.03105520920009     -5.54265853633254      0.00683896355417
C   -4.92354532219813     -7.07882109967734      0.00061394679214
C   -2.48534208823777     -7.08772807792913     -0.00189594564379
C   -3.75168589177895     -7.76394715763627     -0.00170126671874
C   -0.03794895698805     -7.09946487446944     -0.00168022049625
C   -1.27795610040136     -7.77290438466689     -0.00366491325785
C   2.40944432072629     -7.11402201200282     -0.00081701968533
C   1.19474993715296     -7.78618536556242     -0.00296931056689
C   4.84762105249800     -7.13126211057943      0.00168979497423
C   3.66847160587561     -7.80378799294376     -0.00065863938960
H   -5.86994035041618     -7.61383059804164      0.00215798365757
H   5.78824962538815     -7.67633218931421      0.00281691445618
H   -3.75352693944918     -8.85107156923607     -0.00353718114765
H   -1.28430440589466     -8.86087539249706     -0.00809229711623
H   1.18922157469537     -8.87416062058945     -0.00706194725726
H   3.65854661482387     -8.89086063405326     -0.00231318081200

    units angstrom      # Angstroms are the default
    no_reorient         # Geometry fixed, default
    symmetry c1         # C1 symmetry, default
}

set {
    scf_type DF         # Density fitting, faster than exact integrals
    freeze_core True    # Freeze core electrons
    basis jun-cc-pVDZ   # Jun-cc-pVDZ basis set, recommended for sSAPT0 in https://doi.org/10.1063/1.4867135
}

energy('ssapt0')        # Compute sSAPT0 energy, includes also SAPT0
--------------------------------------------------------------------------

  //              Dimer HF             //
    Molecular point group: c1
  Charge       = -1
  Multiplicity = 1
  Basis Set: JUN-CC-PVDZ
    Blend: JUN-CC-PVDZ
  Basis Set: (JUN-CC-PVDZ AUX)
    Blend: JUN-CC-PVDZ-JKFIT
  @DF-RHF Final Energy: -4073.08094855744093
    Total Energy =                      -4073.0809485574391147
 Dipole X            :          0.0016957           -0.0001188            0.0015769
 Dipole Y            :          0.0013817           -0.0002727            0.0011090
 Dipole Z            :         14.7572477          -18.4489268           -3.6916791
 Magnitude           :                                                    3.6916796
  //            Monomer A HF           //
    Molecular point group: c1
  Multiplicity = 1
  Basis Set: JUN-CC-PVDZ
    Blend: JUN-CC-PVDZ
  Basis Set: (JUN-CC-PVDZ AUX)
    Blend: JUN-CC-PVDZ-JKFIT
  @DF-RHF Final Energy:  -422.77511640065603
    Total Energy =                       -422.7751164006560316
  //            Monomer B HF           //
    Molecular point group: c1

    Geometry (in Angstrom), charge = 0, multiplicity = 1:

       Center              X                  Y                   Z               Mass
    ------------   -----------------  -----------------  -----------------  -----------------
      Gh(B)          -0.000050191042     0.000351518223     2.886476785396    11.009305360000
      Gh(F)          -1.153601191042     0.000062518223     3.702123785396    18.998403162730
      Gh(F)           1.153656808958    -0.000566481777     3.702123785396    18.998403162730
      Gh(F)          -0.000023191042    -1.153622481777     2.070842785396    18.998403162730
      Gh(F)          -0.000023191042     1.153992518223     2.070842785396    18.998403162730
         C           -3.668445455062     7.803766688305    -0.211617173269    12.000000000000
         C           -4.847602910388     7.131256349563    -0.213983748201    12.000000000000
         C           -4.894963490217     5.696344921754    -0.214556659299    12.000000000000
         C           -3.653744869815     4.980744859182    -0.206896217570    12.000000000000
         C           -2.409429312536     7.113995554897    -0.211422831009    12.000000000000
         C           -2.425481535146     5.681136469126    -0.218427719879    12.000000000000
         C           -1.194748207477     7.786158712532    -0.209950650467    12.000000000000
         C            0.037954837895     7.099436163980    -0.212121354771    12.000000000000
         C            0.030328396378     5.669504077927    -0.217604739687    12.000000000000
         C           -1.200988698947     4.969284866138    -0.208635005754    12.000000000000
         C            1.277953634773     7.772873961417    -0.210745506211    12.000000000000
         C            2.485353893683     7.087711403460    -0.213019994116    12.000000000000
         C            2.486124493876     5.654785328463    -0.219957743103    12.000000000000
         C            1.254078728602     4.956092631887    -0.208329801515    12.000000000000
         C            3.751710400364     7.763926669203    -0.212893142735    12.000000000000
         C            4.923561865144     7.078795295213    -0.214949623443    12.000000000000
         C            4.955603080284     5.643461981592    -0.215110036250    12.000000000000
         C            3.706797343163     4.941224726556    -0.210018476080    12.000000000000
         H           -3.658525328800     8.890841937358    -0.209932185018     1.007825032230
         H           -1.189217520798     8.874135605583    -0.205978774025     1.007825032230
         H            1.284290047845     8.860847953711    -0.206586682070     1.007825032230
         H            3.753537895758     8.851049797195    -0.211370618420     1.007825032230
         H            5.869954512165     7.613809352878    -0.215874990486     1.007825032230
         H           -5.788235898544     7.676316731157    -0.215543595557     1.007825032230
         C           -6.091978149738     4.993274531866    -0.216428899790    12.000000000000
         C           -6.128665671359     3.582594687021    -0.215227722762    12.000000000000
         C           -3.664583931087     3.564196697967    -0.218152817379    12.000000000000
         C           -4.894302395740     2.861095294123    -0.208983832394    12.000000000000
         C           -2.437339185940     2.847626175307    -0.206321038843    12.000000000000
         C           -1.209232048638     3.547901453201    -0.220000065634    12.000000000000
         C            1.247137381121     3.534695269652    -0.220808672040    12.000000000000
         C            0.015171848527     2.833126357528    -0.209124488815    12.000000000000
         C            2.467640981399     2.821304495478    -0.209024430692    12.000000000000
         C            3.702545283538     3.524674672647    -0.222512391534    12.000000000000
         C            6.144976195342     4.927586884354    -0.216343481462    12.000000000000
         C            6.166584167820     3.516598994165    -0.214176928025    12.000000000000
         C            4.924605767418     2.808422443577    -0.207638181788    12.000000000000
         H            7.089901318599     5.466902284446    -0.220105362311     1.007825032230
         H           -7.031045942143     5.542702471080    -0.220662114742     1.007825032230
         C           -7.339702232165     2.858426052802    -0.216854890203    12.000000000000
         C           -7.364886149100     1.470337889806    -0.215089352076    12.000000000000
         C           -4.903508799989     1.444441330383    -0.219805616268    12.000000000000
         C           -6.132261343652     0.739953875277    -0.207515572285    12.000000000000
         C           -3.676878991558     0.726711660896    -0.209177899868    12.000000000000
         C           -2.445660777107     1.429655651485    -0.219487610069    12.000000000000
         C           -1.223604872343     0.715339019858    -0.208058345538    12.000000000000
         C            0.007633678272     1.417397667460    -0.209592691820    12.000000000000
         C            1.231215616705     0.702131208810    -0.228419277476    12.000000000000
         C            2.460816909489     1.403306554348    -0.208914768585    12.000000000000
         C            3.684426063155     0.687212946435    -0.209743554863    12.000000000000
         C            4.918704710497     1.391749079412    -0.222145376498    12.000000000000
         C            7.369797886919     2.779496721407    -0.215937347818    12.000000000000
         C            7.380158475080     1.391232026078    -0.214390664972    12.000000000000
         C            6.139795348081     0.674133141423    -0.208062323161    12.000000000000
         H           -8.279194990388     3.407132559347    -0.221152442325     1.007825032230
         H            8.315109280438     3.318132614846    -0.220147923617     1.007825032230
         C           -8.591760128623     0.724847071267    -0.214748924458    12.000000000000
         C           -8.599028794745    -0.632625288006    -0.212625799875    12.000000000000
         C           -6.139817330160    -0.674122118931    -0.219615141210    12.000000000000
         C           -7.380188303179    -1.391251671359    -0.212199079669    12.000000000000
         C           -4.918688671298    -1.391740499807    -0.207274643061    12.000000000000
         C           -3.684442486726    -0.687222797513    -0.218306883125    12.000000000000
         C           -2.460821231289    -1.403330660602    -0.207763796936    12.000000000000
         C           -1.231166203362    -0.702159346658    -0.219884175728    12.000000000000
         C           -0.007573816429    -1.417404331188    -0.212427651424    12.000000000000
         C            1.223643524847    -0.715260859041    -0.202422029475    12.000000000000
         C            2.445666458290    -1.429628770784    -0.214172042235    12.000000000000
         C            3.676862511805    -0.726692913333    -0.218312626630    12.000000000000
         C            6.132244655378    -0.739964321627    -0.219840600843    12.000000000000
         C            4.903514954462    -1.444443002318    -0.205999526303    12.000000000000
         C            8.599010657649     0.632618384891    -0.214528548828    12.000000000000
         C            8.591741297059    -0.724836348971    -0.212792168567    12.000000000000
         C            7.364858573348    -1.470318147383    -0.213022345260    12.000000000000
         H           -9.528310162860     1.276861967415    -0.216218851422     1.007825032230
         H            9.541406783565     1.174587006667    -0.215580581089     1.007825032230
         C           -7.369842100810    -2.779530627711    -0.210390871247    12.000000000000
         C           -4.924603300092    -2.808422739118    -0.218122503683    12.000000000000
         C           -6.166626686709    -3.516637674603    -0.211820663524    12.000000000000
         C           -3.702514550747    -3.524667030898    -0.207798434498    12.000000000000
         C           -2.467651176156    -2.821311444581    -0.219843072854    12.000000000000
         C           -0.015137665149    -2.833127127177    -0.219561484345    12.000000000000
         C           -1.247126032268    -3.534717657340    -0.207997530937    12.000000000000
         C            1.209240878602    -3.547900160421    -0.205458501146    12.000000000000
         C            2.437331831113    -2.847627219953    -0.219598259457    12.000000000000
         C            4.894298152729    -2.861108450063    -0.218777519385    12.000000000000
         C            3.664611063999    -3.564205327309    -0.205898099445    12.000000000000
         C            6.128634823704    -3.582569539495    -0.212552257487    12.000000000000
         C            7.339668473654    -2.858398789148    -0.211037031406    12.000000000000
         H           -9.541453302301    -1.174548948442    -0.211256383702     1.007825032230
         H            9.528257677030    -1.276904555682    -0.211542360806     1.007825032230
         H           -8.315169234890    -3.318135334990    -0.206218642716     1.007825032230
         H            8.279150951450    -3.407126271671    -0.206697475423     1.007825032230
         C           -6.144998379744    -4.927632754561    -0.210494665464    12.000000000000
         C           -3.706787539039    -4.941247195895    -0.220315633552    12.000000000000
         C           -4.955594249043    -5.643479455272    -0.212348498907    12.000000000000
         C           -2.486125517268    -5.654771056187    -0.207375962508    12.000000000000
         C           -1.254062526522    -4.956107531779    -0.218551568493    12.000000000000
         C            1.201008382827    -4.969265869970    -0.217370444235    12.000000000000
         C           -0.030340865455    -5.669505784916    -0.209527244572    12.000000000000
         C            3.653745910287    -4.980729257192    -0.216612444488    12.000000000000
         C            2.425488504834    -5.681160117305    -0.207235513936    12.000000000000
         C            6.091961426769    -4.993243445164    -0.210258030814    12.000000000000
         C            4.894972253569    -5.696333902735    -0.211494226644    12.000000000000
         H           -7.089896579082    -5.466985324016    -0.206091903783     1.007825032230
         H            7.031051018158    -5.542644018110    -0.206678251050     1.007825032230
         C           -4.923549513240    -7.078806581455    -0.212903267812    12.000000000000
         C           -2.485346279279    -7.087713559707    -0.215413160248    12.000000000000
         C           -3.751690082821    -7.763932639414    -0.215218481323    12.000000000000
         C           -0.037953148030    -7.099450356247    -0.215197435100    12.000000000000
         C           -1.277960291443    -7.772889866444    -0.217182127862    12.000000000000
         C            2.409440129685    -7.114007493780    -0.214334234290    12.000000000000
         C            1.194745746111    -7.786170847340    -0.216486525171    12.000000000000
         C            4.847616861456    -7.131247592357    -0.211827419630    12.000000000000
         C            3.668467414834    -7.803773474721    -0.214175853994    12.000000000000
         H           -5.869944541458    -7.613816079819    -0.211359230947     1.007825032230
         H            5.788245434347    -7.676317671092    -0.210700300148     1.007825032230
         H           -3.753531130491    -8.851057051013    -0.217054395752     1.007825032230
         H           -1.284308596936    -8.860860874274    -0.221609511720     1.007825032230
         H            1.189217383654    -8.874146102367    -0.220579161861     1.007825032230
         H            3.658542423782    -8.890846115831    -0.215830395416     1.007825032230

  Charge       = 0
  Multiplicity = 1
  Basis Set: JUN-CC-PVDZ
    Blend: JUN-CC-PVDZ
  Basis Set: (JUN-CC-PVDZ AUX)
    Blend: JUN-CC-PVDZ-JKFIT

    Orbital Energies [Eh]
    ---------------------

    Doubly Occupied:

       1A    -11.264114     2A    -11.263798     3A    -11.263682
       4A    -11.263317     5A    -11.263276     6A    -11.263259
       7A    -11.263144     8A    -11.263105     9A    -11.263086
      10A    -11.262867    11A    -11.262759    12A    -11.262734
      13A    -11.262267    14A    -11.262257    15A    -11.262240
      16A    -11.262210    17A    -11.262112    18A    -11.262109
      19A    -11.262064    20A    -11.262030    21A    -11.262014
      22A    -11.261939    23A    -11.261896    24A    -11.261759
      25A    -11.261758    26A    -11.261738    27A    -11.261719
      28A    -11.261693    29A    -11.261672    30A    -11.261581
      31A    -11.261566    32A    -11.261560    33A    -11.261557
      34A    -11.261529    35A    -11.261524    36A    -11.261504
      37A    -11.261340    38A    -11.261333    39A    -11.261326
      40A    -11.261323    41A    -11.261314    42A    -11.261312
      43A    -11.261292    44A    -11.261273    45A    -11.261271
      46A    -11.261246    47A    -11.261243    48A    -11.261238
      49A    -11.261049    50A    -11.261016    51A    -11.261012
      52A    -11.260942    53A    -11.260926    54A    -11.260876
      55A    -11.259922    56A    -11.259908    57A    -11.259906
      58A    -11.259877    59A    -11.259874    60A    -11.259858
      61A    -11.259291    62A    -11.259264    63A    -11.259263
      64A    -11.259209    65A    -11.259207    66A    -11.259177
      67A    -11.258924    68A    -11.258906    69A    -11.258903
      70A    -11.258875    71A    -11.258873    72A    -11.258861
      73A    -11.254540    74A    -11.254538    75A    -11.254531
      76A    -11.254531    77A    -11.254529    78A    -11.254529
      79A    -11.253665    80A    -11.253662    81A    -11.253660
      82A    -11.253657    83A    -11.253654    84A    -11.253653
      85A    -11.253581    86A    -11.253578    87A    -11.253575
      88A    -11.253572    89A    -11.253569    90A    -11.253569
      91A    -11.253067    92A    -11.253066    93A    -11.253059
      94A    -11.253059    95A    -11.253057    96A    -11.253057
      97A     -1.253912    98A     -1.238991    99A     -1.238987
     100A     -1.220465   101A     -1.220461   102A     -1.215409
     103A     -1.201049   104A     -1.195610   105A     -1.188118
     106A     -1.188115   107A     -1.173773   108A     -1.173768
     109A     -1.155618   110A     -1.155615   111A     -1.152690
     112A     -1.144731   113A     -1.144728   114A     -1.128567
     115A     -1.114704   116A     -1.113170   117A     -1.112456
     118A     -1.112445   119A     -1.111629   120A     -1.088426
     121A     -1.088406   122A     -1.076969   123A     -1.076967
     124A     -1.067606   125A     -1.067577   126A     -1.064953
     127A     -1.046802   128A     -1.046795   129A     -1.040479
     130A     -1.038742   131A     -1.038742   132A     -1.025222
     133A     -1.021357   134A     -1.021307   135A     -1.007183
     136A     -1.006814   137A     -1.003794   138A     -1.000477
     139A     -1.000425   140A     -0.991083   141A     -0.970981
     142A     -0.970934   143A     -0.955886   144A     -0.955828
     145A     -0.905569   146A     -0.905559   147A     -0.905531
     148A     -0.905519   149A     -0.904307   150A     -0.892351
     151A     -0.892296   152A     -0.890348   153A     -0.890289
     154A     -0.889451   155A     -0.872222   156A     -0.869067
     157A     -0.851542   158A     -0.847856   159A     -0.847837
     160A     -0.845582   161A     -0.843015   162A     -0.834563
     163A     -0.834549   164A     -0.828120   165A     -0.828118
     166A     -0.784546   167A     -0.784537   168A     -0.783645
     169A     -0.783622   170A     -0.782282   171A     -0.782264
     172A     -0.782023   173A     -0.766994   174A     -0.760779
     175A     -0.750552   176A     -0.733489   177A     -0.727072
     178A     -0.727057   179A     -0.725078   180A     -0.724543
     181A     -0.724525   182A     -0.718463   183A     -0.713758
     184A     -0.713751   185A     -0.699572   186A     -0.699563
     187A     -0.686100   188A     -0.685962   189A     -0.685959
     190A     -0.682178   191A     -0.682166   192A     -0.678753
     193A     -0.653617   194A     -0.650865   195A     -0.650836
     196A     -0.649792   197A     -0.649781   198A     -0.649569
     199A     -0.640905   200A     -0.640883   201A     -0.640092
     202A     -0.639169   203A     -0.636006   204A     -0.635979
     205A     -0.629141   206A     -0.617707   207A     -0.615308
     208A     -0.615289   209A     -0.608802   210A     -0.608795
     211A     -0.599121   212A     -0.599072   213A     -0.598735
     214A     -0.598601   215A     -0.598578   216A     -0.598008
     217A     -0.595070   218A     -0.595058   219A     -0.594716
     220A     -0.594210   221A     -0.591944   222A     -0.591941
     223A     -0.587368   224A     -0.577803   225A     -0.577792
     226A     -0.575653   227A     -0.575647   228A     -0.573383
     229A     -0.569580   230A     -0.568116   231A     -0.568097
     232A     -0.566746   233A     -0.566733   234A     -0.560919
     235A     -0.558706   236A     -0.558684   237A     -0.558432
     238A     -0.554362   239A     -0.550547   240A     -0.547481
     241A     -0.544256   242A     -0.535033   243A     -0.534958
     244A     -0.533527   245A     -0.533507   246A     -0.528076
     247A     -0.528062   248A     -0.527770   249A     -0.517138
     250A     -0.517105   251A     -0.515347   252A     -0.515341
     253A     -0.509644   254A     -0.509627   255A     -0.498027
     256A     -0.496444   257A     -0.496414   258A     -0.493770
     259A     -0.493744   260A     -0.489430   261A     -0.481452
     262A     -0.477417   263A     -0.477410   264A     -0.473993
     265A     -0.469433   266A     -0.466517   267A     -0.466512
     268A     -0.458779   269A     -0.446658   270A     -0.446598
     271A     -0.441011   272A     -0.440760   273A     -0.440739
     274A     -0.434685   275A     -0.433905   276A     -0.407362
     277A     -0.407334   278A     -0.386383   279A     -0.386317
     280A     -0.385735   281A     -0.385728   282A     -0.383720
     283A     -0.354307   284A     -0.354305   285A     -0.350642
     286A     -0.338034   287A     -0.335555   288A     -0.335480
     289A     -0.332709   290A     -0.332707   291A     -0.307030
     292A     -0.301892   293A     -0.301831   294A     -0.300841
     295A     -0.286153   296A     -0.256488   297A     -0.253451
     298A     -0.253405   299A     -0.204245   300A     -0.204150

  @DF-RHF Final Energy: -3650.34011218969817

   => Energetics <=

    Nuclear Repulsion Energy =          15611.4211649754324753
    One-Electron Energy =              -36072.1502680008852622
    Two-Electron Energy =               16810.3889908357559761
    Total Energy =                      -3650.3401121896968107
 Dipole X            :          0.0002752            0.0001983            0.0004735
 Dipole Y            :          0.0014128           -0.0013163            0.0000965
 Dipole Z            :        242.0898288         -242.0900433           -0.0002145
 Magnitude           :                                                    0.0005287

    SAPT Results
  --------------------------------------------------------------------------------------------------------
    Electrostatics                -28.95491276 [mEh]     -18.16948207 [kcal/mol]     -76.02111297 [kJ/mol]
      Elst10,r                    -28.95491276 [mEh]     -18.16948207 [kcal/mol]     -76.02111297 [kJ/mol]

    Exchange                       96.34495095 [mEh]      60.45736947 [kcal/mol]     252.95363387 [kJ/mol]
      Exch10                       96.34495095 [mEh]      60.45736947 [kcal/mol]     252.95363387 [kJ/mol]
      Exch10(S^2)                  94.88388038 [mEh]      59.54053384 [kcal/mol]     249.11759360 [kJ/mol]

    Induction                     -33.11000528 [mEh]     -20.77684199 [kcal/mol]     -86.93030689 [kJ/mol]
      Ind20,r                     -68.29535798 [mEh]     -42.85598415 [kcal/mol]    -179.30943768 [kJ/mol]
      Exch-Ind20,r                 42.29328603 [mEh]      26.53943766 [kcal/mol]     111.04100718 [kJ/mol]
      delta HF,r (2)               -7.10793333 [mEh]      -4.46029550 [kcal/mol]     -18.66187639 [kJ/mol]

    Dispersion                    -25.00317872 [mEh]     -15.68973152 [kcal/mol]     -65.64583668 [kJ/mol]
      Disp20                      -33.63017979 [mEh]     -21.10325643 [kcal/mol]     -88.29602489 [kJ/mol]
      Exch-Disp20                   8.62700108 [mEh]       5.41352491 [kcal/mol]      22.65018820 [kJ/mol]
      Disp20 (SS)                 -16.81508990 [mEh]     -10.55162821 [kcal/mol]     -44.14801244 [kJ/mol]
      Disp20 (OS)                 -16.81508990 [mEh]     -10.55162821 [kcal/mol]     -44.14801244 [kJ/mol]
      Exch-Disp20 (SS)              4.63448565 [mEh]       2.90818365 [kcal/mol]      12.16784039 [kJ/mol]
      Exch-Disp20 (OS)              3.99251543 [mEh]       2.50534126 [kcal/mol]      10.48234782 [kJ/mol]

  Total HF                         34.28003291 [mEh]      21.51104541 [kcal/mol]      90.00221401 [kJ/mol]
  Total SAPT0                       9.27685419 [mEh]       5.82131389 [kcal/mol]      24.35637733 [kJ/mol]

  Special recipe for scaled SAPT0 (see Manual):
    Electrostatics sSAPT0         -28.95491276 [mEh]     -18.16948207 [kcal/mol]     -76.02111297 [kJ/mol]
    Exchange sSAPT0                96.34495095 [mEh]      60.45736947 [kcal/mol]     252.95363387 [kJ/mol]
    Induction sSAPT0              -31.12600482 [mEh]     -19.53186291 [kcal/mol]     -81.72131440 [kJ/mol]
    Dispersion sSAPT0             -24.59848153 [mEh]     -15.43578020 [kcal/mol]     -64.58330435 [kJ/mol]
  Total sSAPT0                     11.66555185 [mEh]       7.32024430 [kcal/mol]      30.62790215 [kJ/mol]
  --------------------------------------------------------------------------------------------------------

*** Psi4 exiting successfully. Buy a developer a beer!
