                               Psi4 1.9 release

  ==> Input File <==

--------------------------------------------------------------------------
memory 32 GB # how much memory is available ! Depends on the nodes/cores !

molecule dimer {
# monomer A
+1 1    # Charge and multiplicity
C  0.680067 -1.215929 7.408042
C -0.680504 -1.215545 7.406014
N -1.085635  0.102779 7.405016
C  0.000108  0.884180 7.401740
C -2.477365  0.570758 7.355610
N  1.085222  0.102779 7.405016
H  1.385146 -2.033368 7.415870
H -1.385302 -2.033214 7.406204
H -0.000009  1.965269 7.399993
C  2.478117  0.567877 7.421908
H  2.490592  1.658130 7.394563
H  2.967028  0.220701 8.335354
H  3.001428  0.176405 6.546425
H -2.857359  0.490799 6.333539
H -3.082679 -0.042306 8.025694
H -2.518128  1.610706 7.682594
--
# monomer B
0 1     # Charge and multiplicity
C   1.22531237526482      0.70753866091955      0.00613762728373
C   1.22532433589282     -0.70753852257020     -0.00619318228664
C   -0.00000567409046      1.41496628609039     -0.00672680580738
C   2.45644923379077      1.41832825917820      0.00902448468363
C   0.00001130712078     -1.41497612663474      0.00347275151708
C   -1.22530046906674      0.70754574598412      0.00838914760619
C   2.45643823516184     -1.41832293188077     -0.00843833914343
C   -0.00000085313587      2.83680140328112     -0.00913035594137
C   3.68182717731192      0.70931832800114     -0.00808954934571
C   2.45512052870677      2.83422403348893     -0.00819210630633
C   3.68182158506039     -0.70933346742900      0.00798293467272
C   -1.22531311884624     -0.70752714354401     -0.00512042085974
C   1.22670006104402      3.54346985599427      0.00816696660346
C   0.00000526469929     -2.83678176723568      0.00832091913869
C   -2.45643555300670      1.41831729028492      0.00842454345199
C   2.45512389762097     -2.83422965658853      0.00783102630520
C   -1.22671388474763      3.54346943575023      0.00827029982280
C   4.91451777504333      1.42717324448953     -0.00160886631602
C   3.69315067131765      3.54279566454522     -0.00155906667985
C   -2.45643712022637     -1.41831290883911     -0.00846337726810
C   1.22670532178455     -3.54347386990643     -0.00780316414624
C   -2.45512491866593      2.83421703463423     -0.00818572995999
C   4.91452486062398     -1.42718653794377      0.00136387641845
C   1.22142509354026      4.97013443726031      0.00150231067809
C   4.89300870916237      2.82518837202648     -0.00039219795739
C   -1.22669652864725     -3.54347062507680     -0.00753595973677
C   -3.68181849668397      0.70932533873199     -0.00807686886569
C   3.69314758099218     -3.54280096939050      0.00148176697923
C   -1.22143177215231      4.97012866986289      0.00168580605083
C   6.13477145276790      0.68054831910577     -0.00083909176631
C   3.65678936045204      4.97295361556775     -0.00065042889723
C   -2.45512642789169     -2.83421472106065      0.00758666850712
C   -3.68181869921921     -0.70932533146830      0.00810055625144
C   4.89301309775526     -2.82519973363176      0.00021895393805
C   -0.00000059327114      5.65044773803267      0.00045449734393
C   6.13477559217374     -0.68055448207492      0.00042622874941
C   2.47813196269732      5.65357712333155      0.00063835075260
C   1.22142288457925     -4.97012668293268     -0.00129718634452
C   -3.69316190412301      3.54279732619245     -0.00139355922051
C   -1.22142804110313     -4.97011793159564     -0.00140994817719
C   -4.91452132810043      1.42717581899491     -0.00153192130862
C   3.65678749952045     -4.97295485423912      0.00080007163680
C   -2.47813805026426      5.65357479452875      0.00092287576113
C   -3.69314125872231     -3.54278984697859      0.00136564082345
C   -4.91451200321153     -1.42718062802730      0.00139857359209
C   -0.00000552908399     -5.65043791501335      0.00005899322272
C   -4.89302000425900      2.82518897091939     -0.00040227981744
C   2.47812647313991     -5.65357317188818     -0.00029052915548
C   -3.65679823041642      4.97295655404175     -0.00047374852278
C   -4.89299899901461     -2.82519139505969      0.00006491824035
C   -2.47812801824129     -5.65356579800621     -0.00056571680280
C   -6.13477002348955      0.68054913825639     -0.00086464346868
C   -3.65678835334731     -4.97294365097028      0.00058578382008
C   -6.13476456307132     -0.68055354348201      0.00040575295444
H   5.83528897565761      3.36927626695423      0.00396712770529
H   7.07385965258860      1.22821762089947     -0.00037744837300
H   4.60066374401555      5.51238117445323     -0.00014522814529
H   5.83528386714679     -3.36930568472863     -0.00423551337640
H   -0.00001167146422      6.73853104613662     -0.00389474766392
H   7.07386165167227     -1.22822657074368     -0.00008250934481
H   2.47331421164041      6.74068466339473      0.00017162982210
H   4.60066897122302     -5.51237575717576      0.00039007446835
H   -2.47331820069565      6.74068209160650      0.00047297644710
H   -0.00000978838621     -6.73852780445195      0.00458867820736
H   -5.83530143450167      3.36927132229595      0.00410314985360
H   2.47330840367253     -6.74068500242887      0.00027980126949
H   -4.60067436136587      5.51237839860371      0.00002010017831
H   -5.83527902699321     -3.36928859177951     -0.00451481925734
H   -2.47329986759855     -6.74067870613986     -0.00016951527498
H   -7.07385728692578      1.22822084484047     -0.00046143985387
H   -4.60067330624313     -5.51236229778631      0.00021776644566
H   -7.07385645456741     -1.22822025997701     -0.00017736581114

    units angstrom      # Angstroms are the default
    no_reorient         # Geometry fixed, default
    symmetry c1         # C1 symmetry, default
}

set {
    scf_type DF         # Density fitting, faster than exact integrals
    freeze_core True    # Freeze core electrons
    basis jun-cc-pVDZ   # Jun-cc-pVDZ basis set, recommended for sSAPT0 in https://doi.org/10.1063/1.4867135
}

energy('ssapt0')        # Compute sSAPT0 energy, includes also SAPT0
--------------------------------------------------------------------------

  //              Dimer HF             //
    Molecular point group: c1
  Charge       = 1
  Multiplicity = 1
  Basis Set: JUN-CC-PVDZ
    Blend: JUN-CC-PVDZ
  Basis Set: (JUN-CC-PVDZ AUX)
    Blend: JUN-CC-PVDZ-JKFIT
  @DF-RHF Final Energy: -2359.19680466764748
    Total Energy =                      -2359.1968046676465747
 Dipole X            :          0.0025619            0.0006313            0.0031932
 Dipole Y            :         -1.5027961            1.8864948            0.3836987
 Dipole Z            :        -27.0580081           38.5178654           11.4598573
 Magnitude           :                                                   11.4662794
  //            Monomer A HF           //
    Molecular point group: c1
  Multiplicity = 1
  Basis Set: JUN-CC-PVDZ
    Blend: JUN-CC-PVDZ
  Basis Set: (JUN-CC-PVDZ AUX)
    Blend: JUN-CC-PVDZ-JKFIT
  @DF-RHF Final Energy:  -303.29721874288975
    Total Energy =                       -303.2972187428897541
  //            Monomer B HF           //
    Molecular point group: c1

    Geometry (in Angstrom), charge = 0, multiplicity = 1:

       Center              X                  Y                   Z               Mass
    ------------   -----------------  -----------------  -----------------  -----------------
      Gh(C)           0.680066520158    -1.215933861162     6.466809585194    12.000000000000
      Gh(C)          -0.680504479842    -1.215549861162     6.464781585194    12.000000000000
      Gh(N)          -1.085635479842     0.102774138838     6.463783585194    14.003074004430
      Gh(C)           0.000107520158     0.884175138838     6.460507585194    12.000000000000
      Gh(C)          -2.477365479842     0.570753138838     6.414377585194    12.000000000000
      Gh(N)           1.085221520158     0.102774138838     6.463783585194    14.003074004430
      Gh(H)           1.385145520158    -2.033372861162     6.474637585194     1.007825032230
      Gh(H)          -1.385302479842    -2.033218861162     6.464971585194     1.007825032230
      Gh(H)          -0.000009479842     1.965264138838     6.458760585194     1.007825032230
      Gh(C)           2.478116520158     0.567872138838     6.480675585194    12.000000000000
      Gh(H)           2.490591520158     1.658125138838     6.453330585194     1.007825032230
      Gh(H)           2.967027520158     0.220696138838     7.394121585194     1.007825032230
      Gh(H)           3.001427520158     0.176400138838     5.605192585194     1.007825032230
      Gh(H)          -2.857359479842     0.490794138838     5.392306585194     1.007825032230
      Gh(H)          -3.082679479842    -0.042310861162     7.084461585194     1.007825032230
      Gh(H)          -2.518128479842     1.610701138838     6.741361585194     1.007825032230
         C            1.225311895423     0.707533799757    -0.935094787523    12.000000000000
         C            1.225323856051    -0.707543383733    -0.947425597093    12.000000000000
         C           -0.000006153932     1.414961424928    -0.947959220614    12.000000000000
         C            2.456448753949     1.418323398016    -0.932207930123    12.000000000000
         C            0.000010827279    -1.414980987797    -0.937759663289    12.000000000000
         C           -1.225300948908     0.707540884822    -0.932843267200    12.000000000000
         C            2.456437755320    -1.418327793043    -0.949670753950    12.000000000000
         C           -0.000001332978     2.836796542119    -0.950362770748    12.000000000000
         C            3.681826697470     0.709313466839    -0.949321964152    12.000000000000
         C            2.455120048865     2.834219172327    -0.949424521113    12.000000000000
         C            3.681821105219    -0.709338328591    -0.933249480134    12.000000000000
         C           -1.225313598688    -0.707532004706    -0.946352835666    12.000000000000
         C            1.226699581202     3.543464994832    -0.933065448203    12.000000000000
         C            0.000004784858    -2.836786628398    -0.932911495668    12.000000000000
         C           -2.456436032848     1.418312429123    -0.932807871354    12.000000000000
         C            2.455123417779    -2.834234517751    -0.933401388501    12.000000000000
         C           -1.226714364589     3.543464574588    -0.932962114984    12.000000000000
         C            4.914517295202     1.427168383327    -0.942841281122    12.000000000000
         C            3.693150191476     3.542790803383    -0.942791481486    12.000000000000
         C           -2.456437600068    -1.418317770001    -0.949695792075    12.000000000000
         C            1.226704841943    -3.543478731069    -0.949035578953    12.000000000000
         C           -2.455125398508     2.834212173472    -0.949418144766    12.000000000000
         C            4.914524380782    -1.427191399106    -0.939868538388    12.000000000000
         C            1.221424613699     4.970129576098    -0.939730104128    12.000000000000
         C            4.893008229321     2.825183510864    -0.941624612764    12.000000000000
         C           -1.226697008489    -3.543475486239    -0.948768374543    12.000000000000
         C           -3.681818976526     0.709320477570    -0.949309283672    12.000000000000
         C            3.693147101150    -3.542805830553    -0.939750647827    12.000000000000
         C           -1.221432251994     4.970123808701    -0.939546608756    12.000000000000
         C            6.134770972926     0.680543457943    -0.942071506573    12.000000000000
         C            3.656788880610     4.972948754405    -0.941882843704    12.000000000000
         C           -2.455126907733    -2.834219582223    -0.933645746299    12.000000000000
         C           -3.681819179061    -0.709330192631    -0.933131858555    12.000000000000
         C            4.893012617914    -2.825204594794    -0.941013460868    12.000000000000
         C           -0.000001073113     5.650442876870    -0.940777917462    12.000000000000
         C            6.134775112332    -0.680559343237    -0.940806186057    12.000000000000
         C            2.478131482856     5.653572262169    -0.940594064054    12.000000000000
         C            1.221422404738    -4.970131544095    -0.942529601151    12.000000000000
         C           -3.693162383965     3.542792465030    -0.942625974027    12.000000000000
         C           -1.221428520945    -4.970122792758    -0.942642362984    12.000000000000
         C           -4.914521807942     1.427170957833    -0.942764336115    12.000000000000
         C            3.656787019679    -4.972959715401    -0.940432343170    12.000000000000
         C           -2.478138530106     5.653569933366    -0.940309539045    12.000000000000
         C           -3.693141738564    -3.542794708141    -0.939866773983    12.000000000000
         C           -4.914512483053    -1.427185489190    -0.939833841214    12.000000000000
         C           -0.000006008926    -5.650442776176    -0.941173421584    12.000000000000
         C           -4.893020484101     2.825184109757    -0.941634694624    12.000000000000
         C            2.478125993298    -5.653578033051    -0.941522943962    12.000000000000
         C           -3.656798710258     4.972951692879    -0.941706163329    12.000000000000
         C           -4.892999478856    -2.825196256222    -0.941167496566    12.000000000000
         C           -2.478128498083    -5.653570659169    -0.941798131609    12.000000000000
         C           -6.134770503331     0.680544277094    -0.942097058275    12.000000000000
         C           -3.656788833189    -4.972948512133    -0.940646630986    12.000000000000
         C           -6.134765042913    -0.680558404644    -0.940826661852    12.000000000000
         H            5.835288495816     3.369271405792    -0.937265287101     1.007825032230
         H            7.073859172747     1.228212759737    -0.941609863179     1.007825032230
         H            4.600663264174     5.512376313291    -0.941377642952     1.007825032230
         H            5.835283387305    -3.369310545891    -0.945467928183     1.007825032230
         H           -0.000012151306     6.738526184974    -0.945127162470     1.007825032230
         H            7.073861171831    -1.228231431906    -0.941314924151     1.007825032230
         H            2.473313731799     6.740679802232    -0.941060784984     1.007825032230
         H            4.600668491381    -5.512380618338    -0.940842340338     1.007825032230
         H           -2.473318680537     6.740677230444    -0.940759438359     1.007825032230
         H           -0.000010268228    -6.738532665614    -0.936643736599     1.007825032230
         H           -5.835301914343     3.369266461134    -0.937129264953     1.007825032230
         H            2.473307923831    -6.740689863591    -0.940952613537     1.007825032230
         H           -4.600674841208     5.512373537441    -0.941212314628     1.007825032230
         H           -5.835279506835    -3.369293452942    -0.945747234064     1.007825032230
         H           -2.473300347440    -6.740683567302    -0.941401930081     1.007825032230
         H           -7.073857766768     1.228215983678    -0.941693854660     1.007825032230
         H           -4.600673786085    -5.512367158949    -0.941014648361     1.007825032230
         H           -7.073856934409    -1.228225121139    -0.941409780618     1.007825032230

  Charge       = 0
  Multiplicity = 1
  Basis Set: JUN-CC-PVDZ
    Blend: JUN-CC-PVDZ
  Basis Set: (JUN-CC-PVDZ AUX)
    Blend: JUN-CC-PVDZ-JKFIT

    Orbital Energies [Eh]
    ---------------------

    Doubly Occupied:

       1A    -11.260667     2A    -11.260225     3A    -11.260223
       4A    -11.259514     5A    -11.259513     6A    -11.259344
       7A    -11.259135     8A    -11.259057     9A    -11.259056
      10A    -11.258732    11A    -11.258728    12A    -11.258660
      13A    -11.258597    14A    -11.258592    15A    -11.258589
      16A    -11.258561    17A    -11.258554    18A    -11.258538
      19A    -11.258525    20A    -11.258520    21A    -11.258514
      22A    -11.258416    23A    -11.258412    24A    -11.258113
      25A    -11.257454    26A    -11.257393    27A    -11.257391
      28A    -11.257257    29A    -11.257257    30A    -11.257172
      31A    -11.256550    32A    -11.256479    33A    -11.256478
      34A    -11.256369    35A    -11.256369    36A    -11.256321
      37A    -11.252396    38A    -11.252396    39A    -11.252394
      40A    -11.252393    41A    -11.252391    42A    -11.252389
      43A    -11.251530    44A    -11.251527    45A    -11.251526
      46A    -11.251521    47A    -11.251520    48A    -11.251516
      49A    -11.250958    50A    -11.250957    51A    -11.250956
      52A    -11.250954    53A    -11.250952    54A    -11.250951
      55A     -1.244289    56A     -1.220010    57A     -1.220009
      58A     -1.189719    59A     -1.189711    60A     -1.181160
      61A     -1.157718    62A     -1.149149    63A     -1.135699
      64A     -1.135692    65A     -1.113351    66A     -1.113347
      67A     -1.082623    68A     -1.082616    69A     -1.078806
      70A     -1.066135    71A     -1.066130    72A     -1.039573
      73A     -1.024482    74A     -1.021987    75A     -1.021943
      76A     -1.017883    77A     -1.012945    78A     -0.987214
      79A     -0.987168    80A     -0.962044    81A     -0.961994
      82A     -0.894463    83A     -0.894436    84A     -0.888158
      85A     -0.886405    86A     -0.886347    87A     -0.881594
      88A     -0.881546    89A     -0.862068    90A     -0.837548
      91A     -0.818384    92A     -0.816825    93A     -0.812333
      94A     -0.812324    95A     -0.794850    96A     -0.794839
      97A     -0.746832    98A     -0.745059    99A     -0.733625
     100A     -0.733617   101A     -0.732348   102A     -0.732324
     103A     -0.716694   104A     -0.699145   105A     -0.699133
     106A     -0.693770   107A     -0.693754   108A     -0.661395
     109A     -0.653327   110A     -0.651372   111A     -0.650413
     112A     -0.650407   113A     -0.639524   114A     -0.639521
     115A     -0.629907   116A     -0.627718   117A     -0.627703
     118A     -0.606454   119A     -0.605931   120A     -0.601859
     121A     -0.599914   122A     -0.599882   123A     -0.593817
     124A     -0.591447   125A     -0.591435   126A     -0.585416
     127A     -0.576417   128A     -0.576412   129A     -0.567474
     130A     -0.567459   131A     -0.566159   132A     -0.566140
     133A     -0.558934   134A     -0.555018   135A     -0.555012
     136A     -0.538755   137A     -0.538753   138A     -0.538286
     139A     -0.538280   140A     -0.529890   141A     -0.528204
     142A     -0.523046   143A     -0.523039   144A     -0.500663
     145A     -0.495716   146A     -0.493402   147A     -0.487944
     148A     -0.485260   149A     -0.481941   150A     -0.481933
     151A     -0.470434   152A     -0.470418   153A     -0.451244
     154A     -0.451166   155A     -0.439186   156A     -0.439176
     157A     -0.404866   158A     -0.404843   159A     -0.403487
     160A     -0.375540   161A     -0.375537   162A     -0.349244
     163A     -0.337711   164A     -0.336679   165A     -0.336621
     166A     -0.311220   167A     -0.298208   168A     -0.284476
     169A     -0.284423   170A     -0.225045   171A     -0.224979

  @DF-RHF Final Energy: -2055.89171571258112

   => Energetics <=

    Nuclear Repulsion Energy =           6452.5568002797772351
    One-Electron Energy =              -15636.4281883836138149
    Two-Electron Energy =                7127.9796723912550078
    Total Energy =                      -2055.8917157125815720
 Dipole X            :          0.0000964           -0.0000085            0.0000879
 Dipole Y            :          0.0028644           -0.0028843           -0.0000199
 Dipole Z            :        608.3051777         -608.3070906           -0.0019130
 Magnitude           :                                                    0.0019151

    SAPT Results
  --------------------------------------------------------------------------------------------------------
    Electrostatics                 -6.28718816 [mEh]      -3.94527014 [kcal/mol]     -16.50701025 [kJ/mol]
      Elst10,r                     -6.28718816 [mEh]      -3.94527014 [kcal/mol]     -16.50701025 [kJ/mol]

    Exchange                       -0.00021302 [mEh]      -0.00013367 [kcal/mol]      -0.00055928 [kJ/mol]
      Exch10                       -0.00021302 [mEh]      -0.00013367 [kcal/mol]      -0.00055928 [kJ/mol]
      Exch10(S^2)                  -0.00021302 [mEh]      -0.00013367 [kcal/mol]      -0.00055928 [kJ/mol]

    Induction                      -1.58281100 [mEh]      -0.99322889 [kcal/mol]      -4.15566970 [kJ/mol]
      Ind20,r                      -1.56421402 [mEh]      -0.98155912 [kcal/mol]      -4.10684334 [kJ/mol]
      Exch-Ind20,r                  0.00017685 [mEh]       0.00011098 [kcal/mol]       0.00046432 [kJ/mol]
      delta HF,r (2)               -0.01877383 [mEh]      -0.01178075 [kcal/mol]      -0.04929068 [kJ/mol]

    Dispersion                     -0.92157840 [mEh]      -0.57829918 [kcal/mol]      -2.41960376 [kJ/mol]
      Disp20                       -0.92163767 [mEh]      -0.57833637 [kcal/mol]      -2.41975938 [kJ/mol]
      Exch-Disp20                   0.00005927 [mEh]       0.00003719 [kcal/mol]       0.00015562 [kJ/mol]
      Disp20 (SS)                  -0.46081884 [mEh]      -0.28916819 [kcal/mol]      -1.20987969 [kJ/mol]
      Disp20 (OS)                  -0.46081884 [mEh]      -0.28916819 [kcal/mol]      -1.20987969 [kJ/mol]
      Exch-Disp20 (SS)              0.00004472 [mEh]       0.00002806 [kcal/mol]       0.00011740 [kJ/mol]
      Exch-Disp20 (OS)              0.00001456 [mEh]       0.00000913 [kcal/mol]       0.00003822 [kJ/mol]

  Total HF                         -7.87021218 [mEh]      -4.93863270 [kcal/mol]     -20.66323922 [kJ/mol]
  Total SAPT0                      -8.79179058 [mEh]      -5.51693188 [kcal/mol]     -23.08284298 [kJ/mol]

  Special recipe for scaled SAPT0 (see Manual):
    Electrostatics sSAPT0          -6.28718816 [mEh]      -3.94527014 [kcal/mol]     -16.50701025 [kJ/mol]
    Exchange sSAPT0                -0.00021302 [mEh]      -0.00013367 [kcal/mol]      -0.00055928 [kJ/mol]
    Induction sSAPT0               -1.58281100 [mEh]      -0.99322889 [kcal/mol]      -4.15566970 [kJ/mol]
    Dispersion sSAPT0              -0.92157840 [mEh]      -0.57829918 [kcal/mol]      -2.41960376 [kJ/mol]
  Total sSAPT0                     -8.79179058 [mEh]      -5.51693188 [kcal/mol]     -23.08284298 [kJ/mol]
  --------------------------------------------------------------------------------------------------------

*** Psi4 exiting successfully. Buy a developer a beer!
