                               Psi4 1.9 release

  ==> Input File <==

--------------------------------------------------------------------------
memory 47 GB # how much memory is available ! Depends on the nodes/cores !

molecule dimer {
# monomer A
+1 1    # Charge and multiplicity
C  0.680067 1.417258 -8.415929
C -0.680504 1.419286 -8.415545
N -1.085635 1.420284 -7.097221
C  0.000108 1.423560 -6.315820
C -2.477365 1.469690 -6.629242
N  1.085222 1.420284 -7.097221
H  1.385146 1.409430 -9.233368
H -1.385302 1.419096 -9.233214
H -0.000009 1.425307 -5.234731
C  2.478117 1.403392 -6.632123
H  2.490592 1.430737 -5.541870
H  2.967028 0.489946 -6.979299
H  3.001428 2.278875 -7.023595
H -2.857359 2.491761 -6.709201
H -3.082679 0.799606 -7.242306
H -2.518128 1.142706 -5.589294
--
# monomer B
0 1     # Charge and multiplicity
C   -3.66844126402057      7.80375217008252      0.00190004133558
C   -4.84759871934653      7.13124183134024     -0.00046653359696
C   -4.89495929917518      5.69633040353158     -0.00103944469517
C   -3.65374067877320      4.98073034095895      0.00662099703436
C   -2.40942512149445      7.11398103667468      0.00209438359570
C   -2.42547734410473      5.68112195090346     -0.00491050527438
C   -1.19474401643570      7.78614419430947      0.00356656413763
C   0.03795902893699      7.09942164575698      0.00139585983271
C   0.03033258741920      5.66948955970466     -0.00408752508301
C   -1.20098450790502      4.96927034791531      0.00488220885047
C   1.27795782581485      7.77285944319479      0.00277170839332
C   2.48535808472416      7.08769688523756      0.00049722048857
C   2.48612868491717      5.65477081024076     -0.00644052849921
C   1.25408291964399      4.95607811366431      0.00518741308898
C   3.75171459140595      7.76391215098033      0.00062407186893
C   4.92356605618520      7.07878077698995     -0.00143240883900
C   4.95560727132542      5.64344746336949     -0.00159282164606
C   3.70680153420475      4.94121020833308      0.00349873852374
H   -3.65852113775815      8.89082741913536      0.00358502958574
H   -1.18921332975660      8.87412108735996      0.00753844057883
H   1.28429423888630      8.86083343548850      0.00693053253426
H   3.75354208679975      8.85103527897216      0.00214659618464
H   5.86995870320703      7.61379483465560     -0.00235777588134
H   -5.78823170750226      7.67630221293400     -0.00202638095293
C   -6.09197395869619      4.99326001364347     -0.00291168518608
C   -6.12866148031747      3.58258016879823     -0.00171050815740
C   -3.66457974004527      3.56418217974434     -0.00463560277484
C   -4.89429820469869      2.86108077590057      0.00453338221034
C   -2.43733499489796      2.84761165708481      0.00719617576166
C   -1.20922785759670      3.54788693497833     -0.00648285103018
C   1.24714157216223      3.53468075142962     -0.00729145743546
C   0.01517603956900      2.83311183930540      0.00439272578912
C   2.46764517244071      2.82128997725533      0.00449278391269
C   3.70254947457969      3.52466015442405     -0.00899517692985
C   6.14498038638375      4.92757236613191     -0.00282626685777
C   6.16658835886151      3.51658447594213     -0.00065971342101
C   4.92460995845939      2.80840792535402      0.00587903281610
H   7.08990550964105      5.46688776622306     -0.00658814770723
H   -7.03104175110130      5.54268795285765     -0.00714490013730
C   -7.33969804112295      2.85841153457957     -0.00333767559888
C   -7.36488195805880      1.47032337158330     -0.00157213747140
C   -4.90350460894690      1.44442681216000     -0.00628840166334
C   -6.13225715261081      0.73993935705394      0.00600164231964
C   -3.67687480051673      0.72669714267312      0.00433931473643
C   -2.44565658606518      1.42964113326212     -0.00597039546461
C   -1.22360068130162      0.71532450163492      0.00545886906656
C   0.00763786931376      1.41738314923765      0.00392452278437
C   1.23121980774686      0.70211669058719     -0.01490206287210
C   2.46082110053113      1.40329203612573      0.00460244601878
C   3.68443025419614      0.68719842821222      0.00377365974158
C   4.91870890153864      1.39173456118907     -0.00862816189375
C   7.36980207796101      2.77948220318441     -0.00242013321349
C   7.38016266612146      1.39121750785509     -0.00087345036788
C   6.13979953912259      0.67411862320065      0.00545489144369
H   -8.27919079934664      3.40711804112415     -0.00763522772059
H   8.31511347147953      3.31811809662368     -0.00663070901292
C   -8.59175593758115      0.72483255304480     -0.00123170985383
C   -8.59902460370342     -0.63263980622873      0.00089141472904
C   -6.13981313911873     -0.67413663715361     -0.00609792660607
C   -7.38018411213749     -1.39126618958160      0.00131813493501
C   -4.91868448025621     -1.39175501803000      0.00624257154343
C   -3.68443829568458     -0.68723731573599     -0.00478966852105
C   -2.46081704024768     -1.40334517882457      0.00575341766833
C   -1.23116201232071     -0.70217386488055     -0.00636696112346
C   -0.00756962538737     -1.41741884941102      0.00108956317991
C   1.22364771588843     -0.71527537726392      0.01109518512883
C   2.44567064933149     -1.42964328900682     -0.00065482763106
C   3.67686670284649     -0.72670743155550     -0.00479541202602
C   6.13224884641929     -0.73997883984993     -0.00632338623858
C   4.90351914550401     -1.44445752054090      0.00751768830159
C   8.59901484869081      0.63260386666793     -0.00101133422380
C   8.59174548810050     -0.72485086719319      0.00072504603735
C   7.36486276438985     -1.47033266560598      0.00049486934466
H   -9.52830597181814      1.27684744919284     -0.00270163681798
H   9.54141097460619      1.17457248844457     -0.00206336648518
C   -7.36983790976868     -2.77954514593389      0.00312634335708
C   -4.92459910905015     -2.80843725734101     -0.00460528907921
C   -6.16662249566744     -3.51665219282533      0.00169655107992
C   -3.70251035970491     -3.52468154912026      0.00571878010666
C   -2.46764698511392     -2.82132596280400     -0.00632585824990
C   -0.01513347410770     -2.83314164539971     -0.00604426974092
C   -1.24712184122656     -3.53473217556300      0.00551968366725
C   1.20924506964357     -3.54791467864352      0.00805871345849
C   2.43733602215464     -2.84764173817541     -0.00608104485234
C   4.89430234377080     -2.86112296828604     -0.00526030478103
C   3.66461525504104     -3.56421984553201      0.00761911515957
C   6.12863901474565     -3.58258405771778      0.00096495711699
C   7.33967266469532     -2.85841330737039      0.00248018319869
H   -9.54144911125902     -1.17456346666430      0.00226083090216
H   9.52826186807155     -1.27691907390448      0.00197485379837
H   -8.31516504384864     -3.31814985321231      0.00729857188773
H   8.27915514249207     -3.40714078989363      0.00681973918158
C   -6.14499418870218     -4.92764727278338      0.00302254913999
C   -3.70678334799751     -4.94126171411716     -0.00679841894792
C   -4.95559005800169     -5.64349397349412      0.00116871569699
C   -2.48612132622665     -5.65478557440947      0.00614125209662
C   -1.25405833548005     -4.95612205000132     -0.00503435388927
C   1.20101257386816     -4.96928038819302     -0.00385322963129
C   -0.03033667441341     -5.66952030313900      0.00398997003238
C   3.65375010132847     -4.98074377541453     -0.00309522988330
C   2.42549269587528     -5.68117463552727      0.00628170066869
C   6.09196561781097     -4.99325796338655      0.00325918379042
C   4.89497644461045     -5.69634842095790      0.00202298796027
H   -7.08989238804069     -5.46699984223871      0.00742531082125
H   7.03105520920009     -5.54265853633254      0.00683896355417
C   -4.92354532219813     -7.07882109967734      0.00061394679214
C   -2.48534208823777     -7.08772807792913     -0.00189594564379
C   -3.75168589177895     -7.76394715763627     -0.00170126671874
C   -0.03794895698805     -7.09946487446944     -0.00168022049625
C   -1.27795610040136     -7.77290438466689     -0.00366491325785
C   2.40944432072629     -7.11402201200282     -0.00081701968533
C   1.19474993715296     -7.78618536556242     -0.00296931056689
C   4.84762105249800     -7.13126211057943      0.00168979497423
C   3.66847160587561     -7.80378799294376     -0.00065863938960
H   -5.86994035041618     -7.61383059804164      0.00215798365757
H   5.78824962538815     -7.67633218931421      0.00281691445618
H   -3.75352693944918     -8.85107156923607     -0.00353718114765
H   -1.28430440589466     -8.86087539249706     -0.00809229711623
H   1.18922157469537     -8.87416062058945     -0.00706194725726
H   3.65854661482387     -8.89086063405326     -0.00231318081200

    units angstrom      # Angstroms are the default
    no_reorient         # Geometry fixed, default
    symmetry c1         # C1 symmetry, default
}

set {
    scf_type DF         # Density fitting, faster than exact integrals
    freeze_core True    # Freeze core electrons
    basis jun-cc-pVDZ   # Jun-cc-pVDZ basis set, recommended for sSAPT0 in https://doi.org/10.1063/1.4867135
}

energy('ssapt0')        # Compute sSAPT0 energy, includes also SAPT0
--------------------------------------------------------------------------

  //              Dimer HF             //
    Molecular point group: c1
  Charge       = 1
  Multiplicity = 1
  Basis Set: JUN-CC-PVDZ
    Blend: JUN-CC-PVDZ
  Basis Set: (JUN-CC-PVDZ AUX)
    Blend: JUN-CC-PVDZ-JKFIT
  @DF-RHF Final Energy: -3953.64693162931371
    Total Energy =                      -3953.6469316293150769
 Dipole X            :         -0.0024856            0.0004804           -0.0020052
 Dipole Y            :         -6.8564957            8.7122315            1.8557358
 Dipole Z            :         30.7969282          -41.8408439          -11.0439157
 Magnitude           :                                                   11.1987425
  //            Monomer A HF           //
    Molecular point group: c1
  Multiplicity = 1
  Basis Set: JUN-CC-PVDZ
    Blend: JUN-CC-PVDZ
  Basis Set: (JUN-CC-PVDZ AUX)
    Blend: JUN-CC-PVDZ-JKFIT
  @DF-RHF Final Energy:  -303.29725287984286
    Total Energy =                       -303.2972528798428584
  //            Monomer B HF           //
    Molecular point group: c1

    Geometry (in Angstrom), charge = 0, multiplicity = 1:

       Center              X                  Y                   Z               Mass
    ------------   -----------------  -----------------  -----------------  -----------------
      Gh(C)           0.680062820275     1.308604348936    -7.866990393580    12.000000000000
      Gh(C)          -0.680508179725     1.310632348936    -7.866606393580    12.000000000000
      Gh(N)          -1.085639179725     1.311630348936    -6.548282393580    14.003074004430
      Gh(C)           0.000103820275     1.314906348936    -5.766881393580    12.000000000000
      Gh(C)          -2.477369179725     1.361036348936    -6.080303393580    12.000000000000
      Gh(N)           1.085217820275     1.311630348936    -6.548282393580    14.003074004430
      Gh(H)           1.385141820275     1.300776348936    -8.684429393580     1.007825032230
      Gh(H)          -1.385306179725     1.310442348936    -8.684275393580     1.007825032230
      Gh(H)          -0.000013179725     1.316653348936    -4.685792393580     1.007825032230
      Gh(C)           2.478112820275     1.294738348936    -6.083184393580    12.000000000000
      Gh(H)           2.490587820275     1.322083348936    -4.992931393580     1.007825032230
      Gh(H)           2.967023820275     0.381292348936    -6.430360393580     1.007825032230
      Gh(H)           3.001423820275     2.170221348936    -6.474656393580     1.007825032230
      Gh(H)          -2.857363179725     2.383107348936    -6.160262393580     1.007825032230
      Gh(H)          -3.082683179725     0.690952348936    -6.693367393580     1.007825032230
      Gh(H)          -2.518132179725     1.034052348936    -5.040355393580     1.007825032230
         C           -3.668445443746     7.695098519018     0.550838647756    12.000000000000
         C           -4.847602899072     7.022588180276     0.548472072823    12.000000000000
         C           -4.894963478901     5.587676752467     0.547899161725    12.000000000000
         C           -3.653744858499     4.872076689895     0.555559603454    12.000000000000
         C           -2.409429301220     7.005327385610     0.551032990016    12.000000000000
         C           -2.425481523830     5.572468299839     0.544028101146    12.000000000000
         C           -1.194748196161     7.677490543245     0.552505170558    12.000000000000
         C            0.037954849212     6.990767994693     0.550334466253    12.000000000000
         C            0.030328407694     5.560835908640     0.544851081337    12.000000000000
         C           -1.200988687630     4.860616696851     0.553820815271    12.000000000000
         C            1.277953646089     7.664205792130     0.551710314813    12.000000000000
         C            2.485353904999     6.979043234173     0.549435826909    12.000000000000
         C            2.486124505192     5.546117159176     0.542498077921    12.000000000000
         C            1.254078739919     4.847424462600     0.554126019509    12.000000000000
         C            3.751710411681     7.655258499916     0.549562678289    12.000000000000
         C            4.923561876460     6.970127125926     0.547506197581    12.000000000000
         C            4.955603091600     5.534793812305     0.547345784774    12.000000000000
         C            3.706797354479     4.832556557269     0.552437344944    12.000000000000
         H           -3.658525317484     8.782173768071     0.552523636006     1.007825032230
         H           -1.189217509482     8.765467436296     0.556477046999     1.007825032230
         H            1.284290059161     8.752179784424     0.555869138954     1.007825032230
         H            3.753537907074     8.742381627908     0.551085202605     1.007825032230
         H            5.869954523482     7.505141183591     0.546580830539     1.007825032230
         H           -5.788235887228     7.567648561870     0.546912225467     1.007825032230
         C           -6.091978138422     4.884606362579     0.546026921234    12.000000000000
         C           -6.128665660043     3.473926517734     0.547228098263    12.000000000000
         C           -3.664583919771     3.455528528680     0.544303003645    12.000000000000
         C           -4.894302384424     2.752427124836     0.553471988630    12.000000000000
         C           -2.437339174623     2.738958006020     0.556134782182    12.000000000000
         C           -1.209232037322     3.439233283914     0.542455755390    12.000000000000
         C            1.247137392437     3.426027100365     0.541647148985    12.000000000000
         C            0.015171859844     2.724458188241     0.553331332209    12.000000000000
         C            2.467640992715     2.712636326191     0.553431390333    12.000000000000
         C            3.702545294854     3.416006503360     0.539943429490    12.000000000000
         C            6.144976206658     4.818918715067     0.546112339562    12.000000000000
         C            6.166584179136     3.407930824878     0.548278892999    12.000000000000
         C            4.924605778734     2.699754274290     0.554817639236    12.000000000000
         H            7.089901329916     5.358234115159     0.542350458713     1.007825032230
         H           -7.031045930827     5.434034301793     0.541793706283     1.007825032230
         C           -7.339702220848     2.749757883515     0.545600930821    12.000000000000
         C           -7.364886137784     1.361669720519     0.547366468949    12.000000000000
         C           -4.903508788672     1.335773161096     0.542650204757    12.000000000000
         C           -6.132261332336     0.631285705989     0.554940248740    12.000000000000
         C           -3.676878980242     0.618043491609     0.553277921157    12.000000000000
         C           -2.445660765791     1.320987482198     0.542968210955    12.000000000000
         C           -1.223604861027     0.606670850570     0.554397475487    12.000000000000
         C            0.007633689588     1.308729498173     0.552863129204    12.000000000000
         C            1.231215628021     0.593463039523     0.534036543548    12.000000000000
         C            2.460816920806     1.294638385061     0.553541052439    12.000000000000
         C            3.684426074471     0.578544777148     0.552712266162    12.000000000000
         C            4.918704721813     1.283080910125     0.540310444526    12.000000000000
         C            7.369797898236     2.670828552120     0.546518473207    12.000000000000
         C            7.380158486396     1.282563856791     0.548065156052    12.000000000000
         C            6.139795359397     0.565464972136     0.554393497864    12.000000000000
         H           -8.279194979072     3.298464390060     0.541303378699     1.007825032230
         H            8.315109291754     3.209464445559     0.542307897407     1.007825032230
         C           -8.591760117307     0.616178901980     0.547706896566    12.000000000000
         C           -8.599028783429    -0.741293457293     0.549830021149    12.000000000000
         C           -6.139817318844    -0.782790288218     0.542840679814    12.000000000000
         C           -7.380188291863    -1.499919840646     0.550256741355    12.000000000000
         C           -4.918688659982    -1.500408669094     0.555181177964    12.000000000000
         C           -3.684442475410    -0.795890966800     0.544148937899    12.000000000000
         C           -2.460821219973    -1.511998829889     0.554692024088    12.000000000000
         C           -1.231166192046    -0.810827515945     0.542571645297    12.000000000000
         C           -0.007573805113    -1.526072500475     0.550028169600    12.000000000000
         C            1.223643536163    -0.823929028328     0.560033791549    12.000000000000
         C            2.445666469606    -1.538296940071     0.548283778789    12.000000000000
         C            3.676862523121    -0.835361082620     0.544143194394    12.000000000000
         C            6.132244666694    -0.848632490914     0.542615220181    12.000000000000
         C            4.903514965779    -1.553111171605     0.556456294722    12.000000000000
         C            8.599010668965     0.523950215603     0.547927272196    12.000000000000
         C            8.591741308375    -0.833504518258     0.549663652457    12.000000000000
         C            7.364858584664    -1.578986316670     0.549433475765    12.000000000000
         H           -9.528310151544     1.168193798128     0.546236969602     1.007825032230
         H            9.541406794881     1.065918837380     0.546875239935     1.007825032230
         C           -7.369842089494    -2.888198796998     0.552064949777    12.000000000000
         C           -4.924603288776    -2.917090908405     0.544333317341    12.000000000000
         C           -6.166626675393    -3.625305843890     0.550635157500    12.000000000000
         C           -3.702514539430    -3.633335200185     0.554657386527    12.000000000000
         C           -2.467651164839    -2.929979613868     0.542612748170    12.000000000000
         C           -0.015137653833    -2.941795296464     0.542894336679    12.000000000000
         C           -1.247126020952    -3.643385826627     0.554458290087    12.000000000000
         C            1.209240889918    -3.656568329708     0.556997319879    12.000000000000
         C            2.437331842429    -2.956295389240     0.542857561568    12.000000000000
         C            4.894298164045    -2.969776619350     0.543678301639    12.000000000000
         C            3.664611075316    -3.672873496596     0.556557721580    12.000000000000
         C            6.128634835020    -3.691237708782     0.549903563537    12.000000000000
         C            7.339668484970    -2.967066958435     0.551418789619    12.000000000000
         H           -9.541453290984    -1.283217117729     0.551199437322     1.007825032230
         H            9.528257688346    -1.385572724969     0.550913460218     1.007825032230
         H           -8.315169223574    -3.426803504277     0.556237178308     1.007825032230
         H            8.279150962767    -3.515794440958     0.555758345602     1.007825032230
         C           -6.144998368428    -5.036300923848     0.551961155560    12.000000000000
         C           -3.706787527723    -5.049915365182     0.542140187472    12.000000000000
         C           -4.955594237727    -5.752147624559     0.550107322117    12.000000000000
         C           -2.486125505952    -5.763439225474     0.555079858517    12.000000000000
         C           -1.254062515205    -5.064775701066     0.543904252531    12.000000000000
         C            1.201008394143    -5.077934039257     0.545085376789    12.000000000000
         C           -0.030340854139    -5.778173954203     0.552928576452    12.000000000000
         C            3.653745921603    -5.089397426479     0.545843376537    12.000000000000
         C            2.425488516150    -5.789828286592     0.555220307089    12.000000000000
         C            6.091961438086    -5.101911614451     0.552197790210    12.000000000000
         C            4.894972264885    -5.805002072022     0.550961594380    12.000000000000
         H           -7.089896567766    -5.575653493303     0.556363917241     1.007825032230
         H            7.031051029475    -5.651312187397     0.555777569974     1.007825032230
         C           -4.923549501924    -7.187474750742     0.549552553212    12.000000000000
         C           -2.485346267963    -7.196381728994     0.547042660776    12.000000000000
         C           -3.751690071504    -7.872600808701     0.547237339701    12.000000000000
         C           -0.037953136713    -7.208118525534     0.547258385924    12.000000000000
         C           -1.277960280127    -7.881558035731     0.545273693162    12.000000000000
         C            2.409440141001    -7.222675663067     0.548121586735    12.000000000000
         C            1.194745757428    -7.894839016627     0.545969295853    12.000000000000
         C            4.847616872773    -7.239915761644     0.550628401394    12.000000000000
         C            3.668467426150    -7.912441644008     0.548279967030    12.000000000000
         H           -5.869944530142    -7.722484249106     0.551096590078     1.007825032230
         H            5.788245445663    -7.784985840379     0.551755520876     1.007825032230
         H           -3.753531119175    -8.959725220301     0.545401425272     1.007825032230
         H           -1.284308585620    -8.969529043562     0.540846309304     1.007825032230
         H            1.189217394970    -8.982814271654     0.541876659163     1.007825032230
         H            3.658542435098    -8.999514285118     0.546625425608     1.007825032230

  Charge       = 0
  Multiplicity = 1
  Basis Set: JUN-CC-PVDZ
    Blend: JUN-CC-PVDZ
  Basis Set: (JUN-CC-PVDZ AUX)
    Blend: JUN-CC-PVDZ-JKFIT

    Orbital Energies [Eh]
    ---------------------

    Doubly Occupied:

       1A    -11.264038     2A    -11.263724     3A    -11.263721
       4A    -11.263380     5A    -11.263377     6A    -11.263343
       7A    -11.263185     8A    -11.263159     9A    -11.263157
      10A    -11.262999    11A    -11.262841    12A    -11.262834
      13A    -11.262358    14A    -11.262353    15A    -11.262281
      16A    -11.262280    17A    -11.262229    18A    -11.262195
      19A    -11.262150    20A    -11.262112    21A    -11.262110
      22A    -11.261956    23A    -11.261952    24A    -11.261834
      25A    -11.261820    26A    -11.261804    27A    -11.261801
      28A    -11.261754    29A    -11.261746    30A    -11.261673
      31A    -11.261646    32A    -11.261643    33A    -11.261617
      34A    -11.261616    35A    -11.261594    36A    -11.261547
      37A    -11.261410    38A    -11.261399    39A    -11.261392
      40A    -11.261385    41A    -11.261380    42A    -11.261372
      43A    -11.261367    44A    -11.261352    45A    -11.261348
      46A    -11.261326    47A    -11.261321    48A    -11.261316
      49A    -11.261162    50A    -11.261130    51A    -11.261127
      52A    -11.261047    53A    -11.261045    54A    -11.260975
      55A    -11.260010    56A    -11.259995    57A    -11.259993
      58A    -11.259964    59A    -11.259962    60A    -11.259945
      61A    -11.259387    62A    -11.259360    63A    -11.259359
      64A    -11.259306    65A    -11.259304    66A    -11.259275
      67A    -11.259013    68A    -11.258995    69A    -11.258993
      70A    -11.258966    71A    -11.258964    72A    -11.258951
      73A    -11.254586    74A    -11.254585    75A    -11.254583
      76A    -11.254582    77A    -11.254575    78A    -11.254573
      79A    -11.253736    80A    -11.253733    81A    -11.253731
      82A    -11.253728    83A    -11.253728    84A    -11.253720
      85A    -11.253651    86A    -11.253648    87A    -11.253646
      88A    -11.253644    89A    -11.253644    90A    -11.253635
      91A    -11.253114    92A    -11.253113    93A    -11.253111
      94A    -11.253110    95A    -11.253102    96A    -11.253101
      97A     -1.254119    98A     -1.239130    99A     -1.239130
     100A     -1.220575   101A     -1.220571   102A     -1.215597
     103A     -1.201139   104A     -1.195707   105A     -1.188288
     106A     -1.188286   107A     -1.173858   108A     -1.173855
     109A     -1.155762   110A     -1.155759   111A     -1.152866
     112A     -1.144812   113A     -1.144809   114A     -1.128687
     115A     -1.114845   116A     -1.113254   117A     -1.112628
     118A     -1.112614   119A     -1.111703   120A     -1.088549
     121A     -1.088533   122A     -1.077050   123A     -1.077049
     124A     -1.067741   125A     -1.067711   126A     -1.065110
     127A     -1.046909   128A     -1.046901   129A     -1.040596
     130A     -1.038823   131A     -1.038822   132A     -1.025378
     133A     -1.021547   134A     -1.021496   135A     -1.007281
     136A     -1.006923   137A     -1.003900   138A     -1.000621
     139A     -1.000573   140A     -0.991158   141A     -0.971110
     142A     -0.971062   143A     -0.955981   144A     -0.955926
     145A     -0.905746   146A     -0.905705   147A     -0.905631
     148A     -0.905590   149A     -0.904501   150A     -0.892517
     151A     -0.892458   152A     -0.890503   153A     -0.890446
     154A     -0.889580   155A     -0.872311   156A     -0.869128
     157A     -0.851639   158A     -0.847999   159A     -0.847978
     160A     -0.845735   161A     -0.843141   162A     -0.834673
     163A     -0.834660   164A     -0.828204   165A     -0.828200
     166A     -0.784662   167A     -0.784651   168A     -0.783788
     169A     -0.783762   170A     -0.782407   171A     -0.782387
     172A     -0.782169   173A     -0.767097   174A     -0.760940
     175A     -0.750716   176A     -0.733577   177A     -0.727180
     178A     -0.727165   179A     -0.725203   180A     -0.724646
     181A     -0.724628   182A     -0.718643   183A     -0.713907
     184A     -0.713901   185A     -0.699682   186A     -0.699670
     187A     -0.686276   188A     -0.686050   189A     -0.686047
     190A     -0.682272   191A     -0.682261   192A     -0.678903
     193A     -0.653735   194A     -0.650983   195A     -0.650953
     196A     -0.649953   197A     -0.649938   198A     -0.649658
     199A     -0.641072   200A     -0.641045   201A     -0.640182
     202A     -0.639247   203A     -0.636147   204A     -0.636121
     205A     -0.629250   206A     -0.617696   207A     -0.615392
     208A     -0.615372   209A     -0.608902   210A     -0.608896
     211A     -0.599179   212A     -0.599145   213A     -0.598858
     214A     -0.598730   215A     -0.598705   216A     -0.598182
     217A     -0.595159   218A     -0.595146   219A     -0.594829
     220A     -0.594384   221A     -0.592075   222A     -0.592071
     223A     -0.587540   224A     -0.577868   225A     -0.577858
     226A     -0.575730   227A     -0.575725   228A     -0.573477
     229A     -0.569574   230A     -0.568280   231A     -0.568257
     232A     -0.566865   233A     -0.566855   234A     -0.560988
     235A     -0.558841   236A     -0.558822   237A     -0.558504
     238A     -0.554476   239A     -0.550622   240A     -0.547546
     241A     -0.544331   242A     -0.535032   243A     -0.535000
     244A     -0.533640   245A     -0.533618   246A     -0.528169
     247A     -0.528153   248A     -0.527938   249A     -0.517300
     250A     -0.517266   251A     -0.515416   252A     -0.515410
     253A     -0.509731   254A     -0.509715   255A     -0.498124
     256A     -0.496556   257A     -0.496528   258A     -0.493834
     259A     -0.493825   260A     -0.489469   261A     -0.481539
     262A     -0.477478   263A     -0.477476   264A     -0.474090
     265A     -0.469556   266A     -0.466634   267A     -0.466630
     268A     -0.458867   269A     -0.446839   270A     -0.446779
     271A     -0.441089   272A     -0.440816   273A     -0.440791
     274A     -0.434747   275A     -0.433963   276A     -0.407437
     277A     -0.407414   278A     -0.386474   279A     -0.386426
     280A     -0.385788   281A     -0.385787   282A     -0.383817
     283A     -0.354389   284A     -0.354372   285A     -0.350726
     286A     -0.338154   287A     -0.335654   288A     -0.335587
     289A     -0.332770   290A     -0.332764   291A     -0.307151
     292A     -0.302012   293A     -0.301952   294A     -0.300902
     295A     -0.286231   296A     -0.256519   297A     -0.253564
     298A     -0.253513   299A     -0.204323   300A     -0.204236

  @DF-RHF Final Energy: -3650.33793410943235

   => Energetics <=

    Nuclear Repulsion Energy =          15611.4211649754306563
    One-Electron Energy =              -36072.0867542696214514
    Two-Electron Energy =               16810.3276551847593510
    Total Energy =                      -3650.3379341094332631
 Dipole X            :         -0.0009209            0.0002112           -0.0007097
 Dipole Y            :        123.2135662         -123.2131634            0.0004028
 Dipole Z            :       -622.4038520          622.4095674            0.0057154
 Magnitude           :                                                    0.0057733

    SAPT Results
  --------------------------------------------------------------------------------------------------------
    Electrostatics                 -8.31491228 [mEh]      -5.21768623 [kcal/mol]     -21.83079919 [kJ/mol]
      Elst10,r                     -8.31491228 [mEh]      -5.21768623 [kcal/mol]     -21.83079919 [kJ/mol]

    Exchange                        0.00008154 [mEh]       0.00005116 [kcal/mol]       0.00021407 [kJ/mol]
      Exch10                        0.00008154 [mEh]       0.00005116 [kcal/mol]       0.00021407 [kJ/mol]
      Exch10(S^2)                   0.00008154 [mEh]       0.00005116 [kcal/mol]       0.00021407 [kJ/mol]

    Induction                      -3.42980929 [mEh]      -2.15223782 [kcal/mol]      -9.00496306 [kJ/mol]
      Ind20,r                      -3.36580970 [mEh]      -2.11207747 [kcal/mol]      -8.83693215 [kJ/mol]
      Exch-Ind20,r                  0.00071544 [mEh]       0.00044894 [kcal/mol]       0.00187838 [kJ/mol]
      delta HF,r (2)               -0.06471503 [mEh]      -0.04060929 [kcal/mol]      -0.16990929 [kJ/mol]

    Dispersion                     -1.61655782 [mEh]      -1.01440534 [kcal/mol]      -4.24427196 [kJ/mol]
      Disp20                       -1.61678530 [mEh]      -1.01454809 [kcal/mol]      -4.24486921 [kJ/mol]
      Exch-Disp20                   0.00022748 [mEh]       0.00014275 [kcal/mol]       0.00059725 [kJ/mol]
      Disp20 (SS)                  -0.80839265 [mEh]      -0.50727405 [kcal/mol]      -2.12243461 [kJ/mol]
      Disp20 (OS)                  -0.80839265 [mEh]      -0.50727405 [kcal/mol]      -2.12243461 [kJ/mol]
      Exch-Disp20 (SS)              0.00017081 [mEh]       0.00010719 [kcal/mol]       0.00044847 [kJ/mol]
      Exch-Disp20 (OS)              0.00005667 [mEh]       0.00003556 [kcal/mol]       0.00014878 [kJ/mol]

  Total HF                        -11.74464004 [mEh]      -7.36987289 [kcal/mol]     -30.83554817 [kJ/mol]
  Total SAPT0                     -13.36119785 [mEh]      -8.38427823 [kcal/mol]     -35.07982013 [kJ/mol]

  Special recipe for scaled SAPT0 (see Manual):
    Electrostatics sSAPT0          -8.31491228 [mEh]      -5.21768623 [kcal/mol]     -21.83079919 [kJ/mol]
    Exchange sSAPT0                 0.00008154 [mEh]       0.00005116 [kcal/mol]       0.00021407 [kJ/mol]
    Induction sSAPT0               -3.42980929 [mEh]      -2.15223782 [kcal/mol]      -9.00496306 [kJ/mol]
    Dispersion sSAPT0              -1.61655782 [mEh]      -1.01440534 [kcal/mol]      -4.24427196 [kJ/mol]
  Total sSAPT0                    -13.36119785 [mEh]      -8.38427823 [kcal/mol]     -35.07982013 [kJ/mol]
  --------------------------------------------------------------------------------------------------------

*** Psi4 exiting successfully. Buy a developer a beer!
