                               Psi4 1.9 release

  ==> Input File <==

--------------------------------------------------------------------------
memory 32 GB # how much memory is available ! Depends on the nodes/cores !

molecule dimer {
# monomer A
-1 1    # Charge and multiplicity
B -0.000046  0.000337 6.799994
F -1.153597  0.000048 7.615641
F  1.153661 -0.000581 7.615641
F -0.000019 -1.153637 5.984360
F -0.000019  1.153978 5.984360
--
# monomer B
0 1     # Charge and multiplicity
C   1.22531237526482      0.70753866091955      0.00613762728373
C   1.22532433589282     -0.70753852257020     -0.00619318228664
C   -0.00000567409046      1.41496628609039     -0.00672680580738
C   2.45644923379077      1.41832825917820      0.00902448468363
C   0.00001130712078     -1.41497612663474      0.00347275151708
C   -1.22530046906674      0.70754574598412      0.00838914760619
C   2.45643823516184     -1.41832293188077     -0.00843833914343
C   -0.00000085313587      2.83680140328112     -0.00913035594137
C   3.68182717731192      0.70931832800114     -0.00808954934571
C   2.45512052870677      2.83422403348893     -0.00819210630633
C   3.68182158506039     -0.70933346742900      0.00798293467272
C   -1.22531311884624     -0.70752714354401     -0.00512042085974
C   1.22670006104402      3.54346985599427      0.00816696660346
C   0.00000526469929     -2.83678176723568      0.00832091913869
C   -2.45643555300670      1.41831729028492      0.00842454345199
C   2.45512389762097     -2.83422965658853      0.00783102630520
C   -1.22671388474763      3.54346943575023      0.00827029982280
C   4.91451777504333      1.42717324448953     -0.00160886631602
C   3.69315067131765      3.54279566454522     -0.00155906667985
C   -2.45643712022637     -1.41831290883911     -0.00846337726810
C   1.22670532178455     -3.54347386990643     -0.00780316414624
C   -2.45512491866593      2.83421703463423     -0.00818572995999
C   4.91452486062398     -1.42718653794377      0.00136387641845
C   1.22142509354026      4.97013443726031      0.00150231067809
C   4.89300870916237      2.82518837202648     -0.00039219795739
C   -1.22669652864725     -3.54347062507680     -0.00753595973677
C   -3.68181849668397      0.70932533873199     -0.00807686886569
C   3.69314758099218     -3.54280096939050      0.00148176697923
C   -1.22143177215231      4.97012866986289      0.00168580605083
C   6.13477145276790      0.68054831910577     -0.00083909176631
C   3.65678936045204      4.97295361556775     -0.00065042889723
C   -2.45512642789169     -2.83421472106065      0.00758666850712
C   -3.68181869921921     -0.70932533146830      0.00810055625144
C   4.89301309775526     -2.82519973363176      0.00021895393805
C   -0.00000059327114      5.65044773803267      0.00045449734393
C   6.13477559217374     -0.68055448207492      0.00042622874941
C   2.47813196269732      5.65357712333155      0.00063835075260
C   1.22142288457925     -4.97012668293268     -0.00129718634452
C   -3.69316190412301      3.54279732619245     -0.00139355922051
C   -1.22142804110313     -4.97011793159564     -0.00140994817719
C   -4.91452132810043      1.42717581899491     -0.00153192130862
C   3.65678749952045     -4.97295485423912      0.00080007163680
C   -2.47813805026426      5.65357479452875      0.00092287576113
C   -3.69314125872231     -3.54278984697859      0.00136564082345
C   -4.91451200321153     -1.42718062802730      0.00139857359209
C   -0.00000552908399     -5.65043791501335      0.00005899322272
C   -4.89302000425900      2.82518897091939     -0.00040227981744
C   2.47812647313991     -5.65357317188818     -0.00029052915548
C   -3.65679823041642      4.97295655404175     -0.00047374852278
C   -4.89299899901461     -2.82519139505969      0.00006491824035
C   -2.47812801824129     -5.65356579800621     -0.00056571680280
C   -6.13477002348955      0.68054913825639     -0.00086464346868
C   -3.65678835334731     -4.97294365097028      0.00058578382008
C   -6.13476456307132     -0.68055354348201      0.00040575295444
H   5.83528897565761      3.36927626695423      0.00396712770529
H   7.07385965258860      1.22821762089947     -0.00037744837300
H   4.60066374401555      5.51238117445323     -0.00014522814529
H   5.83528386714679     -3.36930568472863     -0.00423551337640
H   -0.00001167146422      6.73853104613662     -0.00389474766392
H   7.07386165167227     -1.22822657074368     -0.00008250934481
H   2.47331421164041      6.74068466339473      0.00017162982210
H   4.60066897122302     -5.51237575717576      0.00039007446835
H   -2.47331820069565      6.74068209160650      0.00047297644710
H   -0.00000978838621     -6.73852780445195      0.00458867820736
H   -5.83530143450167      3.36927132229595      0.00410314985360
H   2.47330840367253     -6.74068500242887      0.00027980126949
H   -4.60067436136587      5.51237839860371      0.00002010017831
H   -5.83527902699321     -3.36928859177951     -0.00451481925734
H   -2.47329986759855     -6.74067870613986     -0.00016951527498
H   -7.07385728692578      1.22822084484047     -0.00046143985387
H   -4.60067330624313     -5.51236229778631      0.00021776644566
H   -7.07385645456741     -1.22822025997701     -0.00017736581114

    units angstrom      # Angstroms are the default
    no_reorient         # Geometry fixed, default
    symmetry c1         # C1 symmetry, default
}

set {
    scf_type DF         # Density fitting, faster than exact integrals
    freeze_core True    # Freeze core electrons
    basis jun-cc-pVDZ   # Jun-cc-pVDZ basis set, recommended for sSAPT0 in https://doi.org/10.1063/1.4867135
}

energy('ssapt0')        # Compute sSAPT0 energy, includes also SAPT0
--------------------------------------------------------------------------

  //              Dimer HF             //
    Molecular point group: c1
  Charge       = -1
  Multiplicity = 1
  Basis Set: JUN-CC-PVDZ
    Blend: JUN-CC-PVDZ
  Basis Set: (JUN-CC-PVDZ AUX)
    Blend: JUN-CC-PVDZ-JKFIT
  @DF-RHF Final Energy: -2478.65795061199015
    Total Energy =                      -2478.6579506119906000
 Dipole X            :         -0.0001854           -0.0000160           -0.0002015
 Dipole Y            :          0.0012581           -0.0001716            0.0010864
 Dipole Z            :         31.1099955          -41.6860935          -10.5760980
 Magnitude           :                                                   10.5760980
  //            Monomer A HF           //
    Molecular point group: c1
  Multiplicity = 1
  Basis Set: JUN-CC-PVDZ
    Blend: JUN-CC-PVDZ
  Basis Set: (JUN-CC-PVDZ AUX)
    Blend: JUN-CC-PVDZ-JKFIT
  @DF-RHF Final Energy:  -422.77148051771945
    Total Energy =                       -422.7714805177194535
  //            Monomer B HF           //
    Molecular point group: c1

    Geometry (in Angstrom), charge = 0, multiplicity = 1:

       Center              X                  Y                   Z               Mass
    ------------   -----------------  -----------------  -----------------  -----------------
      Gh(B)          -0.000046449334     0.000336519434     6.014462524613    11.009305360000
      Gh(F)          -1.153597449334     0.000047519434     6.830109524613    18.998403162730
      Gh(F)           1.153660550666    -0.000581480566     6.830109524613    18.998403162730
      Gh(F)          -0.000019449334    -1.153637480566     5.198828524613    18.998403162730
      Gh(F)          -0.000019449334     1.153977519434     5.198828524613    18.998403162730
         C            1.225311925931     0.707538180353    -0.779393848103    12.000000000000
         C            1.225323886559    -0.707539003137    -0.791724657674    12.000000000000
         C           -0.000006123424     1.414965805524    -0.792258281195    12.000000000000
         C            2.456448784457     1.418327778612    -0.776506990704    12.000000000000
         C            0.000010857787    -1.414976607201    -0.782058723870    12.000000000000
         C           -1.225300918401     0.707545265418    -0.777142327781    12.000000000000
         C            2.456437785828    -1.418323412447    -0.793969814531    12.000000000000
         C           -0.000001302470     2.836800922715    -0.794661831329    12.000000000000
         C            3.681826727978     0.709317847435    -0.793621024733    12.000000000000
         C            2.455120079373     2.834223552923    -0.793723581693    12.000000000000
         C            3.681821135726    -0.709333947995    -0.777548540714    12.000000000000
         C           -1.225313568180    -0.707527624110    -0.790651896247    12.000000000000
         C            1.226699611710     3.543469375428    -0.777364508784    12.000000000000
         C            0.000004815365    -2.836782247802    -0.777210556248    12.000000000000
         C           -2.456436002341     1.418316809719    -0.777106931935    12.000000000000
         C            2.455123448287    -2.834230137155    -0.777700449082    12.000000000000
         C           -1.226714334082     3.543468955184    -0.777261175564    12.000000000000
         C            4.914517325709     1.427172763923    -0.787140341703    12.000000000000
         C            3.693150221984     3.542795183979    -0.787090542067    12.000000000000
         C           -2.456437569560    -1.418313389406    -0.793994852655    12.000000000000
         C            1.226704872451    -3.543474350473    -0.793334639533    12.000000000000
         C           -2.455125368000     2.834216554068    -0.793717205347    12.000000000000
         C            4.914524411290    -1.427187018510    -0.784167598969    12.000000000000
         C            1.221424644206     4.970133956694    -0.784029164709    12.000000000000
         C            4.893008259828     2.825187891460    -0.785923673345    12.000000000000
         C           -1.226696977981    -3.543471105643    -0.793067435124    12.000000000000
         C           -3.681818946018     0.709324858166    -0.793608344253    12.000000000000
         C            3.693147131658    -3.542801449957    -0.784049708408    12.000000000000
         C           -1.221432221486     4.970128189296    -0.783845669336    12.000000000000
         C            6.134771003434     0.680547838539    -0.786370567153    12.000000000000
         C            3.656788911118     4.972953135001    -0.786181904284    12.000000000000
         C           -2.455126877226    -2.834215201627    -0.777944806880    12.000000000000
         C           -3.681819148553    -0.709325812035    -0.777430919136    12.000000000000
         C            4.893012648421    -2.825200214198    -0.785312521449    12.000000000000
         C           -0.000001042605     5.650447257466    -0.785076978043    12.000000000000
         C            6.134775142840    -0.680554962641    -0.785105246638    12.000000000000
         C            2.478131513363     5.653576642765    -0.784893124635    12.000000000000
         C            1.221422435245    -4.970127163499    -0.786828661732    12.000000000000
         C           -3.693162353457     3.542796845626    -0.786925034608    12.000000000000
         C           -1.221428490437    -4.970118412162    -0.786941423564    12.000000000000
         C           -4.914521777434     1.427175338429    -0.787063396696    12.000000000000
         C            3.656787050187    -4.972955334806    -0.784731403750    12.000000000000
         C           -2.478138499598     5.653574313962    -0.784608599626    12.000000000000
         C           -3.693141708056    -3.542790327545    -0.784165834564    12.000000000000
         C           -4.914512452545    -1.427181108594    -0.784132901795    12.000000000000
         C           -0.000005978418    -5.650438395580    -0.785472482164    12.000000000000
         C           -4.893020453593     2.825188490353    -0.785933755205    12.000000000000
         C            2.478126023806    -5.653573652455    -0.785822004543    12.000000000000
         C           -3.656798679750     4.972956073475    -0.786005223910    12.000000000000
         C           -4.892999448349    -2.825191875626    -0.785466557147    12.000000000000
         C           -2.478128467575    -5.653566278573    -0.786097192190    12.000000000000
         C           -6.134770472823     0.680548657690    -0.786396118856    12.000000000000
         C           -3.656788802681    -4.972944131537    -0.784945691567    12.000000000000
         C           -6.134765012405    -0.680554024048    -0.785125722433    12.000000000000
         H            5.835288526324     3.369275786388    -0.781564347682     1.007825032230
         H            7.073859203255     1.228217140333    -0.785908923760     1.007825032230
         H            4.600663294682     5.512380693887    -0.785676703532     1.007825032230
         H            5.835283417813    -3.369306165295    -0.789766988764     1.007825032230
         H           -0.000012120798     6.738530565570    -0.789426223051     1.007825032230
         H            7.073861202338    -1.228227051310    -0.785613984732     1.007825032230
         H            2.473313762307     6.740684182828    -0.785359845565     1.007825032230
         H            4.600668521889    -5.512376237742    -0.785141400919     1.007825032230
         H           -2.473318650030     6.740681611040    -0.785058498940     1.007825032230
         H           -0.000010237720    -6.738528285018    -0.780942797180     1.007825032230
         H           -5.835301883836     3.369270841730    -0.781428325534     1.007825032230
         H            2.473307954339    -6.740685482995    -0.785251674118     1.007825032230
         H           -4.600674810700     5.512377918037    -0.785511375209     1.007825032230
         H           -5.835279476327    -3.369289072346    -0.790046294645     1.007825032230
         H           -2.473300316932    -6.740679186706    -0.785700990662     1.007825032230
         H           -7.073857736260     1.228220364274    -0.785992915241     1.007825032230
         H           -4.600673755577    -5.512362778353    -0.785313708942     1.007825032230
         H           -7.073856903901    -1.228220740543    -0.785708841198     1.007825032230

  Charge       = 0
  Multiplicity = 1
  Basis Set: JUN-CC-PVDZ
    Blend: JUN-CC-PVDZ
  Basis Set: (JUN-CC-PVDZ AUX)
    Blend: JUN-CC-PVDZ-JKFIT

    Orbital Energies [Eh]
    ---------------------

    Doubly Occupied:

       1A    -11.260668     2A    -11.260226     3A    -11.260223
       4A    -11.259515     5A    -11.259513     6A    -11.259344
       7A    -11.259135     8A    -11.259058     9A    -11.259056
      10A    -11.258732    11A    -11.258728    12A    -11.258660
      13A    -11.258598    14A    -11.258593    15A    -11.258590
      16A    -11.258561    17A    -11.258555    18A    -11.258539
      19A    -11.258526    20A    -11.258521    21A    -11.258515
      22A    -11.258416    23A    -11.258412    24A    -11.258113
      25A    -11.257454    26A    -11.257393    27A    -11.257392
      28A    -11.257257    29A    -11.257256    30A    -11.257172
      31A    -11.256550    32A    -11.256479    33A    -11.256478
      34A    -11.256369    35A    -11.256368    36A    -11.256321
      37A    -11.252397    38A    -11.252396    39A    -11.252395
      40A    -11.252394    41A    -11.252391    42A    -11.252390
      43A    -11.251530    44A    -11.251528    45A    -11.251527
      46A    -11.251521    47A    -11.251520    48A    -11.251516
      49A    -11.250959    50A    -11.250958    51A    -11.250956
      52A    -11.250954    53A    -11.250953    54A    -11.250951
      55A     -1.244288    56A     -1.220009    57A     -1.220008
      58A     -1.189718    59A     -1.189710    60A     -1.181159
      61A     -1.157718    62A     -1.149150    63A     -1.135699
      64A     -1.135692    65A     -1.113352    66A     -1.113347
      67A     -1.082623    68A     -1.082617    69A     -1.078805
      70A     -1.066135    71A     -1.066132    72A     -1.039574
      73A     -1.024482    74A     -1.021984    75A     -1.021942
      76A     -1.017884    77A     -1.012946    78A     -0.987215
      79A     -0.987168    80A     -0.962045    81A     -0.961995
      82A     -0.894463    83A     -0.894437    84A     -0.888157
      85A     -0.886404    86A     -0.886346    87A     -0.881594
      88A     -0.881546    89A     -0.862069    90A     -0.837549
      91A     -0.818385    92A     -0.816824    93A     -0.812333
      94A     -0.812323    95A     -0.794850    96A     -0.794840
      97A     -0.746832    98A     -0.745059    99A     -0.733625
     100A     -0.733616   101A     -0.732349   102A     -0.732325
     103A     -0.716693   104A     -0.699145   105A     -0.699134
     106A     -0.693770   107A     -0.693755   108A     -0.661395
     109A     -0.653325   110A     -0.651371   111A     -0.650413
     112A     -0.650407   113A     -0.639525   114A     -0.639523
     115A     -0.629908   116A     -0.627719   117A     -0.627702
     118A     -0.606459   119A     -0.605932   120A     -0.601860
     121A     -0.599914   122A     -0.599883   123A     -0.593818
     124A     -0.591445   125A     -0.591435   126A     -0.585417
     127A     -0.576419   128A     -0.576411   129A     -0.567475
     130A     -0.567461   131A     -0.566158   132A     -0.566139
     133A     -0.558933   134A     -0.555018   135A     -0.555012
     136A     -0.538756   137A     -0.538754   138A     -0.538286
     139A     -0.538280   140A     -0.529891   141A     -0.528205
     142A     -0.523046   143A     -0.523040   144A     -0.500664
     145A     -0.495716   146A     -0.493403   147A     -0.487945
     148A     -0.485261   149A     -0.481942   150A     -0.481934
     151A     -0.470437   152A     -0.470415   153A     -0.451243
     154A     -0.451165   155A     -0.439186   156A     -0.439177
     157A     -0.404865   158A     -0.404843   159A     -0.403487
     160A     -0.375541   161A     -0.375538   162A     -0.349244
     163A     -0.337711   164A     -0.336680   165A     -0.336620
     166A     -0.311221   167A     -0.298209   168A     -0.284476
     169A     -0.284423   170A     -0.225046   171A     -0.224979

  @DF-RHF Final Energy: -2055.89171646037539

   => Energetics <=

    Nuclear Repulsion Energy =           6452.5568002797781446
    One-Electron Energy =              -15636.4280912053982320
    Two-Electron Energy =                7127.9795744652456051
    Total Energy =                      -2055.8917164603753918
 Dipole X            :          0.0000797            0.0000112            0.0000909
 Dipole Y            :          0.0000273           -0.0000531           -0.0000259
 Dipole Z            :        507.6778585         -507.6797012           -0.0018427
 Magnitude           :                                                    0.0018451

    SAPT Results
  --------------------------------------------------------------------------------------------------------
    Electrostatics                  7.80658498 [mEh]       4.89870603 [kcal/mol]      20.49618603 [kJ/mol]
      Elst10,r                      7.80658498 [mEh]       4.89870603 [kcal/mol]      20.49618603 [kJ/mol]

    Exchange                       -0.00018342 [mEh]      -0.00011510 [kcal/mol]      -0.00048157 [kJ/mol]
      Exch10                       -0.00018342 [mEh]      -0.00011510 [kcal/mol]      -0.00048157 [kJ/mol]
      Exch10(S^2)                  -0.00018342 [mEh]      -0.00011510 [kcal/mol]      -0.00048157 [kJ/mol]

    Induction                      -2.56003545 [mEh]      -1.60644650 [kcal/mol]      -6.72137215 [kJ/mol]
      Ind20,r                      -2.57842604 [mEh]      -1.61798677 [kcal/mol]      -6.76965664 [kJ/mol]
      Exch-Ind20,r                  0.00019679 [mEh]       0.00012349 [kcal/mol]       0.00051667 [kJ/mol]
      delta HF,r (2)                0.01819381 [mEh]       0.01141679 [kcal/mol]       0.04776783 [kJ/mol]

    Dispersion                     -0.45908607 [mEh]      -0.28808086 [kcal/mol]      -1.20533032 [kJ/mol]
      Disp20                       -0.45927083 [mEh]      -0.28819679 [kcal/mol]      -1.20581539 [kJ/mol]
      Exch-Disp20                   0.00018475 [mEh]       0.00011593 [kcal/mol]       0.00048507 [kJ/mol]
      Disp20 (SS)                  -0.22963541 [mEh]      -0.14409840 [kcal/mol]      -0.60290769 [kJ/mol]
      Disp20 (OS)                  -0.22963541 [mEh]      -0.14409840 [kcal/mol]      -0.60290769 [kJ/mol]
      Exch-Disp20 (SS)              0.00014263 [mEh]       0.00008950 [kcal/mol]       0.00037448 [kJ/mol]
      Exch-Disp20 (OS)              0.00004212 [mEh]       0.00002643 [kcal/mol]       0.00011059 [kJ/mol]

  Total HF                          5.24636610 [mEh]       3.29214443 [kcal/mol]      13.77433231 [kJ/mol]
  Total SAPT0                       4.78728003 [mEh]       3.00406357 [kcal/mol]      12.56900199 [kJ/mol]

  Special recipe for scaled SAPT0 (see Manual):
    Electrostatics sSAPT0           7.80658498 [mEh]       4.89870603 [kcal/mol]      20.49618603 [kJ/mol]
    Exchange sSAPT0                -0.00018342 [mEh]      -0.00011510 [kcal/mol]      -0.00048157 [kJ/mol]
    Induction sSAPT0               -2.56003545 [mEh]      -1.60644650 [kcal/mol]      -6.72137215 [kJ/mol]
    Dispersion sSAPT0              -0.45908607 [mEh]      -0.28808086 [kcal/mol]      -1.20533032 [kJ/mol]
  Total sSAPT0                      4.78728003 [mEh]       3.00406357 [kcal/mol]      12.56900199 [kJ/mol]
  --------------------------------------------------------------------------------------------------------

*** Psi4 exiting successfully. Buy a developer a beer!
