                               Psi4 1.9 release

  ==> Input File <==

--------------------------------------------------------------------------
memory 32 GB # how much memory is available ! Depends on the nodes/cores !

molecule dimer {
# monomer A
-1 1    # Charge and multiplicity
B -1.977592e-04  2.742729e-04 3.300034
F  1.123153e-16  1.430594e-17 4.712819
F  1.147860e+00  6.757812e-01 2.828893
F  1.191806e-02 -1.332011e+00 2.829095
F -1.159666e+00  6.560735e-01 2.829174
--
# monomer B
0 1     # Charge and multiplicity
C   1.22531237526482      0.70753866091955      0.00613762728373
C   1.22532433589282     -0.70753852257020     -0.00619318228664
C   -0.00000567409046      1.41496628609039     -0.00672680580738
C   2.45644923379077      1.41832825917820      0.00902448468363
C   0.00001130712078     -1.41497612663474      0.00347275151708
C   -1.22530046906674      0.70754574598412      0.00838914760619
C   2.45643823516184     -1.41832293188077     -0.00843833914343
C   -0.00000085313587      2.83680140328112     -0.00913035594137
C   3.68182717731192      0.70931832800114     -0.00808954934571
C   2.45512052870677      2.83422403348893     -0.00819210630633
C   3.68182158506039     -0.70933346742900      0.00798293467272
C   -1.22531311884624     -0.70752714354401     -0.00512042085974
C   1.22670006104402      3.54346985599427      0.00816696660346
C   0.00000526469929     -2.83678176723568      0.00832091913869
C   -2.45643555300670      1.41831729028492      0.00842454345199
C   2.45512389762097     -2.83422965658853      0.00783102630520
C   -1.22671388474763      3.54346943575023      0.00827029982280
C   4.91451777504333      1.42717324448953     -0.00160886631602
C   3.69315067131765      3.54279566454522     -0.00155906667985
C   -2.45643712022637     -1.41831290883911     -0.00846337726810
C   1.22670532178455     -3.54347386990643     -0.00780316414624
C   -2.45512491866593      2.83421703463423     -0.00818572995999
C   4.91452486062398     -1.42718653794377      0.00136387641845
C   1.22142509354026      4.97013443726031      0.00150231067809
C   4.89300870916237      2.82518837202648     -0.00039219795739
C   -1.22669652864725     -3.54347062507680     -0.00753595973677
C   -3.68181849668397      0.70932533873199     -0.00807686886569
C   3.69314758099218     -3.54280096939050      0.00148176697923
C   -1.22143177215231      4.97012866986289      0.00168580605083
C   6.13477145276790      0.68054831910577     -0.00083909176631
C   3.65678936045204      4.97295361556775     -0.00065042889723
C   -2.45512642789169     -2.83421472106065      0.00758666850712
C   -3.68181869921921     -0.70932533146830      0.00810055625144
C   4.89301309775526     -2.82519973363176      0.00021895393805
C   -0.00000059327114      5.65044773803267      0.00045449734393
C   6.13477559217374     -0.68055448207492      0.00042622874941
C   2.47813196269732      5.65357712333155      0.00063835075260
C   1.22142288457925     -4.97012668293268     -0.00129718634452
C   -3.69316190412301      3.54279732619245     -0.00139355922051
C   -1.22142804110313     -4.97011793159564     -0.00140994817719
C   -4.91452132810043      1.42717581899491     -0.00153192130862
C   3.65678749952045     -4.97295485423912      0.00080007163680
C   -2.47813805026426      5.65357479452875      0.00092287576113
C   -3.69314125872231     -3.54278984697859      0.00136564082345
C   -4.91451200321153     -1.42718062802730      0.00139857359209
C   -0.00000552908399     -5.65043791501335      0.00005899322272
C   -4.89302000425900      2.82518897091939     -0.00040227981744
C   2.47812647313991     -5.65357317188818     -0.00029052915548
C   -3.65679823041642      4.97295655404175     -0.00047374852278
C   -4.89299899901461     -2.82519139505969      0.00006491824035
C   -2.47812801824129     -5.65356579800621     -0.00056571680280
C   -6.13477002348955      0.68054913825639     -0.00086464346868
C   -3.65678835334731     -4.97294365097028      0.00058578382008
C   -6.13476456307132     -0.68055354348201      0.00040575295444
H   5.83528897565761      3.36927626695423      0.00396712770529
H   7.07385965258860      1.22821762089947     -0.00037744837300
H   4.60066374401555      5.51238117445323     -0.00014522814529
H   5.83528386714679     -3.36930568472863     -0.00423551337640
H   -0.00001167146422      6.73853104613662     -0.00389474766392
H   7.07386165167227     -1.22822657074368     -0.00008250934481
H   2.47331421164041      6.74068466339473      0.00017162982210
H   4.60066897122302     -5.51237575717576      0.00039007446835
H   -2.47331820069565      6.74068209160650      0.00047297644710
H   -0.00000978838621     -6.73852780445195      0.00458867820736
H   -5.83530143450167      3.36927132229595      0.00410314985360
H   2.47330840367253     -6.74068500242887      0.00027980126949
H   -4.60067436136587      5.51237839860371      0.00002010017831
H   -5.83527902699321     -3.36928859177951     -0.00451481925734
H   -2.47329986759855     -6.74067870613986     -0.00016951527498
H   -7.07385728692578      1.22822084484047     -0.00046143985387
H   -4.60067330624313     -5.51236229778631      0.00021776644566
H   -7.07385645456741     -1.22822025997701     -0.00017736581114

    units angstrom      # Angstroms are the default
    no_reorient         # Geometry fixed, default
    symmetry c1         # C1 symmetry, default
}

set {
    scf_type DF         # Density fitting, faster than exact integrals
    freeze_core True    # Freeze core electrons
    basis jun-cc-pVDZ   # Jun-cc-pVDZ basis set, recommended for sSAPT0 in https://doi.org/10.1063/1.4867135
}

energy('ssapt0')        # Compute sSAPT0 energy, includes also SAPT0
--------------------------------------------------------------------------

  //              Dimer HF             //
    Molecular point group: c1
  Charge       = -1
  Multiplicity = 1
  Basis Set: JUN-CC-PVDZ
    Blend: JUN-CC-PVDZ
  Basis Set: (JUN-CC-PVDZ AUX)
    Blend: JUN-CC-PVDZ-JKFIT
  @DF-RHF Final Energy: -2478.65858530421201
    Total Energy =                      -2478.6585853042124654
 Dipole X            :         -0.0006011            0.0000481           -0.0005531
 Dipole Y            :          0.0011206           -0.0001453            0.0009753
 Dipole Z            :         16.2287133          -20.2299451           -4.0012318
 Magnitude           :                                                    4.0012320
  //            Monomer A HF           //
    Molecular point group: c1
  Multiplicity = 1
  Basis Set: JUN-CC-PVDZ
    Blend: JUN-CC-PVDZ
  Basis Set: (JUN-CC-PVDZ AUX)
    Blend: JUN-CC-PVDZ-JKFIT
  @DF-RHF Final Energy:  -422.77386008300880
    Total Energy =                       -422.7738600830087989
  //            Monomer B HF           //
    Molecular point group: c1

    Geometry (in Angstrom), charge = 0, multiplicity = 1:

       Center              X                  Y                   Z               Mass
    ------------   -----------------  -----------------  -----------------  -----------------
      Gh(B)          -0.000198161052     0.000273808717     2.918821307203    11.009305360000
      Gh(F)          -0.000000401852    -0.000000464183     4.331606307203    18.998403162730
      Gh(F)           1.147859598148     0.675780735817     2.447680307203    18.998403162730
      Gh(F)           0.011917658148    -1.332011464183     2.447882307203    18.998403162730
      Gh(F)          -1.159666401852     0.656073035817     2.447961307203    18.998403162730
         C            1.225311973413     0.707538196736    -0.375075065513    12.000000000000
         C            1.225323934041    -0.707538986754    -0.387405875083    12.000000000000
         C           -0.000006075942     1.414965821907    -0.387939498604    12.000000000000
         C            2.456448831939     1.418327794995    -0.372188208113    12.000000000000
         C            0.000010905269    -1.414976590818    -0.377739941279    12.000000000000
         C           -1.225300870919     0.707545281801    -0.372823545190    12.000000000000
         C            2.456437833310    -1.418323396064    -0.389651031940    12.000000000000
         C           -0.000001254988     2.836800939098    -0.390343048738    12.000000000000
         C            3.681826775460     0.709317863818    -0.389302242142    12.000000000000
         C            2.455120126855     2.834223569306    -0.389404799103    12.000000000000
         C            3.681821183209    -0.709333931612    -0.373229758124    12.000000000000
         C           -1.225313520698    -0.707527607727    -0.386333113656    12.000000000000
         C            1.226699659192     3.543469391811    -0.373045726193    12.000000000000
         C            0.000004862847    -2.836782231419    -0.372891773658    12.000000000000
         C           -2.456435954859     1.418316826102    -0.372788149345    12.000000000000
         C            2.455123495769    -2.834230120772    -0.373381666491    12.000000000000
         C           -1.226714286599     3.543468971567    -0.372942392974    12.000000000000
         C            4.914517373191     1.427172780306    -0.382821559113    12.000000000000
         C            3.693150269466     3.542795200362    -0.382771759476    12.000000000000
         C           -2.456437522078    -1.418313373022    -0.389676070065    12.000000000000
         C            1.226704919933    -3.543474334090    -0.389015856943    12.000000000000
         C           -2.455125320518     2.834216570451    -0.389398422757    12.000000000000
         C            4.914524458772    -1.427187002127    -0.379848816378    12.000000000000
         C            1.221424691688     4.970133973077    -0.379710382118    12.000000000000
         C            4.893008307311     2.825187907843    -0.381604890754    12.000000000000
         C           -1.226696930499    -3.543471089260    -0.388748652533    12.000000000000
         C           -3.681818898536     0.709324874549    -0.389289561662    12.000000000000
         C            3.693147179140    -3.542801433574    -0.379730925817    12.000000000000
         C           -1.221432174004     4.970128205680    -0.379526886746    12.000000000000
         C            6.134771050916     0.680547854922    -0.382051784563    12.000000000000
         C            3.656788958600     4.972953151384    -0.381863121694    12.000000000000
         C           -2.455126829744    -2.834215185244    -0.373626024289    12.000000000000
         C           -3.681819101071    -0.709325795652    -0.373112136545    12.000000000000
         C            4.893012695903    -2.825200197815    -0.380993738858    12.000000000000
         C           -0.000000995123     5.650447273849    -0.380758195453    12.000000000000
         C            6.134775190322    -0.680554946258    -0.380786464047    12.000000000000
         C            2.478131560845     5.653576659148    -0.380574342044    12.000000000000
         C            1.221422482727    -4.970127147116    -0.382509879141    12.000000000000
         C           -3.693162305975     3.542796862009    -0.382606252017    12.000000000000
         C           -1.221428442955    -4.970118395779    -0.382622640974    12.000000000000
         C           -4.914521729952     1.427175354812    -0.382744614105    12.000000000000
         C            3.656787097669    -4.972955318422    -0.380412621160    12.000000000000
         C           -2.478138452116     5.653574330345    -0.380289817035    12.000000000000
         C           -3.693141660574    -3.542790311162    -0.379847051973    12.000000000000
         C           -4.914512405063    -1.427181092211    -0.379814119204    12.000000000000
         C           -0.000005930936    -5.650438379197    -0.381153699574    12.000000000000
         C           -4.893020406111     2.825188506736    -0.381614972614    12.000000000000
         C            2.478126071288    -5.653573636072    -0.381503221952    12.000000000000
         C           -3.656798632268     4.972956089858    -0.381686441319    12.000000000000
         C           -4.892999400866    -2.825191859243    -0.381147774556    12.000000000000
         C           -2.478128420093    -5.653566262190    -0.381778409599    12.000000000000
         C           -6.134770425341     0.680548674073    -0.382077336265    12.000000000000
         C           -3.656788755199    -4.972944115154    -0.380626908976    12.000000000000
         C           -6.134764964923    -0.680554007665    -0.380806939842    12.000000000000
         H            5.835288573806     3.369275802771    -0.377245565091     1.007825032230
         H            7.073859250737     1.228217156716    -0.381590141170     1.007825032230
         H            4.600663342164     5.512380710270    -0.381357920942     1.007825032230
         H            5.835283465295    -3.369306148912    -0.385448206173     1.007825032230
         H           -0.000012073316     6.738530581953    -0.385107440460     1.007825032230
         H            7.073861249820    -1.228227034927    -0.381295202141     1.007825032230
         H            2.473313809789     6.740684199211    -0.381041062974     1.007825032230
         H            4.600668569371    -5.512376221359    -0.380822618328     1.007825032230
         H           -2.473318602548     6.740681627423    -0.380739716349     1.007825032230
         H           -0.000010190238    -6.738528268635    -0.376624014589     1.007825032230
         H           -5.835301836354     3.369270858113    -0.377109542943     1.007825032230
         H            2.473308001821    -6.740685466612    -0.380932891527     1.007825032230
         H           -4.600674763218     5.512377934420    -0.381192592618     1.007825032230
         H           -5.835279428845    -3.369289055963    -0.385727512054     1.007825032230
         H           -2.473300269450    -6.740679170323    -0.381382208071     1.007825032230
         H           -7.073857688778     1.228220380657    -0.381674132650     1.007825032230
         H           -4.600673708095    -5.512362761970    -0.380994926351     1.007825032230
         H           -7.073856856419    -1.228220724160    -0.381390058608     1.007825032230

  Charge       = 0
  Multiplicity = 1
  Basis Set: JUN-CC-PVDZ
    Blend: JUN-CC-PVDZ
  Basis Set: (JUN-CC-PVDZ AUX)
    Blend: JUN-CC-PVDZ-JKFIT

    Orbital Energies [Eh]
    ---------------------

    Doubly Occupied:

       1A    -11.260678     2A    -11.260227     3A    -11.260227
       4A    -11.259480     5A    -11.259479     6A    -11.259296
       7A    -11.259050     8A    -11.258978     9A    -11.258977
      10A    -11.258641    11A    -11.258638    12A    -11.258523
      13A    -11.258468    14A    -11.258464    15A    -11.258463
      16A    -11.258423    17A    -11.258417    18A    -11.258399
      19A    -11.258399    20A    -11.258396    21A    -11.258394
      22A    -11.258330    23A    -11.258324    24A    -11.258096
      25A    -11.257324    26A    -11.257266    27A    -11.257265
      28A    -11.257136    29A    -11.257135    30A    -11.257055
      31A    -11.256421    32A    -11.256353    33A    -11.256353
      34A    -11.256246    35A    -11.256246    36A    -11.256200
      37A    -11.252271    38A    -11.252270    39A    -11.252269
      40A    -11.252267    41A    -11.252265    42A    -11.252264
      43A    -11.251370    44A    -11.251367    45A    -11.251366
      46A    -11.251360    47A    -11.251360    48A    -11.251355
      49A    -11.250832    50A    -11.250831    51A    -11.250830
      52A    -11.250828    53A    -11.250826    54A    -11.250825
      55A     -1.244007    56A     -1.219775    57A     -1.219774
      58A     -1.189509    59A     -1.189502    60A     -1.180886
      61A     -1.157534    62A     -1.148949    63A     -1.135443
      64A     -1.135437    65A     -1.113168    66A     -1.113164
      67A     -1.082395    68A     -1.082388    69A     -1.078553
      70A     -1.065960    71A     -1.065956    72A     -1.039371
      73A     -1.024229    74A     -1.021706    75A     -1.021664
      76A     -1.017707    77A     -1.012780    78A     -0.986982
      79A     -0.986936    80A     -0.961855    81A     -0.961805
      82A     -0.894268    83A     -0.894241    84A     -0.887874
      85A     -0.886128    86A     -0.886070    87A     -0.881351
      88A     -0.881303    89A     -0.861876    90A     -0.837401
      91A     -0.818177    92A     -0.816563    93A     -0.812092
      94A     -0.812083    95A     -0.794668    96A     -0.794657
      97A     -0.746572    98A     -0.744817    99A     -0.733362
     100A     -0.733353   101A     -0.732157   102A     -0.732134
     103A     -0.716454   104A     -0.698947   105A     -0.698937
     106A     -0.693545   107A     -0.693530   108A     -0.661206
     109A     -0.653051   110A     -0.651100   111A     -0.650230
     112A     -0.650224   113A     -0.639335   114A     -0.639333
     115A     -0.629671   116A     -0.627478   117A     -0.627462
     118A     -0.606438   119A     -0.605801   120A     -0.601617
     121A     -0.599702   122A     -0.599671   123A     -0.593601
     124A     -0.591150   125A     -0.591139   126A     -0.585266
     127A     -0.576400   128A     -0.576394   129A     -0.567306
     130A     -0.567291   131A     -0.565908   132A     -0.565889
     133A     -0.558668   134A     -0.554816   135A     -0.554809
     136A     -0.538570   137A     -0.538568   138A     -0.538209
     139A     -0.538203   140A     -0.529689   141A     -0.528167
     142A     -0.522840   143A     -0.522833   144A     -0.500481
     145A     -0.495592   146A     -0.493208   147A     -0.487834
     148A     -0.485031   149A     -0.481718   150A     -0.481710
     151A     -0.470343   152A     -0.470325   153A     -0.450959
     154A     -0.450881   155A     -0.439059   156A     -0.439049
     157A     -0.404734   158A     -0.404712   159A     -0.403360
     160A     -0.375405   161A     -0.375402   162A     -0.349119
     163A     -0.337626   164A     -0.336541   165A     -0.336484
     166A     -0.311047   167A     -0.298109   168A     -0.284333
     169A     -0.284279   170A     -0.224885   171A     -0.224819

  @DF-RHF Final Energy: -2055.89416987745471

   => Energetics <=

    Nuclear Repulsion Energy =           6452.5568002797781446
    One-Electron Energy =              -15636.4907022954776039
    Two-Electron Energy =                7128.0397321382442897
    Total Energy =                      -2055.8941698774542601
 Dipole X            :          0.0000124            0.0000419            0.0000543
 Dipole Y            :          0.0000645           -0.0000426            0.0000220
 Dipole Z            :        246.3758725         -246.3739970            0.0018754
 Magnitude           :                                                    0.0018764

    SAPT Results
  --------------------------------------------------------------------------------------------------------
    Electrostatics                  3.79547030 [mEh]       2.38169357 [kcal/mol]       9.96500591 [kJ/mol]
      Elst10,r                      3.79547030 [mEh]       2.38169357 [kcal/mol]       9.96500591 [kJ/mol]

    Exchange                       25.26291002 [mEh]      15.85271537 [kcal/mol]      66.32776112 [kJ/mol]
      Exch10                       25.26291002 [mEh]      15.85271537 [kcal/mol]      66.32776112 [kJ/mol]
      Exch10(S^2)                  25.19337536 [mEh]      15.80908172 [kcal/mol]      66.14519791 [kJ/mol]

    Induction                     -19.61372407 [mEh]     -12.30779767 [kcal/mol]     -51.49582546 [kJ/mol]
      Ind20,r                     -26.72899893 [mEh]     -16.77270005 [kcal/mol]     -70.17697703 [kJ/mol]
      Exch-Ind20,r                  9.10521630 [mEh]       5.71360949 [kcal/mol]      23.90574209 [kJ/mol]
      delta HF,r (2)               -1.98994144 [mEh]      -1.24870710 [kcal/mol]      -5.22459053 [kJ/mol]

    Dispersion                    -15.26505240 [mEh]      -9.57896500 [kcal/mol]     -40.07838956 [kJ/mol]
      Disp20                      -18.30651144 [mEh]     -11.48750936 [kcal/mol]     -48.06373917 [kJ/mol]
      Exch-Disp20                   3.04145904 [mEh]       1.90854436 [kcal/mol]       7.98534962 [kJ/mol]
      Disp20 (SS)                  -9.15325572 [mEh]      -5.74375468 [kcal/mol]     -24.03186959 [kJ/mol]
      Disp20 (OS)                  -9.15325572 [mEh]      -5.74375468 [kcal/mol]     -24.03186959 [kJ/mol]
      Exch-Disp20 (SS)              1.73599707 [mEh]       1.08935461 [kcal/mol]       4.55785967 [kJ/mol]
      Exch-Disp20 (OS)              1.30546197 [mEh]       0.81918976 [kcal/mol]       3.42748994 [kJ/mol]

  Total HF                          9.44465625 [mEh]       5.92661127 [kcal/mol]      24.79694157 [kJ/mol]
  Total SAPT0                      -5.82039615 [mEh]      -3.65235372 [kcal/mol]     -15.28144798 [kJ/mol]

  Special recipe for scaled SAPT0 (see Manual):
    Electrostatics sSAPT0           3.79547030 [mEh]       2.38169357 [kcal/mol]       9.96500591 [kJ/mol]
    Exchange sSAPT0                25.26291002 [mEh]      15.85271537 [kcal/mol]      66.32776112 [kJ/mol]
    Induction sSAPT0              -19.53812359 [mEh]     -12.26035765 [kcal/mol]     -51.29733641 [kJ/mol]
    Dispersion sSAPT0             -15.23979921 [mEh]      -9.56311838 [kcal/mol]     -40.01208731 [kJ/mol]
  Total sSAPT0                     -5.71954247 [mEh]      -3.58906708 [kcal/mol]     -15.01665668 [kJ/mol]
  --------------------------------------------------------------------------------------------------------

*** Psi4 exiting successfully. Buy a developer a beer!
