                               Psi4 1.9 release

  ==> Input File <==

--------------------------------------------------------------------------
memory 32 GB # how much memory is available ! Depends on the nodes/cores !

molecule dimer {
# monomer A
+1 1    # Charge and multiplicity
C  0.680067 1.417258 -6.815929
C -0.680504 1.419286 -6.815545
N -1.085635 1.420284 -5.497221
C  0.000108 1.423560 -4.715820
C -2.477365 1.469690 -5.029242
N  1.085222 1.420284 -5.497221
H  1.385146 1.409430 -7.633368
H -1.385302 1.419096 -7.633214
H -0.000009 1.425307 -3.634731
C  2.478117 1.403392 -5.032123
H  2.490592 1.430737 -3.941870
H  2.967028 0.489946 -5.379299
H  3.001428 2.278875 -5.423595
H -2.857359 2.491761 -5.109201
H -3.082679 0.799606 -5.642306
H -2.518128 1.142706 -3.989294
--
# monomer B
0 1     # Charge and multiplicity
C   1.22531237526482      0.70753866091955      0.00613762728373
C   1.22532433589282     -0.70753852257020     -0.00619318228664
C   -0.00000567409046      1.41496628609039     -0.00672680580738
C   2.45644923379077      1.41832825917820      0.00902448468363
C   0.00001130712078     -1.41497612663474      0.00347275151708
C   -1.22530046906674      0.70754574598412      0.00838914760619
C   2.45643823516184     -1.41832293188077     -0.00843833914343
C   -0.00000085313587      2.83680140328112     -0.00913035594137
C   3.68182717731192      0.70931832800114     -0.00808954934571
C   2.45512052870677      2.83422403348893     -0.00819210630633
C   3.68182158506039     -0.70933346742900      0.00798293467272
C   -1.22531311884624     -0.70752714354401     -0.00512042085974
C   1.22670006104402      3.54346985599427      0.00816696660346
C   0.00000526469929     -2.83678176723568      0.00832091913869
C   -2.45643555300670      1.41831729028492      0.00842454345199
C   2.45512389762097     -2.83422965658853      0.00783102630520
C   -1.22671388474763      3.54346943575023      0.00827029982280
C   4.91451777504333      1.42717324448953     -0.00160886631602
C   3.69315067131765      3.54279566454522     -0.00155906667985
C   -2.45643712022637     -1.41831290883911     -0.00846337726810
C   1.22670532178455     -3.54347386990643     -0.00780316414624
C   -2.45512491866593      2.83421703463423     -0.00818572995999
C   4.91452486062398     -1.42718653794377      0.00136387641845
C   1.22142509354026      4.97013443726031      0.00150231067809
C   4.89300870916237      2.82518837202648     -0.00039219795739
C   -1.22669652864725     -3.54347062507680     -0.00753595973677
C   -3.68181849668397      0.70932533873199     -0.00807686886569
C   3.69314758099218     -3.54280096939050      0.00148176697923
C   -1.22143177215231      4.97012866986289      0.00168580605083
C   6.13477145276790      0.68054831910577     -0.00083909176631
C   3.65678936045204      4.97295361556775     -0.00065042889723
C   -2.45512642789169     -2.83421472106065      0.00758666850712
C   -3.68181869921921     -0.70932533146830      0.00810055625144
C   4.89301309775526     -2.82519973363176      0.00021895393805
C   -0.00000059327114      5.65044773803267      0.00045449734393
C   6.13477559217374     -0.68055448207492      0.00042622874941
C   2.47813196269732      5.65357712333155      0.00063835075260
C   1.22142288457925     -4.97012668293268     -0.00129718634452
C   -3.69316190412301      3.54279732619245     -0.00139355922051
C   -1.22142804110313     -4.97011793159564     -0.00140994817719
C   -4.91452132810043      1.42717581899491     -0.00153192130862
C   3.65678749952045     -4.97295485423912      0.00080007163680
C   -2.47813805026426      5.65357479452875      0.00092287576113
C   -3.69314125872231     -3.54278984697859      0.00136564082345
C   -4.91451200321153     -1.42718062802730      0.00139857359209
C   -0.00000552908399     -5.65043791501335      0.00005899322272
C   -4.89302000425900      2.82518897091939     -0.00040227981744
C   2.47812647313991     -5.65357317188818     -0.00029052915548
C   -3.65679823041642      4.97295655404175     -0.00047374852278
C   -4.89299899901461     -2.82519139505969      0.00006491824035
C   -2.47812801824129     -5.65356579800621     -0.00056571680280
C   -6.13477002348955      0.68054913825639     -0.00086464346868
C   -3.65678835334731     -4.97294365097028      0.00058578382008
C   -6.13476456307132     -0.68055354348201      0.00040575295444
H   5.83528897565761      3.36927626695423      0.00396712770529
H   7.07385965258860      1.22821762089947     -0.00037744837300
H   4.60066374401555      5.51238117445323     -0.00014522814529
H   5.83528386714679     -3.36930568472863     -0.00423551337640
H   -0.00001167146422      6.73853104613662     -0.00389474766392
H   7.07386165167227     -1.22822657074368     -0.00008250934481
H   2.47331421164041      6.74068466339473      0.00017162982210
H   4.60066897122302     -5.51237575717576      0.00039007446835
H   -2.47331820069565      6.74068209160650      0.00047297644710
H   -0.00000978838621     -6.73852780445195      0.00458867820736
H   -5.83530143450167      3.36927132229595      0.00410314985360
H   2.47330840367253     -6.74068500242887      0.00027980126949
H   -4.60067436136587      5.51237839860371      0.00002010017831
H   -5.83527902699321     -3.36928859177951     -0.00451481925734
H   -2.47329986759855     -6.74067870613986     -0.00016951527498
H   -7.07385728692578      1.22822084484047     -0.00046143985387
H   -4.60067330624313     -5.51236229778631      0.00021776644566
H   -7.07385645456741     -1.22822025997701     -0.00017736581114

    units angstrom      # Angstroms are the default
    no_reorient         # Geometry fixed, default
    symmetry c1         # C1 symmetry, default
}

set {
    scf_type DF         # Density fitting, faster than exact integrals
    freeze_core True    # Freeze core electrons
    basis jun-cc-pVDZ   # Jun-cc-pVDZ basis set, recommended for sSAPT0 in https://doi.org/10.1063/1.4867135
}

energy('ssapt0')        # Compute sSAPT0 energy, includes also SAPT0
--------------------------------------------------------------------------

  //              Dimer HF             //
    Molecular point group: c1
  Charge       = 1
  Multiplicity = 1
  Basis Set: JUN-CC-PVDZ
    Blend: JUN-CC-PVDZ
  Basis Set: (JUN-CC-PVDZ AUX)
    Blend: JUN-CC-PVDZ-JKFIT
  @DF-RHF Final Energy: -2359.20700834929676
    Total Energy =                      -2359.2070083492963022
 Dipole X            :         -0.0021307            0.0006313           -0.0014994
 Dipole Y            :         -5.8202054            7.4856329            1.6654276
 Dipole Z            :         19.7215122          -27.3041965           -7.5826843
 Magnitude           :                                                    7.7634240
  //            Monomer A HF           //
    Molecular point group: c1
  Multiplicity = 1
  Basis Set: JUN-CC-PVDZ
    Blend: JUN-CC-PVDZ
  Basis Set: (JUN-CC-PVDZ AUX)
    Blend: JUN-CC-PVDZ-JKFIT
  @DF-RHF Final Energy:  -303.29754413504622
    Total Energy =                       -303.2975441350462233
  //            Monomer B HF           //
    Molecular point group: c1

    Geometry (in Angstrom), charge = 0, multiplicity = 1:

       Center              X                  Y                   Z               Mass
    ------------   -----------------  -----------------  -----------------  -----------------
      Gh(C)           0.680066520158     1.235968212970    -6.103645630242    12.000000000000
      Gh(C)          -0.680504479842     1.237996212970    -6.103261630242    12.000000000000
      Gh(N)          -1.085635479842     1.238994212970    -4.784937630242    14.003074004430
      Gh(C)           0.000107520158     1.242270212970    -4.003536630242    12.000000000000
      Gh(C)          -2.477365479842     1.288400212970    -4.316958630242    12.000000000000
      Gh(N)           1.085221520158     1.238994212970    -4.784937630242    14.003074004430
      Gh(H)           1.385145520158     1.228140212970    -6.921084630242     1.007825032230
      Gh(H)          -1.385302479842     1.237806212970    -6.920930630242     1.007825032230
      Gh(H)          -0.000009479842     1.244017212970    -2.922447630242     1.007825032230
      Gh(C)           2.478116520158     1.222102212970    -4.319839630242    12.000000000000
      Gh(H)           2.490591520158     1.249447212970    -3.229586630242     1.007825032230
      Gh(H)           2.967027520158     0.308656212970    -4.667015630242     1.007825032230
      Gh(H)           3.001427520158     2.097585212970    -4.711311630242     1.007825032230
      Gh(H)          -2.857359479842     2.310471212970    -4.396917630242     1.007825032230
      Gh(H)          -3.082679479842     0.618316212970    -4.930022630242     1.007825032230
      Gh(H)          -2.518128479842     0.961416212970    -3.277010630242     1.007825032230
         C            1.225311895423     0.526248873889     0.718420997042    12.000000000000
         C            1.225323856051    -0.888828309601     0.706090187471    12.000000000000
         C           -0.000006153932     1.233676499060     0.705556563951    12.000000000000
         C            2.456448753949     1.237038472148     0.721307854442    12.000000000000
         C            0.000010827279    -1.596265913665     0.715756121275    12.000000000000
         C           -1.225300948908     0.526255958954     0.720672517364    12.000000000000
         C            2.456437755320    -1.599612718911     0.703845030614    12.000000000000
         C           -0.000001332978     2.655511616251     0.703153013817    12.000000000000
         C            3.681826697470     0.528028540971     0.704193820412    12.000000000000
         C            2.455120048865     2.652934246459     0.704091263452    12.000000000000
         C            3.681821105219    -0.890623254459     0.720266304431    12.000000000000
         C           -1.225313598688    -0.888816930574     0.707162948898    12.000000000000
         C            1.226699581202     3.362180068964     0.720450336361    12.000000000000
         C            0.000004784858    -3.018071554266     0.720604288897    12.000000000000
         C           -2.456436032848     1.237027503255     0.720707913210    12.000000000000
         C            2.455123417779    -3.015519443619     0.720114396063    12.000000000000
         C           -1.226714364589     3.362179648720     0.720553669581    12.000000000000
         C            4.914517295202     1.245883457459     0.710674503442    12.000000000000
         C            3.693150191476     3.361505877515     0.710724303078    12.000000000000
         C           -2.456437600068    -1.599602695869     0.703819992490    12.000000000000
         C            1.226704841943    -3.724763656937     0.704480205612    12.000000000000
         C           -2.455125398508     2.652927247604     0.704097639798    12.000000000000
         C            4.914524380782    -1.608476324974     0.713647246176    12.000000000000
         C            1.221424613699     4.788844650230     0.713785680436    12.000000000000
         C            4.893008229321     2.643898584996     0.711891171800    12.000000000000
         C           -1.226697008489    -3.724760412107     0.704747410021    12.000000000000
         C           -3.681818976526     0.528035551702     0.704206500892    12.000000000000
         C            3.693147101150    -3.724090756421     0.713765136737    12.000000000000
         C           -1.221432251994     4.788838882833     0.713969175809    12.000000000000
         C            6.134770972926     0.499258532075     0.711444277992    12.000000000000
         C            3.656788880610     4.791663828537     0.711632940861    12.000000000000
         C           -2.455126907733    -3.015504508091     0.719870038265    12.000000000000
         C           -3.681819179061    -0.890615118499     0.720383926009    12.000000000000
         C            4.893012617914    -3.006489520662     0.712502323696    12.000000000000
         C           -0.000001073113     5.469157951002     0.712737867102    12.000000000000
         C            6.134775112332    -0.861844269105     0.712709598507    12.000000000000
         C            2.478131482856     5.472287336301     0.712921720510    12.000000000000
         C            1.221422404738    -5.151416469963     0.710986183413    12.000000000000
         C           -3.693162383965     3.361507539162     0.710889810537    12.000000000000
         C           -1.221428520945    -5.151407718626     0.710873421581    12.000000000000
         C           -4.914521807942     1.245886031965     0.710751448449    12.000000000000
         C            3.656787019679    -5.154244641269     0.713083441395    12.000000000000
         C           -2.478138530106     5.472285007498     0.713206245519    12.000000000000
         C           -3.693141738564    -3.724079634009     0.713649010581    12.000000000000
         C           -4.914512483053    -1.608470415058     0.713681943350    12.000000000000
         C           -0.000006008926    -5.831727702044     0.712342362981    12.000000000000
         C           -4.893020484101     2.643899183889     0.711881089940    12.000000000000
         C            2.478125993298    -5.834862958919     0.711992840602    12.000000000000
         C           -3.656798710258     4.791666767011     0.711809621235    12.000000000000
         C           -4.892999478856    -3.006481182090     0.712348287998    12.000000000000
         C           -2.478128498083    -5.834855585037     0.711717652955    12.000000000000
         C           -6.134770503331     0.499259351226     0.711418726289    12.000000000000
         C           -3.656788833189    -5.154233438001     0.712869153578    12.000000000000
         C           -6.134765042913    -0.861843330512     0.712689122712    12.000000000000
         H            5.835288495816     3.187986479924     0.716250497463     1.007825032230
         H            7.073859172747     1.046927833869     0.711905921385     1.007825032230
         H            4.600663264174     5.331091387423     0.712138141613     1.007825032230
         H            5.835283387305    -3.550595471759     0.708047856381     1.007825032230
         H           -0.000012151306     6.557241259106     0.708388622094     1.007825032230
         H            7.073861171831    -1.409516357774     0.712200860413     1.007825032230
         H            2.473313731799     6.559394876364     0.712454999580     1.007825032230
         H            4.600668491381    -5.693665544206     0.712673444226     1.007825032230
         H           -2.473318680537     6.559392304576     0.712756346205     1.007825032230
         H           -0.000010268228    -6.919817591482     0.716872047965     1.007825032230
         H           -5.835301914343     3.187981535266     0.716386519611     1.007825032230
         H            2.473307923831    -6.921974789459     0.712563171027     1.007825032230
         H           -4.600674841208     5.331088611573     0.712303469936     1.007825032230
         H           -5.835279506835    -3.550578378810     0.707768550501     1.007825032230
         H           -2.473300347440    -6.921968493170     0.712113854483     1.007825032230
         H           -7.073857766768     1.046931057810     0.711821929904     1.007825032230
         H           -4.600673786085    -5.693652084817     0.712501136204     1.007825032230
         H           -7.073856934409    -1.409510047007     0.712106003947     1.007825032230

  Charge       = 0
  Multiplicity = 1
  Basis Set: JUN-CC-PVDZ
    Blend: JUN-CC-PVDZ
  Basis Set: (JUN-CC-PVDZ AUX)
    Blend: JUN-CC-PVDZ-JKFIT

    Orbital Energies [Eh]
    ---------------------

    Doubly Occupied:

       1A    -11.260587     2A    -11.260150     3A    -11.260114
       4A    -11.259436     5A    -11.259409     6A    -11.259241
       7A    -11.259036     8A    -11.258952     9A    -11.258949
      10A    -11.258628    11A    -11.258612    12A    -11.258540
      13A    -11.258478    14A    -11.258478    15A    -11.258471
      16A    -11.258440    17A    -11.258436    18A    -11.258417
      19A    -11.258410    20A    -11.258403    21A    -11.258401
      22A    -11.258320    23A    -11.258300    24A    -11.258014
      25A    -11.257334    26A    -11.257274    27A    -11.257272
      28A    -11.257141    29A    -11.257138    30A    -11.257056
      31A    -11.256429    32A    -11.256360    33A    -11.256358
      34A    -11.256252    35A    -11.256249    36A    -11.256203
      37A    -11.252305    38A    -11.252302    39A    -11.252275
      40A    -11.252272    41A    -11.252271    42A    -11.252268
      43A    -11.251422    44A    -11.251404    45A    -11.251403
      46A    -11.251393    47A    -11.251393    48A    -11.251375
      49A    -11.250867    50A    -11.250863    51A    -11.250836
      52A    -11.250834    53A    -11.250832    54A    -11.250829
      55A     -1.244066    56A     -1.219824    57A     -1.219806
      58A     -1.189547    59A     -1.189531    60A     -1.180949
      61A     -1.157558    62A     -1.148980    63A     -1.135503
      64A     -1.135480    65A     -1.113192    66A     -1.113189
      67A     -1.082428    68A     -1.082425    69A     -1.078604
      70A     -1.065981    71A     -1.065975    72A     -1.039395
      73A     -1.024275    74A     -1.021776    75A     -1.021719
      76A     -1.017725    77A     -1.012794    78A     -0.987024
      79A     -0.986971    80A     -0.961879    81A     -0.961828
      82A     -0.894287    83A     -0.894263    84A     -0.887932
      85A     -0.886181    86A     -0.886131    87A     -0.881393
      88A     -0.881345    89A     -0.861896    90A     -0.837406
      91A     -0.818205    92A     -0.816613    93A     -0.812130
      94A     -0.812127    95A     -0.794688    96A     -0.794673
      97A     -0.746616    98A     -0.744853    99A     -0.733413
     100A     -0.733410   101A     -0.732179   102A     -0.732155
     103A     -0.716495   104A     -0.698974   105A     -0.698951
     106A     -0.693588   107A     -0.693558   108A     -0.661228
     109A     -0.653114   110A     -0.651155   111A     -0.650251
     112A     -0.650243   113A     -0.639360   114A     -0.639345
     115A     -0.629710   116A     -0.627517   117A     -0.627506
     118A     -0.606468   119A     -0.605806   120A     -0.601655
     121A     -0.599742   122A     -0.599690   123A     -0.593625
     124A     -0.591222   125A     -0.591200   126A     -0.585275
     127A     -0.576431   128A     -0.576375   129A     -0.567321
     130A     -0.567302   131A     -0.565954   132A     -0.565939
     133A     -0.558723   134A     -0.554844   135A     -0.554843
     136A     -0.538589   137A     -0.538588   138A     -0.538220
     139A     -0.538218   140A     -0.529710   141A     -0.528162
     142A     -0.522872   143A     -0.522853   144A     -0.500499
     145A     -0.495625   146A     -0.493231   147A     -0.487861
     148A     -0.485063   149A     -0.481748   150A     -0.481746
     151A     -0.470354   152A     -0.470332   153A     -0.451013
     154A     -0.450942   155A     -0.439084   156A     -0.439075
     157A     -0.404755   158A     -0.404739   159A     -0.403374
     160A     -0.375436   161A     -0.375426   162A     -0.349129
     163A     -0.337610   164A     -0.336575   165A     -0.336490
     166A     -0.311106   167A     -0.298104   168A     -0.284357
     169A     -0.284300   170A     -0.224926   171A     -0.224860

  @DF-RHF Final Energy: -2055.89348559491782

   => Energetics <=

    Nuclear Repulsion Energy =           6452.5568002797781446
    One-Electron Energy =              -15636.4822501650323829
    Two-Electron Energy =                7128.0319642903350541
    Total Energy =                      -2055.8934855949182747
 Dipole X            :          0.0001737           -0.0000085            0.0001652
 Dipole Y            :        117.1697595         -117.1648546            0.0049049
 Dipole Z            :       -460.3303409          460.3375655            0.0072246
 Magnitude           :                                                    0.0087339

    SAPT Results
  --------------------------------------------------------------------------------------------------------
    Electrostatics                -10.27851078 [mEh]      -6.44986289 [kcal/mol]     -26.98622632 [kJ/mol]
      Elst10,r                    -10.27851078 [mEh]      -6.44986289 [kcal/mol]     -26.98622632 [kJ/mol]

    Exchange                        0.19752707 [mEh]       0.12395011 [kcal/mol]       0.51860724 [kJ/mol]
      Exch10                        0.19752707 [mEh]       0.12395011 [kcal/mol]       0.51860724 [kJ/mol]
      Exch10(S^2)                   0.19751120 [mEh]       0.12394015 [kcal/mol]       0.51856560 [kJ/mol]

    Induction                      -5.89763562 [mEh]      -3.70082223 [kcal/mol]     -15.48424020 [kJ/mol]
      Ind20,r                      -5.63848522 [mEh]      -3.53820290 [kcal/mol]     -14.80384092 [kJ/mol]
      Exch-Ind20,r                  0.04135768 [mEh]       0.02595234 [kcal/mol]       0.10858458 [kJ/mol]
      delta HF,r (2)               -0.30050808 [mEh]      -0.18857167 [kcal/mol]      -0.78898386 [kJ/mol]

    Dispersion                     -5.00412778 [mEh]      -3.14013759 [kcal/mol]     -13.13833567 [kJ/mol]
      Disp20                       -5.02907750 [mEh]      -3.15579377 [kcal/mol]     -13.20384115 [kJ/mol]
      Exch-Disp20                   0.02494972 [mEh]       0.01565618 [kcal/mol]       0.06550547 [kJ/mol]
      Disp20 (SS)                  -2.51453875 [mEh]      -1.57789689 [kcal/mol]      -6.60192057 [kJ/mol]
      Disp20 (OS)                  -2.51453875 [mEh]      -1.57789689 [kcal/mol]      -6.60192057 [kJ/mol]
      Exch-Disp20 (SS)              0.01655519 [mEh]       0.01038854 [kcal/mol]       0.04346565 [kJ/mol]
      Exch-Disp20 (OS)              0.00839452 [mEh]       0.00526764 [kcal/mol]       0.02203982 [kJ/mol]

  Total HF                        -15.97861933 [mEh]     -10.02673501 [kcal/mol]     -41.95185928 [kJ/mol]
  Total SAPT0                     -20.98274711 [mEh]     -13.16687260 [kcal/mol]     -55.09019495 [kJ/mol]

  Special recipe for scaled SAPT0 (see Manual):
    Electrostatics sSAPT0         -10.27851078 [mEh]      -6.44986289 [kcal/mol]     -26.98622632 [kJ/mol]
    Exchange sSAPT0                 0.19752707 [mEh]       0.12395011 [kcal/mol]       0.51860724 [kJ/mol]
    Induction sSAPT0               -5.89762566 [mEh]      -3.70081597 [kcal/mol]     -15.48421403 [kJ/mol]
    Dispersion sSAPT0              -5.00412177 [mEh]      -3.14013382 [kcal/mol]     -13.13831989 [kJ/mol]
  Total sSAPT0                    -20.98273113 [mEh]     -13.16686257 [kcal/mol]     -55.09015300 [kJ/mol]
  --------------------------------------------------------------------------------------------------------

*** Psi4 exiting successfully. Buy a developer a beer!
