                               Psi4 1.9 release

  ==> Input File <==

--------------------------------------------------------------------------
memory 64 GB # how much memory is available ! Depends on the nodes/cores !

molecule dimer {
# monomer A
-1 1    # Charge and multiplicity
B -0.000046  0.000337 6.799994
F -1.153597  0.000048 7.615641
F  1.153661 -0.000581 7.615641
F -0.000019 -1.153637 5.984360
F -0.000019  1.153978 5.984360
--
# monomer B
0 1     # Charge and multiplicity
C   -3.66844126402057      7.80375217008252      0.00190004133558
C   -4.84759871934653      7.13124183134024     -0.00046653359696
C   -4.89495929917518      5.69633040353158     -0.00103944469517
C   -3.65374067877320      4.98073034095895      0.00662099703436
C   -2.40942512149445      7.11398103667468      0.00209438359570
C   -2.42547734410473      5.68112195090346     -0.00491050527438
C   -1.19474401643570      7.78614419430947      0.00356656413763
C   0.03795902893699      7.09942164575698      0.00139585983271
C   0.03033258741920      5.66948955970466     -0.00408752508301
C   -1.20098450790502      4.96927034791531      0.00488220885047
C   1.27795782581485      7.77285944319479      0.00277170839332
C   2.48535808472416      7.08769688523756      0.00049722048857
C   2.48612868491717      5.65477081024076     -0.00644052849921
C   1.25408291964399      4.95607811366431      0.00518741308898
C   3.75171459140595      7.76391215098033      0.00062407186893
C   4.92356605618520      7.07878077698995     -0.00143240883900
C   4.95560727132542      5.64344746336949     -0.00159282164606
C   3.70680153420475      4.94121020833308      0.00349873852374
H   -3.65852113775815      8.89082741913536      0.00358502958574
H   -1.18921332975660      8.87412108735996      0.00753844057883
H   1.28429423888630      8.86083343548850      0.00693053253426
H   3.75354208679975      8.85103527897216      0.00214659618464
H   5.86995870320703      7.61379483465560     -0.00235777588134
H   -5.78823170750226      7.67630221293400     -0.00202638095293
C   -6.09197395869619      4.99326001364347     -0.00291168518608
C   -6.12866148031747      3.58258016879823     -0.00171050815740
C   -3.66457974004527      3.56418217974434     -0.00463560277484
C   -4.89429820469869      2.86108077590057      0.00453338221034
C   -2.43733499489796      2.84761165708481      0.00719617576166
C   -1.20922785759670      3.54788693497833     -0.00648285103018
C   1.24714157216223      3.53468075142962     -0.00729145743546
C   0.01517603956900      2.83311183930540      0.00439272578912
C   2.46764517244071      2.82128997725533      0.00449278391269
C   3.70254947457969      3.52466015442405     -0.00899517692985
C   6.14498038638375      4.92757236613191     -0.00282626685777
C   6.16658835886151      3.51658447594213     -0.00065971342101
C   4.92460995845939      2.80840792535402      0.00587903281610
H   7.08990550964105      5.46688776622306     -0.00658814770723
H   -7.03104175110130      5.54268795285765     -0.00714490013730
C   -7.33969804112295      2.85841153457957     -0.00333767559888
C   -7.36488195805880      1.47032337158330     -0.00157213747140
C   -4.90350460894690      1.44442681216000     -0.00628840166334
C   -6.13225715261081      0.73993935705394      0.00600164231964
C   -3.67687480051673      0.72669714267312      0.00433931473643
C   -2.44565658606518      1.42964113326212     -0.00597039546461
C   -1.22360068130162      0.71532450163492      0.00545886906656
C   0.00763786931376      1.41738314923765      0.00392452278437
C   1.23121980774686      0.70211669058719     -0.01490206287210
C   2.46082110053113      1.40329203612573      0.00460244601878
C   3.68443025419614      0.68719842821222      0.00377365974158
C   4.91870890153864      1.39173456118907     -0.00862816189375
C   7.36980207796101      2.77948220318441     -0.00242013321349
C   7.38016266612146      1.39121750785509     -0.00087345036788
C   6.13979953912259      0.67411862320065      0.00545489144369
H   -8.27919079934664      3.40711804112415     -0.00763522772059
H   8.31511347147953      3.31811809662368     -0.00663070901292
C   -8.59175593758115      0.72483255304480     -0.00123170985383
C   -8.59902460370342     -0.63263980622873      0.00089141472904
C   -6.13981313911873     -0.67413663715361     -0.00609792660607
C   -7.38018411213749     -1.39126618958160      0.00131813493501
C   -4.91868448025621     -1.39175501803000      0.00624257154343
C   -3.68443829568458     -0.68723731573599     -0.00478966852105
C   -2.46081704024768     -1.40334517882457      0.00575341766833
C   -1.23116201232071     -0.70217386488055     -0.00636696112346
C   -0.00756962538737     -1.41741884941102      0.00108956317991
C   1.22364771588843     -0.71527537726392      0.01109518512883
C   2.44567064933149     -1.42964328900682     -0.00065482763106
C   3.67686670284649     -0.72670743155550     -0.00479541202602
C   6.13224884641929     -0.73997883984993     -0.00632338623858
C   4.90351914550401     -1.44445752054090      0.00751768830159
C   8.59901484869081      0.63260386666793     -0.00101133422380
C   8.59174548810050     -0.72485086719319      0.00072504603735
C   7.36486276438985     -1.47033266560598      0.00049486934466
H   -9.52830597181814      1.27684744919284     -0.00270163681798
H   9.54141097460619      1.17457248844457     -0.00206336648518
C   -7.36983790976868     -2.77954514593389      0.00312634335708
C   -4.92459910905015     -2.80843725734101     -0.00460528907921
C   -6.16662249566744     -3.51665219282533      0.00169655107992
C   -3.70251035970491     -3.52468154912026      0.00571878010666
C   -2.46764698511392     -2.82132596280400     -0.00632585824990
C   -0.01513347410770     -2.83314164539971     -0.00604426974092
C   -1.24712184122656     -3.53473217556300      0.00551968366725
C   1.20924506964357     -3.54791467864352      0.00805871345849
C   2.43733602215464     -2.84764173817541     -0.00608104485234
C   4.89430234377080     -2.86112296828604     -0.00526030478103
C   3.66461525504104     -3.56421984553201      0.00761911515957
C   6.12863901474565     -3.58258405771778      0.00096495711699
C   7.33967266469532     -2.85841330737039      0.00248018319869
H   -9.54144911125902     -1.17456346666430      0.00226083090216
H   9.52826186807155     -1.27691907390448      0.00197485379837
H   -8.31516504384864     -3.31814985321231      0.00729857188773
H   8.27915514249207     -3.40714078989363      0.00681973918158
C   -6.14499418870218     -4.92764727278338      0.00302254913999
C   -3.70678334799751     -4.94126171411716     -0.00679841894792
C   -4.95559005800169     -5.64349397349412      0.00116871569699
C   -2.48612132622665     -5.65478557440947      0.00614125209662
C   -1.25405833548005     -4.95612205000132     -0.00503435388927
C   1.20101257386816     -4.96928038819302     -0.00385322963129
C   -0.03033667441341     -5.66952030313900      0.00398997003238
C   3.65375010132847     -4.98074377541453     -0.00309522988330
C   2.42549269587528     -5.68117463552727      0.00628170066869
C   6.09196561781097     -4.99325796338655      0.00325918379042
C   4.89497644461045     -5.69634842095790      0.00202298796027
H   -7.08989238804069     -5.46699984223871      0.00742531082125
H   7.03105520920009     -5.54265853633254      0.00683896355417
C   -4.92354532219813     -7.07882109967734      0.00061394679214
C   -2.48534208823777     -7.08772807792913     -0.00189594564379
C   -3.75168589177895     -7.76394715763627     -0.00170126671874
C   -0.03794895698805     -7.09946487446944     -0.00168022049625
C   -1.27795610040136     -7.77290438466689     -0.00366491325785
C   2.40944432072629     -7.11402201200282     -0.00081701968533
C   1.19474993715296     -7.78618536556242     -0.00296931056689
C   4.84762105249800     -7.13126211057943      0.00168979497423
C   3.66847160587561     -7.80378799294376     -0.00065863938960
H   -5.86994035041618     -7.61383059804164      0.00215798365757
H   5.78824962538815     -7.67633218931421      0.00281691445618
H   -3.75352693944918     -8.85107156923607     -0.00353718114765
H   -1.28430440589466     -8.86087539249706     -0.00809229711623
H   1.18922157469537     -8.87416062058945     -0.00706194725726
H   3.65854661482387     -8.89086063405326     -0.00231318081200

    units angstrom      # Angstroms are the default
    no_reorient         # Geometry fixed, default
    symmetry c1         # C1 symmetry, default
}

set {
    scf_type DF         # Density fitting, faster than exact integrals
    freeze_core True    # Freeze core electrons
    basis jun-cc-pVDZ   # Jun-cc-pVDZ basis set, recommended for sSAPT0 in https://doi.org/10.1063/1.4867135
}

energy('ssapt0')        # Compute sSAPT0 energy, includes also SAPT0
--------------------------------------------------------------------------

  //              Dimer HF             //
    Molecular point group: c1
  Charge       = -1
  Multiplicity = 1
  Basis Set: JUN-CC-PVDZ
    Blend: JUN-CC-PVDZ
  Basis Set: (JUN-CC-PVDZ AUX)
    Blend: JUN-CC-PVDZ-JKFIT
  @DF-RHF Final Energy: -4073.10399271854385
    Total Energy =                      -4073.1039927185447596
 Dipole X            :         -0.0002753           -0.0001188           -0.0003941
 Dipole Y            :          0.0012178           -0.0002727            0.0009451
 Dipole Z            :         29.4931624          -40.4681508          -10.9749885
 Magnitude           :                                                   10.9749885
  //            Monomer A HF           //
    Molecular point group: c1
  Multiplicity = 1
  Basis Set: JUN-CC-PVDZ
    Blend: JUN-CC-PVDZ
  Basis Set: (JUN-CC-PVDZ AUX)
    Blend: JUN-CC-PVDZ-JKFIT
  @DF-RHF Final Energy:  -422.77148600963312
    Total Energy =                       -422.7714860096331222
  //            Monomer B HF           //
    Molecular point group: c1

    Geometry (in Angstrom), charge = 0, multiplicity = 1:

       Center              X                  Y                   Z               Mass
    ------------   -----------------  -----------------  -----------------  -----------------
      Gh(B)          -0.000050191042     0.000351518223     6.331637360237    11.009305360000
      Gh(F)          -1.153601191042     0.000062518223     7.147284360237    18.998403162730
      Gh(F)           1.153656808958    -0.000566481777     7.147284360237    18.998403162730
      Gh(F)          -0.000023191042    -1.153622481777     5.516003360237    18.998403162730
      Gh(F)          -0.000023191042     1.153992518223     5.516003360237    18.998403162730
         C           -3.668445455062     7.803766688305    -0.466456598427    12.000000000000
         C           -4.847602910388     7.131256349563    -0.468823173360    12.000000000000
         C           -4.894963490217     5.696344921754    -0.469396084458    12.000000000000
         C           -3.653744869815     4.980744859182    -0.461735642728    12.000000000000
         C           -2.409429312536     7.113995554897    -0.466262256167    12.000000000000
         C           -2.425481535146     5.681136469126    -0.473267145037    12.000000000000
         C           -1.194748207477     7.786158712532    -0.464790075625    12.000000000000
         C            0.037954837895     7.099436163980    -0.466960779930    12.000000000000
         C            0.030328396378     5.669504077927    -0.472444164846    12.000000000000
         C           -1.200988698947     4.969284866138    -0.463474430912    12.000000000000
         C            1.277953634773     7.772873961417    -0.465584931369    12.000000000000
         C            2.485353893683     7.087711403460    -0.467859419274    12.000000000000
         C            2.486124493876     5.654785328463    -0.474797168262    12.000000000000
         C            1.254078728602     4.956092631887    -0.463169226674    12.000000000000
         C            3.751710400364     7.763926669203    -0.467732567894    12.000000000000
         C            4.923561865144     7.078795295213    -0.469789048602    12.000000000000
         C            4.955603080284     5.643461981592    -0.469949461409    12.000000000000
         C            3.706797343163     4.941224726556    -0.464857901239    12.000000000000
         H           -3.658525328800     8.890841937358    -0.464771610177     1.007825032230
         H           -1.189217520798     8.874135605583    -0.460818199184     1.007825032230
         H            1.284290047845     8.860847953711    -0.461426107228     1.007825032230
         H            3.753537895758     8.851049797195    -0.466210043578     1.007825032230
         H            5.869954512165     7.613809352878    -0.470714415644     1.007825032230
         H           -5.788235898544     7.676316731157    -0.470383020715     1.007825032230
         C           -6.091978149738     4.993274531866    -0.471268324949    12.000000000000
         C           -6.128665671359     3.582594687021    -0.470067147920    12.000000000000
         C           -3.664583931087     3.564196697967    -0.472992242537    12.000000000000
         C           -4.894302395740     2.861095294123    -0.463823257552    12.000000000000
         C           -2.437339185940     2.847626175307    -0.461160464001    12.000000000000
         C           -1.209232048638     3.547901453201    -0.474839490793    12.000000000000
         C            1.247137381121     3.534695269652    -0.475648097198    12.000000000000
         C            0.015171848527     2.833126357528    -0.463963913973    12.000000000000
         C            2.467640981399     2.821304495478    -0.463863855850    12.000000000000
         C            3.702545283538     3.524674672647    -0.477351816692    12.000000000000
         C            6.144976195342     4.927586884354    -0.471182906620    12.000000000000
         C            6.166584167820     3.516598994165    -0.469016353184    12.000000000000
         C            4.924605767418     2.808422443577    -0.462477606946    12.000000000000
         H            7.089901318599     5.466902284446    -0.474944787470     1.007825032230
         H           -7.031045942143     5.542702471080    -0.475501539900     1.007825032230
         C           -7.339702232165     2.858426052802    -0.471694315361    12.000000000000
         C           -7.364886149100     1.470337889806    -0.469928777234    12.000000000000
         C           -4.903508799989     1.444441330383    -0.474645041426    12.000000000000
         C           -6.132261343652     0.739953875277    -0.462354997443    12.000000000000
         C           -3.676878991558     0.726711660896    -0.464017325026    12.000000000000
         C           -2.445660777107     1.429655651485    -0.474327035227    12.000000000000
         C           -1.223604872343     0.715339019858    -0.462897770696    12.000000000000
         C            0.007633678272     1.417397667460    -0.464432116978    12.000000000000
         C            1.231215616705     0.702131208810    -0.483258702635    12.000000000000
         C            2.460816909489     1.403306554348    -0.463754193744    12.000000000000
         C            3.684426063155     0.687212946435    -0.464582980021    12.000000000000
         C            4.918704710497     1.391749079412    -0.476984801656    12.000000000000
         C            7.369797886919     2.779496721407    -0.470776772976    12.000000000000
         C            7.380158475080     1.391232026078    -0.469230090130    12.000000000000
         C            6.139795348081     0.674133141423    -0.462901748319    12.000000000000
         H           -8.279194990388     3.407132559347    -0.475991867483     1.007825032230
         H            8.315109280438     3.318132614846    -0.474987348775     1.007825032230
         C           -8.591760128623     0.724847071267    -0.469588349616    12.000000000000
         C           -8.599028794745    -0.632625288006    -0.467465225034    12.000000000000
         C           -6.139817330160    -0.674122118931    -0.474454566369    12.000000000000
         C           -7.380188303179    -1.391251671359    -0.467038504828    12.000000000000
         C           -4.918688671298    -1.391740499807    -0.462114068219    12.000000000000
         C           -3.684442486726    -0.687222797513    -0.473146308284    12.000000000000
         C           -2.460821231289    -1.403330660602    -0.462603222094    12.000000000000
         C           -1.231166203362    -0.702159346658    -0.474723600886    12.000000000000
         C           -0.007573816429    -1.417404331188    -0.467267076583    12.000000000000
         C            1.223643524847    -0.715260859041    -0.457261454634    12.000000000000
         C            2.445666458290    -1.429628770784    -0.469011467394    12.000000000000
         C            3.676862511805    -0.726692913333    -0.473152051789    12.000000000000
         C            6.132244655378    -0.739964321627    -0.474680026001    12.000000000000
         C            4.903514954462    -1.444443002318    -0.460838951461    12.000000000000
         C            8.599010657649     0.632618384891    -0.469367973986    12.000000000000
         C            8.591741297059    -0.724836348971    -0.467631593725    12.000000000000
         C            7.364858573348    -1.470318147383    -0.467861770418    12.000000000000
         H           -9.528310162860     1.276861967415    -0.471058276581     1.007825032230
         H            9.541406783565     1.174587006667    -0.470420006248     1.007825032230
         C           -7.369842100810    -2.779530627711    -0.465230296405    12.000000000000
         C           -4.924603300092    -2.808422739118    -0.472961928842    12.000000000000
         C           -6.166626686709    -3.516637674603    -0.466660088683    12.000000000000
         C           -3.702514550747    -3.524667030898    -0.462637859656    12.000000000000
         C           -2.467651176156    -2.821311444581    -0.474682498012    12.000000000000
         C           -0.015137665149    -2.833127127177    -0.474400909503    12.000000000000
         C           -1.247126032268    -3.534717657340    -0.462836956095    12.000000000000
         C            1.209240878602    -3.547900160421    -0.460297926304    12.000000000000
         C            2.437331831113    -2.847627219953    -0.474437684615    12.000000000000
         C            4.894298152729    -2.861108450063    -0.473616944544    12.000000000000
         C            3.664611063999    -3.564205327309    -0.460737524603    12.000000000000
         C            6.128634823704    -3.582569539495    -0.467391682646    12.000000000000
         C            7.339668473654    -2.858398789148    -0.465876456564    12.000000000000
         H           -9.541453302301    -1.174548948442    -0.466095808860     1.007825032230
         H            9.528257677030    -1.276904555682    -0.466381785964     1.007825032230
         H           -8.315169234890    -3.318135334990    -0.461058067875     1.007825032230
         H            8.279150951450    -3.407126271671    -0.461536900581     1.007825032230
         C           -6.144998379744    -4.927632754561    -0.465334090623    12.000000000000
         C           -3.706787539039    -4.941247195895    -0.475155058710    12.000000000000
         C           -4.955594249043    -5.643479455272    -0.467187924066    12.000000000000
         C           -2.486125517268    -5.654771056187    -0.462215387666    12.000000000000
         C           -1.254062526522    -4.956107531779    -0.473390993652    12.000000000000
         C            1.201008382827    -4.969265869970    -0.472209869394    12.000000000000
         C           -0.030340865455    -5.669505784916    -0.464366669730    12.000000000000
         C            3.653745910287    -4.980729257192    -0.471451869646    12.000000000000
         C            2.425488504834    -5.681160117305    -0.462074939094    12.000000000000
         C            6.091961426769    -4.993243445164    -0.465097455972    12.000000000000
         C            4.894972253569    -5.696333902735    -0.466333651802    12.000000000000
         H           -7.089896579082    -5.466985324016    -0.460931328941     1.007825032230
         H            7.031051018158    -5.542644018110    -0.461517676208     1.007825032230
         C           -4.923549513240    -7.078806581455    -0.467742692970    12.000000000000
         C           -2.485346279279    -7.087713559707    -0.470252585406    12.000000000000
         C           -3.751690082821    -7.763932639414    -0.470057906481    12.000000000000
         C           -0.037953148030    -7.099450356247    -0.470036860259    12.000000000000
         C           -1.277960291443    -7.772889866444    -0.472021553020    12.000000000000
         C            2.409440129685    -7.114007493780    -0.469173659448    12.000000000000
         C            1.194745746111    -7.786170847340    -0.471325950329    12.000000000000
         C            4.847616861456    -7.131247592357    -0.466666844788    12.000000000000
         C            3.668467414834    -7.803773474721    -0.469015279152    12.000000000000
         H           -5.869944541458    -7.613816079819    -0.466198656105     1.007825032230
         H            5.788245434347    -7.676317671092    -0.465539725306     1.007825032230
         H           -3.753531130491    -8.851057051013    -0.471893820910     1.007825032230
         H           -1.284308596936    -8.860860874274    -0.476448936879     1.007825032230
         H            1.189217383654    -8.874146102367    -0.475418587020     1.007825032230
         H            3.658542423782    -8.890846115831    -0.470669820575     1.007825032230

  Charge       = 0
  Multiplicity = 1
  Basis Set: JUN-CC-PVDZ
    Blend: JUN-CC-PVDZ
  Basis Set: (JUN-CC-PVDZ AUX)
    Blend: JUN-CC-PVDZ-JKFIT

    Orbital Energies [Eh]
    ---------------------

    Doubly Occupied:

       1A    -11.264057     2A    -11.263743     3A    -11.263740
       4A    -11.263400     5A    -11.263398     6A    -11.263362
       7A    -11.263205     8A    -11.263179     9A    -11.263175
      10A    -11.263018    11A    -11.262859    12A    -11.262855
      13A    -11.262376    14A    -11.262373    15A    -11.262299
      16A    -11.262298    17A    -11.262248    18A    -11.262212
      19A    -11.262168    20A    -11.262129    21A    -11.262127
      22A    -11.261974    23A    -11.261969    24A    -11.261850
      25A    -11.261835    26A    -11.261821    27A    -11.261817
      28A    -11.261770    29A    -11.261762    30A    -11.261689
      31A    -11.261663    32A    -11.261660    33A    -11.261634
      34A    -11.261633    35A    -11.261612    36A    -11.261565
      37A    -11.261424    38A    -11.261413    39A    -11.261407
      40A    -11.261400    41A    -11.261395    42A    -11.261386
      43A    -11.261382    44A    -11.261368    45A    -11.261363
      46A    -11.261340    47A    -11.261337    48A    -11.261332
      49A    -11.261179    50A    -11.261148    51A    -11.261146
      52A    -11.261066    53A    -11.261065    54A    -11.260994
      55A    -11.260026    56A    -11.260012    57A    -11.260010
      58A    -11.259981    59A    -11.259979    60A    -11.259963
      61A    -11.259403    62A    -11.259378    63A    -11.259376
      64A    -11.259323    65A    -11.259321    66A    -11.259292
      67A    -11.259030    68A    -11.259013    69A    -11.259010
      70A    -11.258983    71A    -11.258981    72A    -11.258969
      73A    -11.254597    74A    -11.254596    75A    -11.254595
      76A    -11.254592    77A    -11.254586    78A    -11.254584
      79A    -11.253750    80A    -11.253748    81A    -11.253745
      82A    -11.253744    83A    -11.253741    84A    -11.253736
      85A    -11.253665    86A    -11.253663    87A    -11.253660
      88A    -11.253659    89A    -11.253657    90A    -11.253651
      91A    -11.253125    92A    -11.253124    93A    -11.253123
      94A    -11.253120    95A    -11.253114    96A    -11.253112
      97A     -1.254151    98A     -1.239154    99A     -1.239154
     100A     -1.220596   101A     -1.220592   102A     -1.215624
     103A     -1.201157   104A     -1.195727   105A     -1.188315
     106A     -1.188313   107A     -1.173877   108A     -1.173873
     109A     -1.155788   110A     -1.155784   111A     -1.152893
     112A     -1.144830   113A     -1.144827   114A     -1.128710
     115A     -1.114869   116A     -1.113271   117A     -1.112654
     118A     -1.112640   119A     -1.111720   120A     -1.088571
     121A     -1.088556   122A     -1.077067   123A     -1.077066
     124A     -1.067766   125A     -1.067736   126A     -1.065137
     127A     -1.046930   128A     -1.046923   129A     -1.040619
     130A     -1.038840   131A     -1.038839   132A     -1.025404
     133A     -1.021577   134A     -1.021527   135A     -1.007301
     136A     -1.006947   137A     -1.003920   138A     -1.000647
     139A     -1.000598   140A     -0.991175   141A     -0.971134
     142A     -0.971086   143A     -0.956001   144A     -0.955945
     145A     -0.905776   146A     -0.905734   147A     -0.905647
     148A     -0.905607   149A     -0.904533   150A     -0.892547
     151A     -0.892488   152A     -0.890531   153A     -0.890473
     154A     -0.889605   155A     -0.872330   156A     -0.869142
     157A     -0.851660   158A     -0.848026   159A     -0.848004
     160A     -0.845762   161A     -0.843166   162A     -0.834695
     163A     -0.834682   164A     -0.828221   165A     -0.828218
     166A     -0.784685   167A     -0.784674   168A     -0.783812
     169A     -0.783785   170A     -0.782431   171A     -0.782411
     172A     -0.782196   173A     -0.767120   174A     -0.760969
     175A     -0.750744   176A     -0.733595   177A     -0.727201
     178A     -0.727189   179A     -0.725227   180A     -0.724668
     181A     -0.724650   182A     -0.718671   183A     -0.713934
     184A     -0.713928   185A     -0.699704   186A     -0.699692
     187A     -0.686305   188A     -0.686070   189A     -0.686067
     190A     -0.682293   191A     -0.682282   192A     -0.678927
     193A     -0.653757   194A     -0.651005   195A     -0.650975
     196A     -0.649981   197A     -0.649965   198A     -0.649677
     199A     -0.641100   200A     -0.641074   201A     -0.640202
     202A     -0.639266   203A     -0.636172   204A     -0.636146
     205A     -0.629273   206A     -0.617664   207A     -0.615411
     208A     -0.615391   209A     -0.608924   210A     -0.608917
     211A     -0.599187   212A     -0.599149   213A     -0.598882
     214A     -0.598757   215A     -0.598730   216A     -0.598209
     217A     -0.595178   218A     -0.595166   219A     -0.594851
     220A     -0.594414   221A     -0.592099   222A     -0.592095
     223A     -0.587570   224A     -0.577883   225A     -0.577874
     226A     -0.575736   227A     -0.575733   228A     -0.573499
     229A     -0.569569   230A     -0.568307   231A     -0.568284
     232A     -0.566888   233A     -0.566877   234A     -0.561003
     235A     -0.558866   236A     -0.558848   237A     -0.558520
     238A     -0.554499   239A     -0.550633   240A     -0.547562
     241A     -0.544343   242A     -0.535041   243A     -0.534999
     244A     -0.533661   245A     -0.533639   246A     -0.528188
     247A     -0.528173   248A     -0.527967   249A     -0.517326
     250A     -0.517292   251A     -0.515428   252A     -0.515423
     253A     -0.509751   254A     -0.509734   255A     -0.498146
     256A     -0.496578   257A     -0.496552   258A     -0.493846
     259A     -0.493836   260A     -0.489479   261A     -0.481559
     262A     -0.477491   263A     -0.477488   264A     -0.474111
     265A     -0.469582   266A     -0.466659   267A     -0.466654
     268A     -0.458880   269A     -0.446871   270A     -0.446810
     271A     -0.441104   272A     -0.440829   273A     -0.440806
     274A     -0.434760   275A     -0.433976   276A     -0.407453
     277A     -0.407428   278A     -0.386489   279A     -0.386441
     280A     -0.385801   281A     -0.385800   282A     -0.383833
     283A     -0.354403   284A     -0.354387   285A     -0.350741
     286A     -0.338174   287A     -0.335675   288A     -0.335604
     289A     -0.332784   290A     -0.332777   291A     -0.307169
     292A     -0.302031   293A     -0.301969   294A     -0.300917
     295A     -0.286246   296A     -0.256530   297A     -0.253583
     298A     -0.253530   299A     -0.204340   300A     -0.204251

  @DF-RHF Final Energy: -3650.33759205591878

   => Energetics <=

    Nuclear Repulsion Energy =          15611.4211649754324753
    One-Electron Energy =              -36072.0745745186432032
    Two-Electron Energy =               16810.3158174872914969
    Total Energy =                      -3650.3375920559192309
 Dipole X            :         -0.0009051            0.0001983           -0.0007067
 Dipole Y            :          0.0011015           -0.0013163           -0.0002148
 Dipole Z            :        531.0338485         -531.0360750           -0.0022265
 Magnitude           :                                                    0.0023458

    SAPT Results
  --------------------------------------------------------------------------------------------------------
    Electrostatics                  8.61601895 [mEh]       5.40663352 [kcal/mol]      22.62135463 [kJ/mol]
      Elst10,r                      8.61601895 [mEh]       5.40663352 [kcal/mol]      22.62135463 [kJ/mol]

    Exchange                       -0.00014261 [mEh]      -0.00008949 [kcal/mol]      -0.00037442 [kJ/mol]
      Exch10                       -0.00014261 [mEh]      -0.00008949 [kcal/mol]      -0.00037442 [kJ/mol]
      Exch10(S^2)                  -0.00014261 [mEh]      -0.00008949 [kcal/mol]      -0.00037442 [kJ/mol]

    Induction                      -3.53052933 [mEh]      -2.21544060 [kcal/mol]      -9.26940348 [kJ/mol]
      Ind20,r                      -3.54973371 [mEh]      -2.22749153 [kcal/mol]      -9.31982457 [kJ/mol]
      Exch-Ind20,r                  0.00027040 [mEh]       0.00016968 [kcal/mol]       0.00070994 [kJ/mol]
      delta HF,r (2)                0.01893398 [mEh]       0.01188125 [kcal/mol]       0.04971115 [kJ/mol]

    Dispersion                     -0.54139901 [mEh]      -0.33973301 [kcal/mol]      -1.42144291 [kJ/mol]
      Disp20                       -0.54159781 [mEh]      -0.33985776 [kcal/mol]      -1.42196486 [kJ/mol]
      Exch-Disp20                   0.00019880 [mEh]       0.00012475 [kcal/mol]       0.00052195 [kJ/mol]
      Disp20 (SS)                  -0.27079891 [mEh]      -0.16992888 [kcal/mol]      -0.71098243 [kJ/mol]
      Disp20 (OS)                  -0.27079891 [mEh]      -0.16992888 [kcal/mol]      -0.71098243 [kJ/mol]
      Exch-Disp20 (SS)              0.00015283 [mEh]       0.00009590 [kcal/mol]       0.00040126 [kJ/mol]
      Exch-Disp20 (OS)              0.00004597 [mEh]       0.00002884 [kcal/mol]       0.00012069 [kJ/mol]

  Total HF                          5.08534701 [mEh]       3.19110342 [kcal/mol]      13.35157673 [kJ/mol]
  Total SAPT0                       4.54394800 [mEh]       2.85137042 [kcal/mol]      11.93013382 [kJ/mol]

  Special recipe for scaled SAPT0 (see Manual):
    Electrostatics sSAPT0           8.61601895 [mEh]       5.40663352 [kcal/mol]      22.62135463 [kJ/mol]
    Exchange sSAPT0                -0.00014261 [mEh]      -0.00008949 [kcal/mol]      -0.00037442 [kJ/mol]
    Induction sSAPT0               -3.53052933 [mEh]      -2.21544060 [kcal/mol]      -9.26940348 [kJ/mol]
    Dispersion sSAPT0              -0.54139901 [mEh]      -0.33973301 [kcal/mol]      -1.42144291 [kJ/mol]
  Total sSAPT0                      4.54394800 [mEh]       2.85137042 [kcal/mol]      11.93013382 [kJ/mol]
  --------------------------------------------------------------------------------------------------------

*** Psi4 exiting successfully. Buy a developer a beer!
