                               Psi4 1.9 release

  ==> Input File <==

--------------------------------------------------------------------------
memory 32 GB # how much memory is available ! Depends on the nodes/cores !

molecule dimer {
# monomer A
-1 1    # Charge and multiplicity
B -0.000046  0.000337 2.999994
F -1.153597  0.000048 3.815641
F  1.153661 -0.000581 3.815641
F -0.000019 -1.153637 2.184360
F -0.000019  1.153978 2.184360
--
# monomer B
0 1     # Charge and multiplicity
C   1.22531237526482      0.70753866091955      0.00613762728373
C   1.22532433589282     -0.70753852257020     -0.00619318228664
C   -0.00000567409046      1.41496628609039     -0.00672680580738
C   2.45644923379077      1.41832825917820      0.00902448468363
C   0.00001130712078     -1.41497612663474      0.00347275151708
C   -1.22530046906674      0.70754574598412      0.00838914760619
C   2.45643823516184     -1.41832293188077     -0.00843833914343
C   -0.00000085313587      2.83680140328112     -0.00913035594137
C   3.68182717731192      0.70931832800114     -0.00808954934571
C   2.45512052870677      2.83422403348893     -0.00819210630633
C   3.68182158506039     -0.70933346742900      0.00798293467272
C   -1.22531311884624     -0.70752714354401     -0.00512042085974
C   1.22670006104402      3.54346985599427      0.00816696660346
C   0.00000526469929     -2.83678176723568      0.00832091913869
C   -2.45643555300670      1.41831729028492      0.00842454345199
C   2.45512389762097     -2.83422965658853      0.00783102630520
C   -1.22671388474763      3.54346943575023      0.00827029982280
C   4.91451777504333      1.42717324448953     -0.00160886631602
C   3.69315067131765      3.54279566454522     -0.00155906667985
C   -2.45643712022637     -1.41831290883911     -0.00846337726810
C   1.22670532178455     -3.54347386990643     -0.00780316414624
C   -2.45512491866593      2.83421703463423     -0.00818572995999
C   4.91452486062398     -1.42718653794377      0.00136387641845
C   1.22142509354026      4.97013443726031      0.00150231067809
C   4.89300870916237      2.82518837202648     -0.00039219795739
C   -1.22669652864725     -3.54347062507680     -0.00753595973677
C   -3.68181849668397      0.70932533873199     -0.00807686886569
C   3.69314758099218     -3.54280096939050      0.00148176697923
C   -1.22143177215231      4.97012866986289      0.00168580605083
C   6.13477145276790      0.68054831910577     -0.00083909176631
C   3.65678936045204      4.97295361556775     -0.00065042889723
C   -2.45512642789169     -2.83421472106065      0.00758666850712
C   -3.68181869921921     -0.70932533146830      0.00810055625144
C   4.89301309775526     -2.82519973363176      0.00021895393805
C   -0.00000059327114      5.65044773803267      0.00045449734393
C   6.13477559217374     -0.68055448207492      0.00042622874941
C   2.47813196269732      5.65357712333155      0.00063835075260
C   1.22142288457925     -4.97012668293268     -0.00129718634452
C   -3.69316190412301      3.54279732619245     -0.00139355922051
C   -1.22142804110313     -4.97011793159564     -0.00140994817719
C   -4.91452132810043      1.42717581899491     -0.00153192130862
C   3.65678749952045     -4.97295485423912      0.00080007163680
C   -2.47813805026426      5.65357479452875      0.00092287576113
C   -3.69314125872231     -3.54278984697859      0.00136564082345
C   -4.91451200321153     -1.42718062802730      0.00139857359209
C   -0.00000552908399     -5.65043791501335      0.00005899322272
C   -4.89302000425900      2.82518897091939     -0.00040227981744
C   2.47812647313991     -5.65357317188818     -0.00029052915548
C   -3.65679823041642      4.97295655404175     -0.00047374852278
C   -4.89299899901461     -2.82519139505969      0.00006491824035
C   -2.47812801824129     -5.65356579800621     -0.00056571680280
C   -6.13477002348955      0.68054913825639     -0.00086464346868
C   -3.65678835334731     -4.97294365097028      0.00058578382008
C   -6.13476456307132     -0.68055354348201      0.00040575295444
H   5.83528897565761      3.36927626695423      0.00396712770529
H   7.07385965258860      1.22821762089947     -0.00037744837300
H   4.60066374401555      5.51238117445323     -0.00014522814529
H   5.83528386714679     -3.36930568472863     -0.00423551337640
H   -0.00001167146422      6.73853104613662     -0.00389474766392
H   7.07386165167227     -1.22822657074368     -0.00008250934481
H   2.47331421164041      6.74068466339473      0.00017162982210
H   4.60066897122302     -5.51237575717576      0.00039007446835
H   -2.47331820069565      6.74068209160650      0.00047297644710
H   -0.00000978838621     -6.73852780445195      0.00458867820736
H   -5.83530143450167      3.36927132229595      0.00410314985360
H   2.47330840367253     -6.74068500242887      0.00027980126949
H   -4.60067436136587      5.51237839860371      0.00002010017831
H   -5.83527902699321     -3.36928859177951     -0.00451481925734
H   -2.47329986759855     -6.74067870613986     -0.00016951527498
H   -7.07385728692578      1.22822084484047     -0.00046143985387
H   -4.60067330624313     -5.51236229778631      0.00021776644566
H   -7.07385645456741     -1.22822025997701     -0.00017736581114

    units angstrom      # Angstroms are the default
    no_reorient         # Geometry fixed, default
    symmetry c1         # C1 symmetry, default
}

set {
    scf_type DF         # Density fitting, faster than exact integrals
    freeze_core True    # Freeze core electrons
    basis jun-cc-pVDZ   # Jun-cc-pVDZ basis set, recommended for sSAPT0 in https://doi.org/10.1063/1.4867135
}

energy('ssapt0')        # Compute sSAPT0 energy, includes also SAPT0
--------------------------------------------------------------------------

  //              Dimer HF             //
    Molecular point group: c1
  Charge       = -1
  Multiplicity = 1
  Basis Set: JUN-CC-PVDZ
    Blend: JUN-CC-PVDZ
  Basis Set: (JUN-CC-PVDZ AUX)
    Blend: JUN-CC-PVDZ-JKFIT
  @DF-RHF Final Energy: -2478.61213548173873
    Total Energy =                      -2478.6121354817387328
 Dipole X            :         -0.0001872           -0.0000160           -0.0002033
 Dipole Y            :         -0.0010877           -0.0001716           -0.0012594
 Dipole Z            :         15.0667420          -18.3908261           -3.3240840
 Magnitude           :                                                    3.3240843
  //            Monomer A HF           //
    Molecular point group: c1
  Multiplicity = 1
  Basis Set: JUN-CC-PVDZ
    Blend: JUN-CC-PVDZ
  Basis Set: (JUN-CC-PVDZ AUX)
    Blend: JUN-CC-PVDZ-JKFIT
  @DF-RHF Final Energy:  -422.77507417942098
    Total Energy =                       -422.7750741794209830
  //            Monomer B HF           //
    Molecular point group: c1

    Geometry (in Angstrom), charge = 0, multiplicity = 1:

       Center              X                  Y                   Z               Mass
    ------------   -----------------  -----------------  -----------------  -----------------
      Gh(B)          -0.000046449334     0.000336519434     2.653437262544    11.009305360000
      Gh(F)          -1.153597449334     0.000047519434     3.469084262544    18.998403162730
      Gh(F)           1.153660550666    -0.000581480566     3.469084262544    18.998403162730
      Gh(F)          -0.000019449334    -1.153637480566     1.837803262544    18.998403162730
      Gh(F)          -0.000019449334     1.153977519434     1.837803262544    18.998403162730
         C            1.225311925931     0.707538180353    -0.340419110173    12.000000000000
         C            1.225323886559    -0.707539003137    -0.352749919743    12.000000000000
         C           -0.000006123424     1.414965805524    -0.353283543264    12.000000000000
         C            2.456448784457     1.418327778612    -0.337532252773    12.000000000000
         C            0.000010857787    -1.414976607201    -0.343083985939    12.000000000000
         C           -1.225300918401     0.707545265418    -0.338167589850    12.000000000000
         C            2.456437785828    -1.418323412447    -0.354995076600    12.000000000000
         C           -0.000001302470     2.836800922715    -0.355687093398    12.000000000000
         C            3.681826727978     0.709317847435    -0.354646286802    12.000000000000
         C            2.455120079373     2.834223552923    -0.354748843763    12.000000000000
         C            3.681821135726    -0.709333947995    -0.338573802784    12.000000000000
         C           -1.225313568180    -0.707527624110    -0.351677158316    12.000000000000
         C            1.226699611710     3.543469375428    -0.338389770853    12.000000000000
         C            0.000004815365    -2.836782247802    -0.338235818318    12.000000000000
         C           -2.456436002341     1.418316809719    -0.338132194004    12.000000000000
         C            2.455123448287    -2.834230137155    -0.338725711151    12.000000000000
         C           -1.226714334082     3.543468955184    -0.338286437634    12.000000000000
         C            4.914517325709     1.427172763923    -0.348165603772    12.000000000000
         C            3.693150221984     3.542795183979    -0.348115804136    12.000000000000
         C           -2.456437569560    -1.418313389406    -0.355020114724    12.000000000000
         C            1.226704872451    -3.543474350473    -0.354359901603    12.000000000000
         C           -2.455125368000     2.834216554068    -0.354742467416    12.000000000000
         C            4.914524411290    -1.427187018510    -0.345192861038    12.000000000000
         C            1.221424644206     4.970133956694    -0.345054426778    12.000000000000
         C            4.893008259828     2.825187891460    -0.346948935414    12.000000000000
         C           -1.226696977981    -3.543471105643    -0.354092697193    12.000000000000
         C           -3.681818946018     0.709324858166    -0.354633606322    12.000000000000
         C            3.693147131658    -3.542801449957    -0.345074970477    12.000000000000
         C           -1.221432221486     4.970128189296    -0.344870931406    12.000000000000
         C            6.134771003434     0.680547838539    -0.347395829223    12.000000000000
         C            3.656788911118     4.972953135001    -0.347207166354    12.000000000000
         C           -2.455126877226    -2.834215201627    -0.338970068949    12.000000000000
         C           -3.681819148553    -0.709325812035    -0.338456181205    12.000000000000
         C            4.893012648421    -2.825200214198    -0.346337783518    12.000000000000
         C           -0.000001042605     5.650447257466    -0.346102240112    12.000000000000
         C            6.134775142840    -0.680554962641    -0.346130508707    12.000000000000
         C            2.478131513363     5.653576642765    -0.345918386704    12.000000000000
         C            1.221422435245    -4.970127163499    -0.347853923801    12.000000000000
         C           -3.693162353457     3.542796845626    -0.347950296677    12.000000000000
         C           -1.221428490437    -4.970118412162    -0.347966685634    12.000000000000
         C           -4.914521777434     1.427175338429    -0.348088658765    12.000000000000
         C            3.656787050187    -4.972955334806    -0.345756665820    12.000000000000
         C           -2.478138499598     5.653574313962    -0.345633861695    12.000000000000
         C           -3.693141708056    -3.542790327545    -0.345191096633    12.000000000000
         C           -4.914512452545    -1.427181108594    -0.345158163864    12.000000000000
         C           -0.000005978418    -5.650438395580    -0.346497744234    12.000000000000
         C           -4.893020453593     2.825188490353    -0.346959017274    12.000000000000
         C            2.478126023806    -5.653573652455    -0.346847266612    12.000000000000
         C           -3.656798679750     4.972956073475    -0.347030485979    12.000000000000
         C           -4.892999448349    -2.825191875626    -0.346491819216    12.000000000000
         C           -2.478128467575    -5.653566278573    -0.347122454259    12.000000000000
         C           -6.134770472823     0.680548657690    -0.347421380925    12.000000000000
         C           -3.656788802681    -4.972944131537    -0.345970953636    12.000000000000
         C           -6.134765012405    -0.680554024048    -0.346150984502    12.000000000000
         H            5.835288526324     3.369275786388    -0.342589609751     1.007825032230
         H            7.073859203255     1.228217140333    -0.346934185829     1.007825032230
         H            4.600663294682     5.512380693887    -0.346701965602     1.007825032230
         H            5.835283417813    -3.369306165295    -0.350792250833     1.007825032230
         H           -0.000012120798     6.738530565570    -0.350451485120     1.007825032230
         H            7.073861202338    -1.228227051310    -0.346639246801     1.007825032230
         H            2.473313762307     6.740684182828    -0.346385107634     1.007825032230
         H            4.600668521889    -5.512376237742    -0.346166662988     1.007825032230
         H           -2.473318650030     6.740681611040    -0.346083761009     1.007825032230
         H           -0.000010237720    -6.738528285018    -0.341968059249     1.007825032230
         H           -5.835301883836     3.369270841730    -0.342453587603     1.007825032230
         H            2.473307954339    -6.740685482995    -0.346276936187     1.007825032230
         H           -4.600674810700     5.512377918037    -0.346536637278     1.007825032230
         H           -5.835279476327    -3.369289072346    -0.351071556714     1.007825032230
         H           -2.473300316932    -6.740679186706    -0.346726252731     1.007825032230
         H           -7.073857736260     1.228220364274    -0.347018177310     1.007825032230
         H           -4.600673755577    -5.512362778353    -0.346338971011     1.007825032230
         H           -7.073856903901    -1.228220740543    -0.346734103267     1.007825032230

  Charge       = 0
  Multiplicity = 1
  Basis Set: JUN-CC-PVDZ
    Blend: JUN-CC-PVDZ
  Basis Set: (JUN-CC-PVDZ AUX)
    Blend: JUN-CC-PVDZ-JKFIT

    Orbital Energies [Eh]
    ---------------------

    Doubly Occupied:

       1A    -11.260738     2A    -11.260365     3A    -11.260182
       4A    -11.259533     5A    -11.259418     6A    -11.259263
       7A    -11.259015     8A    -11.258970     9A    -11.258916
      10A    -11.258670    11A    -11.258608    12A    -11.258504
      13A    -11.258457    14A    -11.258455    15A    -11.258446
      16A    -11.258414    17A    -11.258404    18A    -11.258388
      19A    -11.258387    20A    -11.258384    21A    -11.258372
      22A    -11.258340    23A    -11.258299    24A    -11.258111
      25A    -11.257281    26A    -11.257227    27A    -11.257216
      28A    -11.257091    29A    -11.257086    30A    -11.257006
      31A    -11.256371    32A    -11.256306    33A    -11.256299
      34A    -11.256196    35A    -11.256194    36A    -11.256149
      37A    -11.252279    38A    -11.252278    39A    -11.252274
      40A    -11.252272    41A    -11.252271    42A    -11.252268
      43A    -11.251369    44A    -11.251368    45A    -11.251363
      46A    -11.251360    47A    -11.251340    48A    -11.251339
      49A    -11.250841    50A    -11.250840    51A    -11.250835
      52A    -11.250833    53A    -11.250831    54A    -11.250829
      55A     -1.243974    56A     -1.219766    57A     -1.219743
      58A     -1.189504    59A     -1.189491    60A     -1.180872
      61A     -1.157537    62A     -1.148940    63A     -1.135421
      64A     -1.135409    65A     -1.113170    66A     -1.113160
      67A     -1.082368    68A     -1.082367    69A     -1.078538
      70A     -1.065961    71A     -1.065957    72A     -1.039363
      73A     -1.024195    74A     -1.021685    75A     -1.021650
      76A     -1.017710    77A     -1.012777    78A     -0.986965
      79A     -0.986915    80A     -0.961848    81A     -0.961802
      82A     -0.894262    83A     -0.894236    84A     -0.887858
      85A     -0.886106    86A     -0.886043    87A     -0.881341
      88A     -0.881296    89A     -0.861865    90A     -0.837404
      91A     -0.818171    92A     -0.816536    93A     -0.812084
      94A     -0.812071    95A     -0.794660    96A     -0.794652
      97A     -0.746564    98A     -0.744796    99A     -0.733343
     100A     -0.733335   101A     -0.732153   102A     -0.732129
     103A     -0.716443   104A     -0.698938   105A     -0.698935
     106A     -0.693536   107A     -0.693526   108A     -0.661197
     109A     -0.653024   110A     -0.651077   111A     -0.650229
     112A     -0.650225   113A     -0.639334   114A     -0.639331
     115A     -0.629662   116A     -0.627471   117A     -0.627446
     118A     -0.606471   119A     -0.605807   120A     -0.601605
     121A     -0.599694   122A     -0.599671   123A     -0.593595
     124A     -0.591129   125A     -0.591126   126A     -0.585268
     127A     -0.576389   128A     -0.576359   129A     -0.567306
     130A     -0.567292   131A     -0.565892   132A     -0.565867
     133A     -0.558652   134A     -0.554809   135A     -0.554805
     136A     -0.538568   137A     -0.538564   138A     -0.538166
     139A     -0.538154   140A     -0.529682   141A     -0.528191
     142A     -0.522832   143A     -0.522828   144A     -0.500476
     145A     -0.495580   146A     -0.493205   147A     -0.487816
     148A     -0.485026   149A     -0.481710   150A     -0.481703
     151A     -0.470377   152A     -0.470312   153A     -0.450943
     154A     -0.450860   155A     -0.439058   156A     -0.439048
     157A     -0.404715   158A     -0.404672   159A     -0.403342
     160A     -0.375418   161A     -0.375410   162A     -0.349115
     163A     -0.337524   164A     -0.336526   165A     -0.336468
     166A     -0.311049   167A     -0.298107   168A     -0.284279
     169A     -0.284227   170A     -0.224874   171A     -0.224813

  @DF-RHF Final Energy: -2055.89426646577931

   => Energetics <=

    Nuclear Repulsion Energy =           6452.5568002797781446
    One-Electron Energy =              -15636.4949012890865561
    Two-Electron Energy =                7128.0438345435295560
    Total Energy =                      -2055.8942664657797650
 Dipole X            :          0.0000513            0.0000112            0.0000625
 Dipole Y            :          0.0001839           -0.0000531            0.0001308
 Dipole Z            :        223.9779875         -223.9763267            0.0016609
 Magnitude           :                                                    0.0016672

    SAPT Results
  --------------------------------------------------------------------------------------------------------
    Electrostatics                -43.91524268 [mEh]     -27.55723082 [kcal/mol]    -115.29945376 [kJ/mol]
      Elst10,r                    -43.91524268 [mEh]     -27.55723082 [kcal/mol]    -115.29945376 [kJ/mol]

    Exchange                      133.71309006 [mEh]      83.90623078 [kcal/mol]     351.06366959 [kJ/mol]
      Exch10                      133.71309006 [mEh]      83.90623078 [kcal/mol]     351.06366959 [kJ/mol]
      Exch10(S^2)                 130.96402317 [mEh]      82.18116526 [kcal/mol]     343.84599545 [kJ/mol]

    Induction                     -32.59268392 [mEh]     -20.45221794 [kcal/mol]     -85.57207985 [kJ/mol]
      Ind20,r                     -86.49824336 [mEh]     -54.27846717 [kcal/mol]    -227.10110664 [kJ/mol]
      Exch-Ind20,r                 61.76749368 [mEh]      38.75968746 [kcal/mol]     162.17053233 [kJ/mol]
      delta HF,r (2)               -7.86193425 [mEh]      -4.93343822 [kcal/mol]     -20.64150553 [kJ/mol]

    Dispersion                    -28.41077275 [mEh]     -17.82802906 [kcal/mol]     -74.59247359 [kJ/mol]
      Disp20                      -39.54477833 [mEh]     -24.81472304 [kcal/mol]    -103.82480119 [kJ/mol]
      Exch-Disp20                  11.13400557 [mEh]       6.98669398 [kcal/mol]      29.23232761 [kJ/mol]
      Disp20 (SS)                 -19.77238916 [mEh]     -12.40736152 [kcal/mol]     -51.91240060 [kJ/mol]
      Disp20 (OS)                 -19.77238916 [mEh]     -12.40736152 [kcal/mol]     -51.91240060 [kJ/mol]
      Exch-Disp20 (SS)              5.88191653 [mEh]       3.69095835 [kcal/mol]      15.44296972 [kJ/mol]
      Exch-Disp20 (OS)              5.25208904 [mEh]       3.29573563 [kcal/mol]      13.78935789 [kJ/mol]

  Total HF                         57.20516346 [mEh]      35.89678202 [kcal/mol]     150.19213598 [kJ/mol]
  Total SAPT0                      28.79439071 [mEh]      18.06875296 [kcal/mol]      75.59966239 [kJ/mol]

  Special recipe for scaled SAPT0 (see Manual):
    Electrostatics sSAPT0         -43.91524268 [mEh]     -27.55723082 [kcal/mol]    -115.29945376 [kJ/mol]
    Exchange sSAPT0               133.71309006 [mEh]      83.90623078 [kcal/mol]     351.06366959 [kJ/mol]
    Induction sSAPT0              -28.62077829 [mEh]     -17.95980952 [kcal/mol]     -75.14384303 [kJ/mol]
    Dispersion sSAPT0             -27.69481009 [mEh]     -17.37875570 [kcal/mol]     -72.71271386 [kJ/mol]
  Total sSAPT0                     33.48225901 [mEh]      21.01043473 [kcal/mol]      87.90765893 [kJ/mol]
  --------------------------------------------------------------------------------------------------------

*** Psi4 exiting successfully. Buy a developer a beer!
