                               Psi4 1.9 release

  ==> Input File <==

--------------------------------------------------------------------------
memory 32 GB # how much memory is available ! Depends on the nodes/cores !

molecule dimer {
# monomer A
-1 1    # Charge and multiplicity
B -1.977592e-04  2.742729e-04 -2.799966
F  1.123153e-16  1.430594e-17 -1.387181
F  1.147860e+00  6.757812e-01 -3.271107
F  1.191806e-02 -1.332011e+00 -3.270905
F -1.159666e+00  6.560735e-01 -3.270826
--
# monomer B
0 1     # Charge and multiplicity
C   1.22531237526482      0.70753866091955      0.00613762728373
C   1.22532433589282     -0.70753852257020     -0.00619318228664
C   -0.00000567409046      1.41496628609039     -0.00672680580738
C   2.45644923379077      1.41832825917820      0.00902448468363
C   0.00001130712078     -1.41497612663474      0.00347275151708
C   -1.22530046906674      0.70754574598412      0.00838914760619
C   2.45643823516184     -1.41832293188077     -0.00843833914343
C   -0.00000085313587      2.83680140328112     -0.00913035594137
C   3.68182717731192      0.70931832800114     -0.00808954934571
C   2.45512052870677      2.83422403348893     -0.00819210630633
C   3.68182158506039     -0.70933346742900      0.00798293467272
C   -1.22531311884624     -0.70752714354401     -0.00512042085974
C   1.22670006104402      3.54346985599427      0.00816696660346
C   0.00000526469929     -2.83678176723568      0.00832091913869
C   -2.45643555300670      1.41831729028492      0.00842454345199
C   2.45512389762097     -2.83422965658853      0.00783102630520
C   -1.22671388474763      3.54346943575023      0.00827029982280
C   4.91451777504333      1.42717324448953     -0.00160886631602
C   3.69315067131765      3.54279566454522     -0.00155906667985
C   -2.45643712022637     -1.41831290883911     -0.00846337726810
C   1.22670532178455     -3.54347386990643     -0.00780316414624
C   -2.45512491866593      2.83421703463423     -0.00818572995999
C   4.91452486062398     -1.42718653794377      0.00136387641845
C   1.22142509354026      4.97013443726031      0.00150231067809
C   4.89300870916237      2.82518837202648     -0.00039219795739
C   -1.22669652864725     -3.54347062507680     -0.00753595973677
C   -3.68181849668397      0.70932533873199     -0.00807686886569
C   3.69314758099218     -3.54280096939050      0.00148176697923
C   -1.22143177215231      4.97012866986289      0.00168580605083
C   6.13477145276790      0.68054831910577     -0.00083909176631
C   3.65678936045204      4.97295361556775     -0.00065042889723
C   -2.45512642789169     -2.83421472106065      0.00758666850712
C   -3.68181869921921     -0.70932533146830      0.00810055625144
C   4.89301309775526     -2.82519973363176      0.00021895393805
C   -0.00000059327114      5.65044773803267      0.00045449734393
C   6.13477559217374     -0.68055448207492      0.00042622874941
C   2.47813196269732      5.65357712333155      0.00063835075260
C   1.22142288457925     -4.97012668293268     -0.00129718634452
C   -3.69316190412301      3.54279732619245     -0.00139355922051
C   -1.22142804110313     -4.97011793159564     -0.00140994817719
C   -4.91452132810043      1.42717581899491     -0.00153192130862
C   3.65678749952045     -4.97295485423912      0.00080007163680
C   -2.47813805026426      5.65357479452875      0.00092287576113
C   -3.69314125872231     -3.54278984697859      0.00136564082345
C   -4.91451200321153     -1.42718062802730      0.00139857359209
C   -0.00000552908399     -5.65043791501335      0.00005899322272
C   -4.89302000425900      2.82518897091939     -0.00040227981744
C   2.47812647313991     -5.65357317188818     -0.00029052915548
C   -3.65679823041642      4.97295655404175     -0.00047374852278
C   -4.89299899901461     -2.82519139505969      0.00006491824035
C   -2.47812801824129     -5.65356579800621     -0.00056571680280
C   -6.13477002348955      0.68054913825639     -0.00086464346868
C   -3.65678835334731     -4.97294365097028      0.00058578382008
C   -6.13476456307132     -0.68055354348201      0.00040575295444
H   5.83528897565761      3.36927626695423      0.00396712770529
H   7.07385965258860      1.22821762089947     -0.00037744837300
H   4.60066374401555      5.51238117445323     -0.00014522814529
H   5.83528386714679     -3.36930568472863     -0.00423551337640
H   -0.00001167146422      6.73853104613662     -0.00389474766392
H   7.07386165167227     -1.22822657074368     -0.00008250934481
H   2.47331421164041      6.74068466339473      0.00017162982210
H   4.60066897122302     -5.51237575717576      0.00039007446835
H   -2.47331820069565      6.74068209160650      0.00047297644710
H   -0.00000978838621     -6.73852780445195      0.00458867820736
H   -5.83530143450167      3.36927132229595      0.00410314985360
H   2.47330840367253     -6.74068500242887      0.00027980126949
H   -4.60067436136587      5.51237839860371      0.00002010017831
H   -5.83527902699321     -3.36928859177951     -0.00451481925734
H   -2.47329986759855     -6.74067870613986     -0.00016951527498
H   -7.07385728692578      1.22822084484047     -0.00046143985387
H   -4.60067330624313     -5.51236229778631      0.00021776644566
H   -7.07385645456741     -1.22822025997701     -0.00017736581114

    units angstrom      # Angstroms are the default
    no_reorient         # Geometry fixed, default
    symmetry c1         # C1 symmetry, default
}

set {
    scf_type DF         # Density fitting, faster than exact integrals
    freeze_core True    # Freeze core electrons
    basis jun-cc-pVDZ   # Jun-cc-pVDZ basis set, recommended for sSAPT0 in https://doi.org/10.1063/1.4867135
}

energy('ssapt0')        # Compute sSAPT0 energy, includes also SAPT0
--------------------------------------------------------------------------

  //              Dimer HF             //
    Molecular point group: c1
  Charge       = -1
  Multiplicity = 1
  Basis Set: JUN-CC-PVDZ
    Blend: JUN-CC-PVDZ
  Basis Set: (JUN-CC-PVDZ AUX)
    Blend: JUN-CC-PVDZ-JKFIT
  @DF-RHF Final Energy: -2478.45213960540286
    Total Energy =                      -2478.4521396054024081
 Dipole X            :         -0.0003175            0.0000481           -0.0002694
 Dipole Y            :          0.0006433           -0.0001453            0.0004980
 Dipole Z            :        -14.2649398           17.1650894            2.9001496
 Magnitude           :                                                    2.9001497
  //            Monomer A HF           //
    Molecular point group: c1
  Multiplicity = 1
  Basis Set: JUN-CC-PVDZ
    Blend: JUN-CC-PVDZ
  Basis Set: (JUN-CC-PVDZ AUX)
    Blend: JUN-CC-PVDZ-JKFIT
  @DF-RHF Final Energy:  -422.77594955113750
    Total Energy =                       -422.7759495511375007
  //            Monomer B HF           //
    Molecular point group: c1

    Geometry (in Angstrom), charge = 0, multiplicity = 1:

       Center              X                  Y                   Z               Mass
    ------------   -----------------  -----------------  -----------------  -----------------
      Gh(B)          -0.000198161052     0.000273808717    -2.476508718750    11.009305360000
      Gh(F)          -0.000000401852    -0.000000464183    -1.063723718750    18.998403162730
      Gh(F)           1.147859598148     0.675780735817    -2.947649718750    18.998403162730
      Gh(F)           0.011917658148    -1.332011464183    -2.947447718750    18.998403162730
      Gh(F)          -1.159666401852     0.656073035817    -2.947368718750    18.998403162730
         C            1.225311973413     0.707538196736     0.329594908534    12.000000000000
         C            1.225323934041    -0.707538986754     0.317264098964    12.000000000000
         C           -0.000006075942     1.414965821907     0.316730475443    12.000000000000
         C            2.456448831939     1.418327794995     0.332481765934    12.000000000000
         C            0.000010905269    -1.414976590818     0.326930032767    12.000000000000
         C           -1.225300870919     0.707545281801     0.331846428857    12.000000000000
         C            2.456437833310    -1.418323396064     0.315018942107    12.000000000000
         C           -0.000001254988     2.836800939098     0.314326925309    12.000000000000
         C            3.681826775460     0.709317863818     0.315367731905    12.000000000000
         C            2.455120126855     2.834223569306     0.315265174944    12.000000000000
         C            3.681821183209    -0.709333931612     0.331440215923    12.000000000000
         C           -1.225313520698    -0.707527607727     0.318336860391    12.000000000000
         C            1.226699659192     3.543469391811     0.331624247854    12.000000000000
         C            0.000004862847    -2.836782231419     0.331778200389    12.000000000000
         C           -2.456435954859     1.418316826102     0.331881824702    12.000000000000
         C            2.455123495769    -2.834230120772     0.331288307556    12.000000000000
         C           -1.226714286599     3.543468971567     0.331727581073    12.000000000000
         C            4.914517373191     1.427172780306     0.321848414934    12.000000000000
         C            3.693150269466     3.542795200362     0.321898214570    12.000000000000
         C           -2.456437522078    -1.418313373022     0.314993903982    12.000000000000
         C            1.226704919933    -3.543474334090     0.315654117104    12.000000000000
         C           -2.455125320518     2.834216570451     0.315271551290    12.000000000000
         C            4.914524458772    -1.427187002127     0.324821157669    12.000000000000
         C            1.221424691688     4.970133973077     0.324959591928    12.000000000000
         C            4.893008307311     2.825187907843     0.323065083293    12.000000000000
         C           -1.226696930499    -3.543471089260     0.315921321514    12.000000000000
         C           -3.681818898536     0.709324874549     0.315380412385    12.000000000000
         C            3.693147179140    -3.542801433574     0.324939048230    12.000000000000
         C           -1.221432174004     4.970128205680     0.325143087301    12.000000000000
         C            6.134771050916     0.680547854922     0.322618189484    12.000000000000
         C            3.656788958600     4.972953151384     0.322806852353    12.000000000000
         C           -2.455126829744    -2.834215185244     0.331043949757    12.000000000000
         C           -3.681819101071    -0.709325795652     0.331557837502    12.000000000000
         C            4.893012695903    -2.825200197815     0.323676235188    12.000000000000
         C           -0.000000995123     5.650447273849     0.323911778594    12.000000000000
         C            6.134775190322    -0.680554946258     0.323883510000    12.000000000000
         C            2.478131560845     5.653576659148     0.324095632003    12.000000000000
         C            1.221422482727    -4.970127147116     0.322160094906    12.000000000000
         C           -3.693162305975     3.542796862009     0.322063722030    12.000000000000
         C           -1.221428442955    -4.970118395779     0.322047333073    12.000000000000
         C           -4.914521729952     1.427175354812     0.321925359942    12.000000000000
         C            3.656787097669    -4.972955318422     0.324257352887    12.000000000000
         C           -2.478138452116     5.653574330345     0.324380157011    12.000000000000
         C           -3.693141660574    -3.542790311162     0.324822922074    12.000000000000
         C           -4.914512405063    -1.427181092211     0.324855854842    12.000000000000
         C           -0.000005930936    -5.650438379197     0.323516274473    12.000000000000
         C           -4.893020406111     2.825188506736     0.323055001433    12.000000000000
         C            2.478126071288    -5.653573636072     0.323166752095    12.000000000000
         C           -3.656798632268     4.972956089858     0.322983532728    12.000000000000
         C           -4.892999400866    -2.825191859243     0.323522199491    12.000000000000
         C           -2.478128420093    -5.653566262190     0.322891564448    12.000000000000
         C           -6.134770425341     0.680548674073     0.322592637782    12.000000000000
         C           -3.656788755199    -4.972944115154     0.324043065070    12.000000000000
         C           -6.134764964923    -0.680554007665     0.323863034205    12.000000000000
         H            5.835288573806     3.369275802771     0.327424408956     1.007825032230
         H            7.073859250737     1.228217156716     0.323079832877     1.007825032230
         H            4.600663342164     5.512380710270     0.323312053105     1.007825032230
         H            5.835283465295    -3.369306148912     0.319221767874     1.007825032230
         H           -0.000012073316     6.738530581953     0.319562533586     1.007825032230
         H            7.073861249820    -1.228227034927     0.323374771906     1.007825032230
         H            2.473313809789     6.740684199211     0.323628911072     1.007825032230
         H            4.600668569371    -5.512376221359     0.323847355719     1.007825032230
         H           -2.473318602548     6.740681627423     0.323930257697     1.007825032230
         H           -0.000010190238    -6.738528268635     0.328045959458     1.007825032230
         H           -5.835301836354     3.369270858113     0.327560431104     1.007825032230
         H            2.473308001821    -6.740685466612     0.323737082520     1.007825032230
         H           -4.600674763218     5.512377934420     0.323477381429     1.007825032230
         H           -5.835279428845    -3.369289055963     0.318942461993     1.007825032230
         H           -2.473300269450    -6.740679170323     0.323287765975     1.007825032230
         H           -7.073857688778     1.228220380657     0.322995841396     1.007825032230
         H           -4.600673708095    -5.512362761970     0.323675047696     1.007825032230
         H           -7.073856856419    -1.228220724160     0.323279915439     1.007825032230

  Charge       = 0
  Multiplicity = 1
  Basis Set: JUN-CC-PVDZ
    Blend: JUN-CC-PVDZ
  Basis Set: (JUN-CC-PVDZ AUX)
    Blend: JUN-CC-PVDZ-JKFIT

    Orbital Energies [Eh]
    ---------------------

    Doubly Occupied:

       1A    -11.260638     2A    -11.260182     3A    -11.260180
       4A    -11.259413     5A    -11.259412     6A    -11.259218
       7A    -11.258975     8A    -11.258905     9A    -11.258904
      10A    -11.258593    11A    -11.258589    12A    -11.258480
      13A    -11.258426    14A    -11.258425    15A    -11.258419
      16A    -11.258386    17A    -11.258380    18A    -11.258363
      19A    -11.258358    20A    -11.258354    21A    -11.258348
      22A    -11.258284    23A    -11.258280    24A    -11.258043
      25A    -11.257260    26A    -11.257200    27A    -11.257199
      28A    -11.257066    29A    -11.257066    30A    -11.256983
      31A    -11.256351    32A    -11.256282    33A    -11.256281
      34A    -11.256173    35A    -11.256173    36A    -11.256127
      37A    -11.252251    38A    -11.252250    39A    -11.252249
      40A    -11.252248    41A    -11.252245    42A    -11.252244
      43A    -11.251347    44A    -11.251346    45A    -11.251346
      46A    -11.251331    47A    -11.251330    48A    -11.251327
      49A    -11.250813    50A    -11.250812    51A    -11.250810
      52A    -11.250808    53A    -11.250806    54A    -11.250805
      55A     -1.243919    56A     -1.219721    57A     -1.219720
      58A     -1.189472    59A     -1.189464    60A     -1.180797
      61A     -1.157507    62A     -1.148915    63A     -1.135373
      64A     -1.135366    65A     -1.113140    66A     -1.113136
      67A     -1.082338    68A     -1.082331    69A     -1.078475
      70A     -1.065933    71A     -1.065929    72A     -1.039330
      73A     -1.024165    74A     -1.021622    75A     -1.021579
      76A     -1.017682    77A     -1.012749    78A     -0.986931
      79A     -0.986886    80A     -0.961815    81A     -0.961765
      82A     -0.894228    83A     -0.894201    84A     -0.887792
      85A     -0.886061    86A     -0.886003    87A     -0.881299
      88A     -0.881251    89A     -0.861835    90A     -0.837378
      91A     -0.818142    92A     -0.816505    93A     -0.812027
      94A     -0.812018    95A     -0.794632    96A     -0.794621
      97A     -0.746516    98A     -0.744762    99A     -0.733296
     100A     -0.733288   101A     -0.732119   102A     -0.732096
     103A     -0.716395   104A     -0.698910   105A     -0.698899
     106A     -0.693498   107A     -0.693482   108A     -0.661170
     109A     -0.652979   110A     -0.651041   111A     -0.650194
     112A     -0.650188   113A     -0.639303   114A     -0.639301
     115A     -0.629620   116A     -0.627420   117A     -0.627405
     118A     -0.606471   119A     -0.605783   120A     -0.601566
     121A     -0.599664   122A     -0.599633   123A     -0.593565
     124A     -0.591074   125A     -0.591063   126A     -0.585243
     127A     -0.576372   128A     -0.576366   129A     -0.567276
     130A     -0.567262   131A     -0.565844   132A     -0.565825
     133A     -0.558607   134A     -0.554773   135A     -0.554766
     136A     -0.538534   137A     -0.538533   138A     -0.538147
     139A     -0.538141   140A     -0.529649   141A     -0.528195
     142A     -0.522801   143A     -0.522794   144A     -0.500448
     145A     -0.495561   146A     -0.493174   147A     -0.487804
     148A     -0.484992   149A     -0.481672   150A     -0.481664
     151A     -0.470355   152A     -0.470337   153A     -0.450890
     154A     -0.450812   155A     -0.439033   156A     -0.439024
     157A     -0.404684   158A     -0.404660   159A     -0.403349
     160A     -0.375399   161A     -0.375396   162A     -0.349079
     163A     -0.337526   164A     -0.336495   165A     -0.336437
     166A     -0.311026   167A     -0.298099   168A     -0.284270
     169A     -0.284217   170A     -0.224839   171A     -0.224774

  @DF-RHF Final Energy: -2055.89478952976833

   => Energetics <=

    Nuclear Repulsion Energy =           6452.5568002797772351
    One-Electron Energy =              -15636.5071797230430093
    Two-Electron Energy =                7128.0555899134978972
    Total Energy =                      -2055.8947895297678770
 Dipole X            :          0.0000110            0.0000419            0.0000529
 Dipole Y            :          0.0000659           -0.0000426            0.0000234
 Dipole Z            :       -209.0463444          209.0445778           -0.0017666
 Magnitude           :                                                    0.0017675

    SAPT Results
  --------------------------------------------------------------------------------------------------------
    Electrostatics               -160.15755505 [mEh]    -100.50038309 [kcal/mol]    -420.49360284 [kJ/mol]
      Elst10,r                   -160.15755505 [mEh]    -100.50038309 [kcal/mol]    -420.49360284 [kJ/mol]

    Exchange                      412.33653677 [mEh]     258.74508321 [kcal/mol]    1082.58942815 [kJ/mol]
      Exch10                      412.33653677 [mEh]     258.74508321 [kcal/mol]    1082.58942815 [kJ/mol]
      Exch10(S^2)                 396.11145845 [mEh]     248.56369285 [kcal/mol]    1039.99049089 [kJ/mol]

    Induction                     -33.57950622 [mEh]     -21.07145828 [kcal/mol]     -88.16298144 [kJ/mol]
      Ind20,r                    -225.75317722 [mEh]    -141.66225744 [kcal/mol]    -592.71488512 [kJ/mol]
      Exch-Ind20,r                170.06196164 [mEh]     106.71549206 [kcal/mol]     446.49761877 [kJ/mol]
      delta HF,r (2)               22.11170935 [mEh]      13.87530710 [kcal/mol]      58.05428490 [kJ/mol]

    Dispersion                    -48.16114312 [mEh]     -30.22157357 [kcal/mol]    -126.44706383 [kJ/mol]
      Disp20                      -73.98044395 [mEh]     -46.42342945 [kcal/mol]    -194.23562882 [kJ/mol]
      Exch-Disp20                  25.81930083 [mEh]      16.20185588 [kcal/mol]      67.78856499 [kJ/mol]
      Disp20 (SS)                 -36.99022197 [mEh]     -23.21171473 [kcal/mol]     -97.11781441 [kJ/mol]
      Disp20 (OS)                 -36.99022197 [mEh]     -23.21171473 [kcal/mol]     -97.11781441 [kJ/mol]
      Exch-Disp20 (SS)             12.96317745 [mEh]       8.13451666 [kcal/mol]      34.03481771 [kJ/mol]
      Exch-Disp20 (OS)             12.85612338 [mEh]       8.06733922 [kcal/mol]      33.75374729 [kJ/mol]

  Total HF                        218.59947550 [mEh]     137.17324184 [kcal/mol]     573.93284386 [kJ/mol]
  Total SAPT0                     170.43833239 [mEh]     106.95166827 [kcal/mol]     447.48578003 [kJ/mol]

  Special recipe for scaled SAPT0 (see Manual):
    Electrostatics sSAPT0        -160.15755505 [mEh]    -100.50038309 [kcal/mol]    -420.49360284 [kJ/mol]
    Exchange sSAPT0               412.33653677 [mEh]     258.74508321 [kcal/mol]    1082.58942815 [kJ/mol]
    Induction sSAPT0              -11.81416329 [mEh]      -7.41349939 [kcal/mol]     -31.01808143 [kJ/mol]
    Dispersion sSAPT0             -44.85666555 [mEh]     -28.14798260 [kcal/mol]    -117.77115918 [kJ/mol]
  Total sSAPT0                    195.50815289 [mEh]     122.68321814 [kcal/mol]     513.30658470 [kJ/mol]
  --------------------------------------------------------------------------------------------------------

*** Psi4 exiting successfully. Buy a developer a beer!
