                               Psi4 1.9 release

  ==> Input File <==

--------------------------------------------------------------------------
memory 47 GB # how much memory is available ! Depends on the nodes/cores !

molecule dimer {
# monomer A
-1 1    # Charge and multiplicity
B -1.977592e-04  2.742729e-04 6.600034
F  1.123153e-16  1.430594e-17 8.012819
F  1.147860e+00  6.757812e-01 6.128893
F  1.191806e-02 -1.332011e+00 6.129095
F -1.159666e+00  6.560735e-01 6.129174
--
# monomer B
0 1     # Charge and multiplicity
C   -3.66844126402057      7.80375217008252      0.00190004133558
C   -4.84759871934653      7.13124183134024     -0.00046653359696
C   -4.89495929917518      5.69633040353158     -0.00103944469517
C   -3.65374067877320      4.98073034095895      0.00662099703436
C   -2.40942512149445      7.11398103667468      0.00209438359570
C   -2.42547734410473      5.68112195090346     -0.00491050527438
C   -1.19474401643570      7.78614419430947      0.00356656413763
C   0.03795902893699      7.09942164575698      0.00139585983271
C   0.03033258741920      5.66948955970466     -0.00408752508301
C   -1.20098450790502      4.96927034791531      0.00488220885047
C   1.27795782581485      7.77285944319479      0.00277170839332
C   2.48535808472416      7.08769688523756      0.00049722048857
C   2.48612868491717      5.65477081024076     -0.00644052849921
C   1.25408291964399      4.95607811366431      0.00518741308898
C   3.75171459140595      7.76391215098033      0.00062407186893
C   4.92356605618520      7.07878077698995     -0.00143240883900
C   4.95560727132542      5.64344746336949     -0.00159282164606
C   3.70680153420475      4.94121020833308      0.00349873852374
H   -3.65852113775815      8.89082741913536      0.00358502958574
H   -1.18921332975660      8.87412108735996      0.00753844057883
H   1.28429423888630      8.86083343548850      0.00693053253426
H   3.75354208679975      8.85103527897216      0.00214659618464
H   5.86995870320703      7.61379483465560     -0.00235777588134
H   -5.78823170750226      7.67630221293400     -0.00202638095293
C   -6.09197395869619      4.99326001364347     -0.00291168518608
C   -6.12866148031747      3.58258016879823     -0.00171050815740
C   -3.66457974004527      3.56418217974434     -0.00463560277484
C   -4.89429820469869      2.86108077590057      0.00453338221034
C   -2.43733499489796      2.84761165708481      0.00719617576166
C   -1.20922785759670      3.54788693497833     -0.00648285103018
C   1.24714157216223      3.53468075142962     -0.00729145743546
C   0.01517603956900      2.83311183930540      0.00439272578912
C   2.46764517244071      2.82128997725533      0.00449278391269
C   3.70254947457969      3.52466015442405     -0.00899517692985
C   6.14498038638375      4.92757236613191     -0.00282626685777
C   6.16658835886151      3.51658447594213     -0.00065971342101
C   4.92460995845939      2.80840792535402      0.00587903281610
H   7.08990550964105      5.46688776622306     -0.00658814770723
H   -7.03104175110130      5.54268795285765     -0.00714490013730
C   -7.33969804112295      2.85841153457957     -0.00333767559888
C   -7.36488195805880      1.47032337158330     -0.00157213747140
C   -4.90350460894690      1.44442681216000     -0.00628840166334
C   -6.13225715261081      0.73993935705394      0.00600164231964
C   -3.67687480051673      0.72669714267312      0.00433931473643
C   -2.44565658606518      1.42964113326212     -0.00597039546461
C   -1.22360068130162      0.71532450163492      0.00545886906656
C   0.00763786931376      1.41738314923765      0.00392452278437
C   1.23121980774686      0.70211669058719     -0.01490206287210
C   2.46082110053113      1.40329203612573      0.00460244601878
C   3.68443025419614      0.68719842821222      0.00377365974158
C   4.91870890153864      1.39173456118907     -0.00862816189375
C   7.36980207796101      2.77948220318441     -0.00242013321349
C   7.38016266612146      1.39121750785509     -0.00087345036788
C   6.13979953912259      0.67411862320065      0.00545489144369
H   -8.27919079934664      3.40711804112415     -0.00763522772059
H   8.31511347147953      3.31811809662368     -0.00663070901292
C   -8.59175593758115      0.72483255304480     -0.00123170985383
C   -8.59902460370342     -0.63263980622873      0.00089141472904
C   -6.13981313911873     -0.67413663715361     -0.00609792660607
C   -7.38018411213749     -1.39126618958160      0.00131813493501
C   -4.91868448025621     -1.39175501803000      0.00624257154343
C   -3.68443829568458     -0.68723731573599     -0.00478966852105
C   -2.46081704024768     -1.40334517882457      0.00575341766833
C   -1.23116201232071     -0.70217386488055     -0.00636696112346
C   -0.00756962538737     -1.41741884941102      0.00108956317991
C   1.22364771588843     -0.71527537726392      0.01109518512883
C   2.44567064933149     -1.42964328900682     -0.00065482763106
C   3.67686670284649     -0.72670743155550     -0.00479541202602
C   6.13224884641929     -0.73997883984993     -0.00632338623858
C   4.90351914550401     -1.44445752054090      0.00751768830159
C   8.59901484869081      0.63260386666793     -0.00101133422380
C   8.59174548810050     -0.72485086719319      0.00072504603735
C   7.36486276438985     -1.47033266560598      0.00049486934466
H   -9.52830597181814      1.27684744919284     -0.00270163681798
H   9.54141097460619      1.17457248844457     -0.00206336648518
C   -7.36983790976868     -2.77954514593389      0.00312634335708
C   -4.92459910905015     -2.80843725734101     -0.00460528907921
C   -6.16662249566744     -3.51665219282533      0.00169655107992
C   -3.70251035970491     -3.52468154912026      0.00571878010666
C   -2.46764698511392     -2.82132596280400     -0.00632585824990
C   -0.01513347410770     -2.83314164539971     -0.00604426974092
C   -1.24712184122656     -3.53473217556300      0.00551968366725
C   1.20924506964357     -3.54791467864352      0.00805871345849
C   2.43733602215464     -2.84764173817541     -0.00608104485234
C   4.89430234377080     -2.86112296828604     -0.00526030478103
C   3.66461525504104     -3.56421984553201      0.00761911515957
C   6.12863901474565     -3.58258405771778      0.00096495711699
C   7.33967266469532     -2.85841330737039      0.00248018319869
H   -9.54144911125902     -1.17456346666430      0.00226083090216
H   9.52826186807155     -1.27691907390448      0.00197485379837
H   -8.31516504384864     -3.31814985321231      0.00729857188773
H   8.27915514249207     -3.40714078989363      0.00681973918158
C   -6.14499418870218     -4.92764727278338      0.00302254913999
C   -3.70678334799751     -4.94126171411716     -0.00679841894792
C   -4.95559005800169     -5.64349397349412      0.00116871569699
C   -2.48612132622665     -5.65478557440947      0.00614125209662
C   -1.25405833548005     -4.95612205000132     -0.00503435388927
C   1.20101257386816     -4.96928038819302     -0.00385322963129
C   -0.03033667441341     -5.66952030313900      0.00398997003238
C   3.65375010132847     -4.98074377541453     -0.00309522988330
C   2.42549269587528     -5.68117463552727      0.00628170066869
C   6.09196561781097     -4.99325796338655      0.00325918379042
C   4.89497644461045     -5.69634842095790      0.00202298796027
H   -7.08989238804069     -5.46699984223871      0.00742531082125
H   7.03105520920009     -5.54265853633254      0.00683896355417
C   -4.92354532219813     -7.07882109967734      0.00061394679214
C   -2.48534208823777     -7.08772807792913     -0.00189594564379
C   -3.75168589177895     -7.76394715763627     -0.00170126671874
C   -0.03794895698805     -7.09946487446944     -0.00168022049625
C   -1.27795610040136     -7.77290438466689     -0.00366491325785
C   2.40944432072629     -7.11402201200282     -0.00081701968533
C   1.19474993715296     -7.78618536556242     -0.00296931056689
C   4.84762105249800     -7.13126211057943      0.00168979497423
C   3.66847160587561     -7.80378799294376     -0.00065863938960
H   -5.86994035041618     -7.61383059804164      0.00215798365757
H   5.78824962538815     -7.67633218931421      0.00281691445618
H   -3.75352693944918     -8.85107156923607     -0.00353718114765
H   -1.28430440589466     -8.86087539249706     -0.00809229711623
H   1.18922157469537     -8.87416062058945     -0.00706194725726
H   3.65854661482387     -8.89086063405326     -0.00231318081200

    units angstrom      # Angstroms are the default
    no_reorient         # Geometry fixed, default
    symmetry c1         # C1 symmetry, default
}

set {
    scf_type DF         # Density fitting, faster than exact integrals
    freeze_core True    # Freeze core electrons
    basis jun-cc-pVDZ   # Jun-cc-pVDZ basis set, recommended for sSAPT0 in https://doi.org/10.1063/1.4867135
}

energy('ssapt0')        # Compute sSAPT0 energy, includes also SAPT0
--------------------------------------------------------------------------

  //              Dimer HF             //
    Molecular point group: c1
  Charge       = -1
  Multiplicity = 1
  Basis Set: JUN-CC-PVDZ
    Blend: JUN-CC-PVDZ
  Basis Set: (JUN-CC-PVDZ AUX)
    Blend: JUN-CC-PVDZ-JKFIT
  @DF-RHF Final Energy: -4073.10397338502935
    Total Energy =                      -4073.1039733850302582
 Dipole X            :         -0.0006034           -0.0000548           -0.0006582
 Dipole Y            :          0.0010328           -0.0002464            0.0007864
 Dipole Z            :         28.6799436          -39.2779414          -10.5979978
 Magnitude           :                                                   10.5979978
  //            Monomer A HF           //
    Molecular point group: c1
  Multiplicity = 1
  Basis Set: JUN-CC-PVDZ
    Blend: JUN-CC-PVDZ
  Basis Set: (JUN-CC-PVDZ AUX)
    Blend: JUN-CC-PVDZ-JKFIT
  @DF-RHF Final Energy:  -422.77148060648375
    Total Energy =                       -422.7714806064837489
  //            Monomer B HF           //
    Molecular point group: c1

    Geometry (in Angstrom), charge = 0, multiplicity = 1:

       Center              X                  Y                   Z               Mass
    ------------   -----------------  -----------------  -----------------  -----------------
      Gh(B)          -0.000201921932     0.000288800891     6.145452431521    11.009305360000
      Gh(F)          -0.000004162732     0.000014527991     7.558237431521    18.998403162730
      Gh(F)           1.147855837268     0.675795727991     5.674311431521    18.998403162730
      Gh(F)           0.011913897268    -1.331996472009     5.674513431521    18.998403162730
      Gh(F)          -1.159670162732     0.656088027991     5.674592431521    18.998403162730
         C           -3.668445426752     7.803766698073    -0.452681527143    12.000000000000
         C           -4.847602882078     7.131256359331    -0.455048102076    12.000000000000
         C           -4.894963461907     5.696344931522    -0.455621013174    12.000000000000
         C           -3.653744841505     4.980744868950    -0.447960571444    12.000000000000
         C           -2.409429284226     7.113995564665    -0.452487184883    12.000000000000
         C           -2.425481506836     5.681136478894    -0.459492073753    12.000000000000
         C           -1.194748179167     7.786158722300    -0.451015004341    12.000000000000
         C            0.037954866205     7.099436173748    -0.453185708646    12.000000000000
         C            0.030328424687     5.669504087695    -0.458669093562    12.000000000000
         C           -1.200988670637     4.969284875906    -0.449699359628    12.000000000000
         C            1.277953663083     7.772873971185    -0.451809860085    12.000000000000
         C            2.485353921992     7.087711413228    -0.454084347990    12.000000000000
         C            2.486124522185     5.654785338231    -0.461022096978    12.000000000000
         C            1.254078756912     4.956092641655    -0.449394155390    12.000000000000
         C            3.751710428674     7.763926678971    -0.453957496610    12.000000000000
         C            4.923561893453     7.078795304981    -0.456013977318    12.000000000000
         C            4.955603108594     5.643461991360    -0.456174390125    12.000000000000
         C            3.706797371473     4.941224736324    -0.451082829955    12.000000000000
         H           -3.658525300490     8.890841947126    -0.450996538893     1.007825032230
         H           -1.189217492488     8.874135615351    -0.447043127900     1.007825032230
         H            1.284290076155     8.860847963479    -0.447651035944     1.007825032230
         H            3.753537924068     8.851049806963    -0.452434972294     1.007825032230
         H            5.869954540475     7.613809362646    -0.456939344360     1.007825032230
         H           -5.788235870234     7.676316740925    -0.456607949432     1.007825032230
         C           -6.091978121428     4.993274541634    -0.457493253665    12.000000000000
         C           -6.128665643049     3.582594696789    -0.456292076636    12.000000000000
         C           -3.664583902777     3.564196707735    -0.459217171253    12.000000000000
         C           -4.894302367430     2.861095303891    -0.450048186268    12.000000000000
         C           -2.437339157630     2.847626185075    -0.447385392717    12.000000000000
         C           -1.209232020328     3.547901462969    -0.461064419509    12.000000000000
         C            1.247137409430     3.534695279420    -0.461873025914    12.000000000000
         C            0.015171876837     2.833126367296    -0.450188842690    12.000000000000
         C            2.467641009709     2.821304505246    -0.450088784566    12.000000000000
         C            3.702545311848     3.524674682415    -0.463576745408    12.000000000000
         C            6.144976223652     4.927586894122    -0.457407835336    12.000000000000
         C            6.166584196130     3.516599003933    -0.455241281900    12.000000000000
         C            4.924605795728     2.808422453345    -0.448702535663    12.000000000000
         H            7.089901346909     5.466902294214    -0.461169716186     1.007825032230
         H           -7.031045913833     5.542702480848    -0.461726468616     1.007825032230
         C           -7.339702203855     2.858426062570    -0.457919244078    12.000000000000
         C           -7.364886120791     1.470337899574    -0.456153705950    12.000000000000
         C           -4.903508771679     1.444441340151    -0.460869970142    12.000000000000
         C           -6.132261315343     0.739953885044    -0.448579926159    12.000000000000
         C           -3.676878963248     0.726711670664    -0.450242253742    12.000000000000
         C           -2.445660748797     1.429655661253    -0.460551963943    12.000000000000
         C           -1.223604844033     0.715339029625    -0.449122699412    12.000000000000
         C            0.007633706582     1.417397677228    -0.450657045694    12.000000000000
         C            1.231215645015     0.702131218578    -0.469483631351    12.000000000000
         C            2.460816937799     1.403306564116    -0.449979122460    12.000000000000
         C            3.684426091464     0.687212956203    -0.450807908737    12.000000000000
         C            4.918704738807     1.391749089180    -0.463209730372    12.000000000000
         C            7.369797915229     2.779496731175    -0.457001701692    12.000000000000
         C            7.380158503390     1.391232035846    -0.455455018847    12.000000000000
         C            6.139795376391     0.674133151191    -0.449126677035    12.000000000000
         H           -8.279194962078     3.407132569115    -0.462216796199     1.007825032230
         H            8.315109308748     3.318132624614    -0.461212277492     1.007825032230
         C           -8.591760100313     0.724847081035    -0.455813278332    12.000000000000
         C           -8.599028766435    -0.632625278238    -0.453690153750    12.000000000000
         C           -6.139817301850    -0.674122109163    -0.460679495085    12.000000000000
         C           -7.380188274869    -1.391251661591    -0.453263433544    12.000000000000
         C           -4.918688642988    -1.391740490039    -0.448338996935    12.000000000000
         C           -3.684442458416    -0.687222787745    -0.459371237000    12.000000000000
         C           -2.460821202979    -1.403330650834    -0.448828150810    12.000000000000
         C           -1.231166175052    -0.702159336890    -0.460948529602    12.000000000000
         C           -0.007573788119    -1.417404321420    -0.453492005299    12.000000000000
         C            1.223643553157    -0.715260849273    -0.443486383350    12.000000000000
         C            2.445666486600    -1.429628761016    -0.455236396110    12.000000000000
         C            3.676862540115    -0.726692903565    -0.459376980505    12.000000000000
         C            6.132244683688    -0.739964311859    -0.460904954717    12.000000000000
         C            4.903514982772    -1.444442992550    -0.447063880177    12.000000000000
         C            8.599010685959     0.632618394658    -0.455592902702    12.000000000000
         C            8.591741325369    -0.724836339203    -0.453856522441    12.000000000000
         C            7.364858601658    -1.470318137615    -0.454086699134    12.000000000000
         H           -9.528310134550     1.276861977183    -0.457283205297     1.007825032230
         H            9.541406811874     1.174587016435    -0.456644934964     1.007825032230
         C           -7.369842072500    -2.779530617943    -0.451455225122    12.000000000000
         C           -4.924603271782    -2.808422729350    -0.459186857558    12.000000000000
         C           -6.166626658399    -3.516637664835    -0.452885017399    12.000000000000
         C           -3.702514522437    -3.524667021130    -0.448862788372    12.000000000000
         C           -2.467651147846    -2.821311434813    -0.460907426729    12.000000000000
         C           -0.015137636839    -2.833127117409    -0.460625838220    12.000000000000
         C           -1.247126003958    -3.534717647572    -0.449061884811    12.000000000000
         C            1.209240906912    -3.547900150653    -0.446522855020    12.000000000000
         C            2.437331859423    -2.847627210185    -0.460662613331    12.000000000000
         C            4.894298181039    -2.861108440295    -0.459841873260    12.000000000000
         C            3.664611092309    -3.564205317541    -0.446962453319    12.000000000000
         C            6.128634852014    -3.582569529727    -0.453616611362    12.000000000000
         C            7.339668501964    -2.858398779380    -0.452101385280    12.000000000000
         H           -9.541453273991    -1.174548938674    -0.452320737576     1.007825032230
         H            9.528257705340    -1.276904545914    -0.452606714680     1.007825032230
         H           -8.315169206580    -3.318135325222    -0.447282996591     1.007825032230
         H            8.279150979760    -3.407126261903    -0.447761829297     1.007825032230
         C           -6.144998351434    -4.927632744793    -0.451559019339    12.000000000000
         C           -3.706787510729    -4.941247186127    -0.461379987427    12.000000000000
         C           -4.955594220733    -5.643479445504    -0.453412852782    12.000000000000
         C           -2.486125488958    -5.654771046419    -0.448440316382    12.000000000000
         C           -1.254062498212    -4.956107522011    -0.459615922368    12.000000000000
         C            1.201008411136    -4.969265860202    -0.458434798110    12.000000000000
         C           -0.030340837145    -5.669505775148    -0.450591598446    12.000000000000
         C            3.653745938597    -4.980729247424    -0.457676798362    12.000000000000
         C            2.425488533144    -5.681160107537    -0.448299867810    12.000000000000
         C            6.091961455079    -4.993243435396    -0.451322384688    12.000000000000
         C            4.894972281879    -5.696333892967    -0.452558580518    12.000000000000
         H           -7.089896550772    -5.466985314248    -0.447156257657     1.007825032230
         H            7.031051046468    -5.542644008342    -0.447742604924     1.007825032230
         C           -4.923549484930    -7.078806571687    -0.453967621687    12.000000000000
         C           -2.485346250970    -7.087713549939    -0.456477514122    12.000000000000
         C           -3.751690054511    -7.763932629646    -0.456282835197    12.000000000000
         C           -0.037953119720    -7.099450346479    -0.456261788975    12.000000000000
         C           -1.277960263133    -7.772889856676    -0.458246481736    12.000000000000
         C            2.409440157995    -7.114007484012    -0.455398588164    12.000000000000
         C            1.194745774421    -7.786170837572    -0.457550879046    12.000000000000
         C            4.847616889766    -7.131247582589    -0.452891773504    12.000000000000
         C            3.668467443144    -7.803773464953    -0.455240207868    12.000000000000
         H           -5.869944513148    -7.613816070051    -0.452423584821     1.007825032230
         H            5.788245462656    -7.676317661324    -0.451764654022     1.007825032230
         H           -3.753531102181    -8.851057041246    -0.458118749626     1.007825032230
         H           -1.284308568626    -8.860860864507    -0.462673865595     1.007825032230
         H            1.189217411964    -8.874146092599    -0.461643515736     1.007825032230
         H            3.658542452092    -8.890846106063    -0.456894749291     1.007825032230

  Charge       = 0
  Multiplicity = 1
  Basis Set: JUN-CC-PVDZ
    Blend: JUN-CC-PVDZ
  Basis Set: (JUN-CC-PVDZ AUX)
    Blend: JUN-CC-PVDZ-JKFIT

    Orbital Energies [Eh]
    ---------------------

    Doubly Occupied:

       1A    -11.264058     2A    -11.263743     3A    -11.263742
       4A    -11.263400     5A    -11.263398     6A    -11.263362
       7A    -11.263206     8A    -11.263179     9A    -11.263176
      10A    -11.263018    11A    -11.262859    12A    -11.262855
      13A    -11.262376    14A    -11.262373    15A    -11.262299
      16A    -11.262298    17A    -11.262248    18A    -11.262212
      19A    -11.262168    20A    -11.262129    21A    -11.262127
      22A    -11.261974    23A    -11.261970    24A    -11.261850
      25A    -11.261835    26A    -11.261821    27A    -11.261817
      28A    -11.261770    29A    -11.261762    30A    -11.261689
      31A    -11.261663    32A    -11.261660    33A    -11.261634
      34A    -11.261633    35A    -11.261612    36A    -11.261566
      37A    -11.261424    38A    -11.261413    39A    -11.261407
      40A    -11.261399    41A    -11.261395    42A    -11.261386
      43A    -11.261382    44A    -11.261368    45A    -11.261363
      46A    -11.261340    47A    -11.261337    48A    -11.261332
      49A    -11.261179    50A    -11.261149    51A    -11.261146
      52A    -11.261066    53A    -11.261065    54A    -11.260994
      55A    -11.260025    56A    -11.260012    57A    -11.260010
      58A    -11.259981    59A    -11.259979    60A    -11.259963
      61A    -11.259403    62A    -11.259378    63A    -11.259375
      64A    -11.259323    65A    -11.259321    66A    -11.259292
      67A    -11.259030    68A    -11.259012    69A    -11.259010
      70A    -11.258983    71A    -11.258980    72A    -11.258969
      73A    -11.254597    74A    -11.254596    75A    -11.254594
      76A    -11.254592    77A    -11.254586    78A    -11.254584
      79A    -11.253749    80A    -11.253747    81A    -11.253744
      82A    -11.253743    83A    -11.253741    84A    -11.253735
      85A    -11.253665    86A    -11.253663    87A    -11.253660
      88A    -11.253659    89A    -11.253656    90A    -11.253651
      91A    -11.253125    92A    -11.253123    93A    -11.253122
      94A    -11.253120    95A    -11.253114    96A    -11.253112
      97A     -1.254150    98A     -1.239154    99A     -1.239154
     100A     -1.220596   101A     -1.220591   102A     -1.215624
     103A     -1.201156   104A     -1.195726   105A     -1.188314
     106A     -1.188313   107A     -1.173876   108A     -1.173873
     109A     -1.155787   110A     -1.155783   111A     -1.152893
     112A     -1.144829   113A     -1.144826   114A     -1.128709
     115A     -1.114869   116A     -1.113271   117A     -1.112653
     118A     -1.112640   119A     -1.111719   120A     -1.088571
     121A     -1.088556   122A     -1.077067   123A     -1.077065
     124A     -1.067765   125A     -1.067736   126A     -1.065137
     127A     -1.046930   128A     -1.046922   129A     -1.040619
     130A     -1.038840   131A     -1.038839   132A     -1.025404
     133A     -1.021576   134A     -1.021527   135A     -1.007301
     136A     -1.006946   137A     -1.003920   138A     -1.000646
     139A     -1.000598   140A     -0.991174   141A     -0.971134
     142A     -0.971086   143A     -0.956000   144A     -0.955945
     145A     -0.905775   146A     -0.905734   147A     -0.905646
     148A     -0.905606   149A     -0.904533   150A     -0.892546
     151A     -0.892487   152A     -0.890530   153A     -0.890473
     154A     -0.889604   155A     -0.872329   156A     -0.869142
     157A     -0.851659   158A     -0.848025   159A     -0.848003
     160A     -0.845761   161A     -0.843165   162A     -0.834694
     163A     -0.834681   164A     -0.828221   165A     -0.828218
     166A     -0.784684   167A     -0.784673   168A     -0.783811
     169A     -0.783785   170A     -0.782431   171A     -0.782411
     172A     -0.782195   173A     -0.767119   174A     -0.760968
     175A     -0.750743   176A     -0.733595   177A     -0.727201
     178A     -0.727188   179A     -0.725226   180A     -0.724668
     181A     -0.724650   182A     -0.718671   183A     -0.713933
     184A     -0.713928   185A     -0.699704   186A     -0.699692
     187A     -0.686304   188A     -0.686069   189A     -0.686066
     190A     -0.682292   191A     -0.682282   192A     -0.678927
     193A     -0.653756   194A     -0.651005   195A     -0.650975
     196A     -0.649980   197A     -0.649964   198A     -0.649677
     199A     -0.641100   200A     -0.641073   201A     -0.640202
     202A     -0.639266   203A     -0.636172   204A     -0.636145
     205A     -0.629272   206A     -0.617672   207A     -0.615410
     208A     -0.615390   209A     -0.608923   210A     -0.608917
     211A     -0.599187   212A     -0.599149   213A     -0.598881
     214A     -0.598756   215A     -0.598730   216A     -0.598209
     217A     -0.595178   218A     -0.595165   219A     -0.594850
     220A     -0.594414   221A     -0.592098   222A     -0.592095
     223A     -0.587570   224A     -0.577883   225A     -0.577873
     226A     -0.575736   227A     -0.575733   228A     -0.573498
     229A     -0.569571   230A     -0.568307   231A     -0.568283
     232A     -0.566887   233A     -0.566877   234A     -0.561003
     235A     -0.558866   236A     -0.558847   237A     -0.558520
     238A     -0.554498   239A     -0.550633   240A     -0.547562
     241A     -0.544343   242A     -0.535039   243A     -0.535000
     244A     -0.533661   245A     -0.533638   246A     -0.528187
     247A     -0.528172   248A     -0.527967   249A     -0.517326
     250A     -0.517292   251A     -0.515428   252A     -0.515423
     253A     -0.509750   254A     -0.509734   255A     -0.498146
     256A     -0.496577   257A     -0.496551   258A     -0.493846
     259A     -0.493835   260A     -0.489479   261A     -0.481559
     262A     -0.477491   263A     -0.477488   264A     -0.474111
     265A     -0.469581   266A     -0.466658   267A     -0.466653
     268A     -0.458880   269A     -0.446870   270A     -0.446809
     271A     -0.441104   272A     -0.440829   273A     -0.440804
     274A     -0.434759   275A     -0.433976   276A     -0.407452
     277A     -0.407428   278A     -0.386489   279A     -0.386441
     280A     -0.385801   281A     -0.385799   282A     -0.383833
     283A     -0.354403   284A     -0.354387   285A     -0.350741
     286A     -0.338173   287A     -0.335673   288A     -0.335604
     289A     -0.332783   290A     -0.332777   291A     -0.307169
     292A     -0.302031   293A     -0.301968   294A     -0.300916
     295A     -0.286246   296A     -0.256530   297A     -0.253582
     298A     -0.253530   299A     -0.204340   300A     -0.204251

  @DF-RHF Final Energy: -3650.33761374152891

   => Energetics <=

    Nuclear Repulsion Energy =          15611.4211649754324753
    One-Electron Energy =              -36072.0748026518704137
    Two-Electron Energy =               16810.3160239349090261
    Total Energy =                      -3650.3376137415289122
 Dipole X            :         -0.0009329            0.0002304           -0.0007025
 Dipole Y            :          0.0010837           -0.0013052           -0.0002215
 Dipole Z            :        515.4149371         -515.4174078           -0.0024707
 Magnitude           :                                                    0.0025781

    SAPT Results
  --------------------------------------------------------------------------------------------------------
    Electrostatics                  8.89714135 [mEh]       5.58304048 [kcal/mol]      23.35944138 [kJ/mol]
      Elst10,r                      8.89714135 [mEh]       5.58304048 [kcal/mol]      23.35944138 [kJ/mol]

    Exchange                       -0.00017976 [mEh]      -0.00011280 [kcal/mol]      -0.00047195 [kJ/mol]
      Exch10                       -0.00017976 [mEh]      -0.00011280 [kcal/mol]      -0.00047195 [kJ/mol]
      Exch10(S^2)                  -0.00017976 [mEh]      -0.00011280 [kcal/mol]      -0.00047195 [kJ/mol]

    Induction                      -3.77599861 [mEh]      -2.36947490 [kcal/mol]      -9.91388297 [kJ/mol]
      Ind20,r                      -3.79661642 [mEh]      -2.38241277 [kcal/mol]      -9.96801504 [kJ/mol]
      Exch-Ind20,r                  0.00023768 [mEh]       0.00014915 [kcal/mol]       0.00062403 [kJ/mol]
      delta HF,r (2)                0.02038014 [mEh]       0.01278873 [kcal/mol]       0.05350804 [kJ/mol]

    Dispersion                     -0.59366517 [mEh]      -0.37253052 [kcal/mol]      -1.55866769 [kJ/mol]
      Disp20                       -0.59385811 [mEh]      -0.37265159 [kcal/mol]      -1.55917426 [kJ/mol]
      Exch-Disp20                   0.00019294 [mEh]       0.00012107 [kcal/mol]       0.00050656 [kJ/mol]
      Disp20 (SS)                  -0.29692906 [mEh]      -0.18632580 [kcal/mol]      -0.77958713 [kJ/mol]
      Disp20 (OS)                  -0.29692906 [mEh]      -0.18632580 [kcal/mol]      -0.77958713 [kJ/mol]
      Exch-Disp20 (SS)              0.00014881 [mEh]       0.00009338 [kcal/mol]       0.00039070 [kJ/mol]
      Exch-Disp20 (OS)              0.00004413 [mEh]       0.00002769 [kcal/mol]       0.00011586 [kJ/mol]

  Total HF                          5.12096298 [mEh]       3.21345279 [kcal/mol]      13.44508646 [kJ/mol]
  Total SAPT0                       4.52729781 [mEh]       2.84092227 [kcal/mol]      11.88641877 [kJ/mol]

  Special recipe for scaled SAPT0 (see Manual):
    Electrostatics sSAPT0           8.89714135 [mEh]       5.58304048 [kcal/mol]      23.35944138 [kJ/mol]
    Exchange sSAPT0                -0.00017976 [mEh]      -0.00011280 [kcal/mol]      -0.00047195 [kJ/mol]
    Induction sSAPT0               -3.77599861 [mEh]      -2.36947490 [kcal/mol]      -9.91388297 [kJ/mol]
    Dispersion sSAPT0              -0.59366517 [mEh]      -0.37253052 [kcal/mol]      -1.55866769 [kJ/mol]
  Total sSAPT0                      4.52729781 [mEh]       2.84092227 [kcal/mol]      11.88641877 [kJ/mol]
  --------------------------------------------------------------------------------------------------------

*** Psi4 exiting successfully. Buy a developer a beer!
