                               Psi4 1.9 release

  ==> Input File <==

--------------------------------------------------------------------------
memory 32 GB # how much memory is available ! Depends on the nodes/cores !

molecule dimer {
# monomer A
+1 1    # Charge and multiplicity
C  0.680067 -1.215929 3.008042
C -0.680504 -1.215545 3.006014
N -1.085635  0.102779 3.005016
C  0.000108  0.884180 3.001740
C -2.477365  0.570758 2.955610
N  1.085222  0.102779 3.005016
H  1.385146 -2.033368 3.015870
H -1.385302 -2.033214 3.006204
H -0.000009  1.965269 2.999993
C  2.478117  0.567877 3.021908
H  2.490592  1.658130 2.994563
H  2.967028  0.220701 3.935354
H  3.001428  0.176405 2.146425
H -2.857359  0.490799 1.933539
H -3.082679 -0.042306 3.625694
H -2.518128  1.610706 3.282594
--
# monomer B
0 1     # Charge and multiplicity
C   1.22531237526482      0.70753866091955      0.00613762728373
C   1.22532433589282     -0.70753852257020     -0.00619318228664
C   -0.00000567409046      1.41496628609039     -0.00672680580738
C   2.45644923379077      1.41832825917820      0.00902448468363
C   0.00001130712078     -1.41497612663474      0.00347275151708
C   -1.22530046906674      0.70754574598412      0.00838914760619
C   2.45643823516184     -1.41832293188077     -0.00843833914343
C   -0.00000085313587      2.83680140328112     -0.00913035594137
C   3.68182717731192      0.70931832800114     -0.00808954934571
C   2.45512052870677      2.83422403348893     -0.00819210630633
C   3.68182158506039     -0.70933346742900      0.00798293467272
C   -1.22531311884624     -0.70752714354401     -0.00512042085974
C   1.22670006104402      3.54346985599427      0.00816696660346
C   0.00000526469929     -2.83678176723568      0.00832091913869
C   -2.45643555300670      1.41831729028492      0.00842454345199
C   2.45512389762097     -2.83422965658853      0.00783102630520
C   -1.22671388474763      3.54346943575023      0.00827029982280
C   4.91451777504333      1.42717324448953     -0.00160886631602
C   3.69315067131765      3.54279566454522     -0.00155906667985
C   -2.45643712022637     -1.41831290883911     -0.00846337726810
C   1.22670532178455     -3.54347386990643     -0.00780316414624
C   -2.45512491866593      2.83421703463423     -0.00818572995999
C   4.91452486062398     -1.42718653794377      0.00136387641845
C   1.22142509354026      4.97013443726031      0.00150231067809
C   4.89300870916237      2.82518837202648     -0.00039219795739
C   -1.22669652864725     -3.54347062507680     -0.00753595973677
C   -3.68181849668397      0.70932533873199     -0.00807686886569
C   3.69314758099218     -3.54280096939050      0.00148176697923
C   -1.22143177215231      4.97012866986289      0.00168580605083
C   6.13477145276790      0.68054831910577     -0.00083909176631
C   3.65678936045204      4.97295361556775     -0.00065042889723
C   -2.45512642789169     -2.83421472106065      0.00758666850712
C   -3.68181869921921     -0.70932533146830      0.00810055625144
C   4.89301309775526     -2.82519973363176      0.00021895393805
C   -0.00000059327114      5.65044773803267      0.00045449734393
C   6.13477559217374     -0.68055448207492      0.00042622874941
C   2.47813196269732      5.65357712333155      0.00063835075260
C   1.22142288457925     -4.97012668293268     -0.00129718634452
C   -3.69316190412301      3.54279732619245     -0.00139355922051
C   -1.22142804110313     -4.97011793159564     -0.00140994817719
C   -4.91452132810043      1.42717581899491     -0.00153192130862
C   3.65678749952045     -4.97295485423912      0.00080007163680
C   -2.47813805026426      5.65357479452875      0.00092287576113
C   -3.69314125872231     -3.54278984697859      0.00136564082345
C   -4.91451200321153     -1.42718062802730      0.00139857359209
C   -0.00000552908399     -5.65043791501335      0.00005899322272
C   -4.89302000425900      2.82518897091939     -0.00040227981744
C   2.47812647313991     -5.65357317188818     -0.00029052915548
C   -3.65679823041642      4.97295655404175     -0.00047374852278
C   -4.89299899901461     -2.82519139505969      0.00006491824035
C   -2.47812801824129     -5.65356579800621     -0.00056571680280
C   -6.13477002348955      0.68054913825639     -0.00086464346868
C   -3.65678835334731     -4.97294365097028      0.00058578382008
C   -6.13476456307132     -0.68055354348201      0.00040575295444
H   5.83528897565761      3.36927626695423      0.00396712770529
H   7.07385965258860      1.22821762089947     -0.00037744837300
H   4.60066374401555      5.51238117445323     -0.00014522814529
H   5.83528386714679     -3.36930568472863     -0.00423551337640
H   -0.00001167146422      6.73853104613662     -0.00389474766392
H   7.07386165167227     -1.22822657074368     -0.00008250934481
H   2.47331421164041      6.74068466339473      0.00017162982210
H   4.60066897122302     -5.51237575717576      0.00039007446835
H   -2.47331820069565      6.74068209160650      0.00047297644710
H   -0.00000978838621     -6.73852780445195      0.00458867820736
H   -5.83530143450167      3.36927132229595      0.00410314985360
H   2.47330840367253     -6.74068500242887      0.00027980126949
H   -4.60067436136587      5.51237839860371      0.00002010017831
H   -5.83527902699321     -3.36928859177951     -0.00451481925734
H   -2.47329986759855     -6.74067870613986     -0.00016951527498
H   -7.07385728692578      1.22822084484047     -0.00046143985387
H   -4.60067330624313     -5.51236229778631      0.00021776644566
H   -7.07385645456741     -1.22822025997701     -0.00017736581114

    units angstrom      # Angstroms are the default
    no_reorient         # Geometry fixed, default
    symmetry c1         # C1 symmetry, default
}

set {
    scf_type DF         # Density fitting, faster than exact integrals
    freeze_core True    # Freeze core electrons
    basis jun-cc-pVDZ   # Jun-cc-pVDZ basis set, recommended for sSAPT0 in https://doi.org/10.1063/1.4867135
}

energy('ssapt0')        # Compute sSAPT0 energy, includes also SAPT0
--------------------------------------------------------------------------

  //              Dimer HF             //
    Molecular point group: c1
  Charge       = 1
  Multiplicity = 1
  Basis Set: JUN-CC-PVDZ
    Blend: JUN-CC-PVDZ
  Basis Set: (JUN-CC-PVDZ AUX)
    Blend: JUN-CC-PVDZ-JKFIT
  @DF-RHF Final Energy: -2359.17312514443211
    Total Energy =                      -2359.1731251444325608
 Dipole X            :          0.0034898            0.0006313            0.0041211
 Dipole Y            :         -1.6414031            1.8864948            0.2450918
 Dipole Z            :        -12.3902277           15.5821381            3.1919104
 Magnitude           :                                                    3.2013090
  //            Monomer A HF           //
    Molecular point group: c1
  Multiplicity = 1
  Basis Set: JUN-CC-PVDZ
    Blend: JUN-CC-PVDZ
  Basis Set: (JUN-CC-PVDZ AUX)
    Blend: JUN-CC-PVDZ-JKFIT
  @DF-RHF Final Energy:  -303.29967740174334
    Total Energy =                       -303.2996774017433381
  //            Monomer B HF           //
    Molecular point group: c1

    Geometry (in Angstrom), charge = 0, multiplicity = 1:

       Center              X                  Y                   Z               Mass
    ------------   -----------------  -----------------  -----------------  -----------------
      Gh(C)           0.680066520158    -1.215933861162     2.626462587276    12.000000000000
      Gh(C)          -0.680504479842    -1.215549861162     2.624434587276    12.000000000000
      Gh(N)          -1.085635479842     0.102774138838     2.623436587276    14.003074004430
      Gh(C)           0.000107520158     0.884175138838     2.620160587276    12.000000000000
      Gh(C)          -2.477365479842     0.570753138838     2.574030587276    12.000000000000
      Gh(N)           1.085221520158     0.102774138838     2.623436587276    14.003074004430
      Gh(H)           1.385145520158    -2.033372861162     2.634290587276     1.007825032230
      Gh(H)          -1.385302479842    -2.033218861162     2.624624587276     1.007825032230
      Gh(H)          -0.000009479842     1.965264138838     2.618413587276     1.007825032230
      Gh(C)           2.478116520158     0.567872138838     2.640328587276    12.000000000000
      Gh(H)           2.490591520158     1.658125138838     2.612983587276     1.007825032230
      Gh(H)           2.967027520158     0.220696138838     3.553774587276     1.007825032230
      Gh(H)           3.001427520158     0.176400138838     1.764845587276     1.007825032230
      Gh(H)          -2.857359479842     0.490794138838     1.551959587276     1.007825032230
      Gh(H)          -3.082679479842    -0.042310861162     3.244114587276     1.007825032230
      Gh(H)          -2.518128479842     1.610701138838     2.901014587276     1.007825032230
         C            1.225311895423     0.707533799757    -0.375441785441    12.000000000000
         C            1.225323856051    -0.707543383733    -0.387772595011    12.000000000000
         C           -0.000006153932     1.414961424928    -0.388306218532    12.000000000000
         C            2.456448753949     1.418323398016    -0.372554928041    12.000000000000
         C            0.000010827279    -1.414980987797    -0.378106661207    12.000000000000
         C           -1.225300948908     0.707540884822    -0.373190265118    12.000000000000
         C            2.456437755320    -1.418327793043    -0.390017751868    12.000000000000
         C           -0.000001332978     2.836796542119    -0.390709768666    12.000000000000
         C            3.681826697470     0.709313466839    -0.389668962070    12.000000000000
         C            2.455120048865     2.834219172327    -0.389771519031    12.000000000000
         C            3.681821105219    -0.709338328591    -0.373596478052    12.000000000000
         C           -1.225313598688    -0.707532004706    -0.386699833584    12.000000000000
         C            1.226699581202     3.543464994832    -0.373412446121    12.000000000000
         C            0.000004784858    -2.836786628398    -0.373258493586    12.000000000000
         C           -2.456436032848     1.418312429123    -0.373154869272    12.000000000000
         C            2.455123417779    -2.834234517751    -0.373748386419    12.000000000000
         C           -1.226714364589     3.543464574588    -0.373309112902    12.000000000000
         C            4.914517295202     1.427168383327    -0.383188279040    12.000000000000
         C            3.693150191476     3.542790803383    -0.383138479404    12.000000000000
         C           -2.456437600068    -1.418317770001    -0.390042789992    12.000000000000
         C            1.226704841943    -3.543478731069    -0.389382576871    12.000000000000
         C           -2.455125398508     2.834212173472    -0.389765142684    12.000000000000
         C            4.914524380782    -1.427191399106    -0.380215536306    12.000000000000
         C            1.221424613699     4.970129576098    -0.380077102046    12.000000000000
         C            4.893008229321     2.825183510864    -0.381971610682    12.000000000000
         C           -1.226697008489    -3.543475486239    -0.389115372461    12.000000000000
         C           -3.681818976526     0.709320477570    -0.389656281590    12.000000000000
         C            3.693147101150    -3.542805830553    -0.380097645745    12.000000000000
         C           -1.221432251994     4.970123808701    -0.379893606673    12.000000000000
         C            6.134770972926     0.680543457943    -0.382418504491    12.000000000000
         C            3.656788880610     4.972948754405    -0.382229841622    12.000000000000
         C           -2.455126907733    -2.834219582223    -0.373992744217    12.000000000000
         C           -3.681819179061    -0.709330192631    -0.373478856473    12.000000000000
         C            4.893012617914    -2.825204594794    -0.381360458786    12.000000000000
         C           -0.000001073113     5.650442876870    -0.381124915380    12.000000000000
         C            6.134775112332    -0.680559343237    -0.381153183975    12.000000000000
         C            2.478131482856     5.653572262169    -0.380941061972    12.000000000000
         C            1.221422404738    -4.970131544095    -0.382876599069    12.000000000000
         C           -3.693162383965     3.542792465030    -0.382972971945    12.000000000000
         C           -1.221428520945    -4.970122792758    -0.382989360901    12.000000000000
         C           -4.914521807942     1.427170957833    -0.383111334033    12.000000000000
         C            3.656787019679    -4.972959715401    -0.380779341088    12.000000000000
         C           -2.478138530106     5.653569933366    -0.380656536963    12.000000000000
         C           -3.693141738564    -3.542794708141    -0.380213771901    12.000000000000
         C           -4.914512483053    -1.427185489190    -0.380180839132    12.000000000000
         C           -0.000006008926    -5.650442776176    -0.381520419502    12.000000000000
         C           -4.893020484101     2.825184109757    -0.381981692542    12.000000000000
         C            2.478125993298    -5.653578033051    -0.381869941880    12.000000000000
         C           -3.656798710258     4.972951692879    -0.382053161247    12.000000000000
         C           -4.892999478856    -2.825196256222    -0.381514494484    12.000000000000
         C           -2.478128498083    -5.653570659169    -0.382145129527    12.000000000000
         C           -6.134770503331     0.680544277094    -0.382444056193    12.000000000000
         C           -3.656788833189    -4.972948512133    -0.380993628904    12.000000000000
         C           -6.134765042913    -0.680558404644    -0.381173659770    12.000000000000
         H            5.835288495816     3.369271405792    -0.377612285019     1.007825032230
         H            7.073859172747     1.228212759737    -0.381956861097     1.007825032230
         H            4.600663264174     5.512376313291    -0.381724640870     1.007825032230
         H            5.835283387305    -3.369310545891    -0.385814926101     1.007825032230
         H           -0.000012151306     6.738526184974    -0.385474160388     1.007825032230
         H            7.073861171831    -1.228231431906    -0.381661922069     1.007825032230
         H            2.473313731799     6.740679802232    -0.381407782902     1.007825032230
         H            4.600668491381    -5.512380618338    -0.381189338256     1.007825032230
         H           -2.473318680537     6.740677230444    -0.381106436277     1.007825032230
         H           -0.000010268228    -6.738532665614    -0.376990734517     1.007825032230
         H           -5.835301914343     3.369266461134    -0.377476262871     1.007825032230
         H            2.473307923831    -6.740689863591    -0.381299611455     1.007825032230
         H           -4.600674841208     5.512373537441    -0.381559312546     1.007825032230
         H           -5.835279506835    -3.369293452942    -0.386094231982     1.007825032230
         H           -2.473300347440    -6.740683567302    -0.381748927999     1.007825032230
         H           -7.073857766768     1.228215983678    -0.382040852578     1.007825032230
         H           -4.600673786085    -5.512367158949    -0.381361646279     1.007825032230
         H           -7.073856934409    -1.228225121139    -0.381756778535     1.007825032230

  Charge       = 0
  Multiplicity = 1
  Basis Set: JUN-CC-PVDZ
    Blend: JUN-CC-PVDZ
  Basis Set: (JUN-CC-PVDZ AUX)
    Blend: JUN-CC-PVDZ-JKFIT

    Orbital Energies [Eh]
    ---------------------

    Doubly Occupied:

       1A    -11.260682     2A    -11.260249     3A    -11.260204
       4A    -11.259485     5A    -11.259439     6A    -11.259268
       7A    -11.259000     8A    -11.258951     9A    -11.258901
      10A    -11.258590    11A    -11.258569    12A    -11.258399
      13A    -11.258353    14A    -11.258340    15A    -11.258334
      16A    -11.258305    17A    -11.258295    18A    -11.258277
      19A    -11.258272    20A    -11.258266    21A    -11.258253
      22A    -11.258237    23A    -11.258226    24A    -11.258072
      25A    -11.257245    26A    -11.257215    27A    -11.257148
      28A    -11.257069    29A    -11.257028    30A    -11.256961
      31A    -11.256357    32A    -11.256318    33A    -11.256240
      34A    -11.256183    35A    -11.256142    36A    -11.256091
      37A    -11.252142    38A    -11.252139    39A    -11.252117
      40A    -11.252114    41A    -11.252109    42A    -11.252096
      43A    -11.251215    44A    -11.251206    45A    -11.251203
      46A    -11.251199    47A    -11.251191    48A    -11.251174
      49A    -11.250703    50A    -11.250699    51A    -11.250679
      52A    -11.250674    53A    -11.250670    54A    -11.250657
      55A     -1.243790    56A     -1.219554    57A     -1.219533
      58A     -1.189289    59A     -1.189271    60A     -1.180692
      61A     -1.157320    62A     -1.148720    63A     -1.135242
      64A     -1.135218    65A     -1.112954    66A     -1.112947
      67A     -1.082169    68A     -1.082156    69A     -1.078348
      70A     -1.065751    71A     -1.065740    72A     -1.039150
      73A     -1.023984    74A     -1.021504    75A     -1.021448
      76A     -1.017487    77A     -1.012574    78A     -0.986760
      79A     -0.986697    80A     -0.961643    81A     -0.961589
      82A     -0.894041    83A     -0.894021    84A     -0.887642
      85A     -0.885885    86A     -0.885844    87A     -0.881109
      88A     -0.881062    89A     -0.861656    90A     -0.837195
      91A     -0.817939    92A     -0.816320    93A     -0.811858
      94A     -0.811854    95A     -0.794453    96A     -0.794441
      97A     -0.746316    98A     -0.744579    99A     -0.733136
     100A     -0.733123   101A     -0.731935   102A     -0.731915
     103A     -0.716235   104A     -0.698729   105A     -0.698693
     106A     -0.693325   107A     -0.693279   108A     -0.660985
     109A     -0.652843   110A     -0.650857   111A     -0.650020
     112A     -0.650014   113A     -0.639111   114A     -0.639090
     115A     -0.629437   116A     -0.627243   117A     -0.627232
     118A     -0.606456   119A     -0.605619   120A     -0.601368
     121A     -0.599491   122A     -0.599423   123A     -0.593345
     124A     -0.590919   125A     -0.590887   126A     -0.585061
     127A     -0.576396   128A     -0.576322   129A     -0.567096
     130A     -0.567076   131A     -0.565676   132A     -0.565669
     133A     -0.558439   134A     -0.554608   135A     -0.554597
     136A     -0.538352   137A     -0.538348   138A     -0.538136
     139A     -0.538127   140A     -0.529452   141A     -0.528097
     142A     -0.522624   143A     -0.522589   144A     -0.500261
     145A     -0.495499   146A     -0.492982   147A     -0.487723
     148A     -0.484782   149A     -0.481479   150A     -0.481478
     151A     -0.470250   152A     -0.470244   153A     -0.450708
     154A     -0.450641   155A     -0.438934   156A     -0.438927
     157A     -0.404601   158A     -0.404597   159A     -0.403238
     160A     -0.375271   161A     -0.375263   162A     -0.348968
     163A     -0.337504   164A     -0.336457   165A     -0.336426
     166A     -0.310911   167A     -0.297947   168A     -0.284193
     169A     -0.284150   170A     -0.224754   171A     -0.224699

  @DF-RHF Final Energy: -2055.89679321884705

   => Energetics <=

    Nuclear Repulsion Energy =           6452.5568002797772351
    One-Electron Energy =              -15636.5532203352704528
    Two-Electron Energy =                7128.0996268366461663
    Total Energy =                      -2055.8967932188470513
 Dipole X            :         -0.0002698           -0.0000085           -0.0002784
 Dipole Y            :          0.0010663           -0.0028843           -0.0018180
 Dipole Z            :        246.6130539         -246.6110031            0.0020508
 Magnitude           :                                                    0.0027547

    SAPT Results
  --------------------------------------------------------------------------------------------------------
    Electrostatics                -44.84326975 [mEh]     -28.13957660 [kcal/mol]    -117.73598851 [kJ/mol]
      Elst10,r                    -44.84326975 [mEh]     -28.13957660 [kcal/mol]    -117.73598851 [kJ/mol]

    Exchange                       91.93202881 [mEh]      57.68821902 [kcal/mol]     241.36750838 [kJ/mol]
      Exch10                       91.93202881 [mEh]      57.68821902 [kcal/mol]     241.36750838 [kJ/mol]
      Exch10(S^2)                  90.97939341 [mEh]      57.09043128 [kcal/mol]     238.86636448 [kJ/mol]

    Induction                     -23.74328290 [mEh]     -14.89913496 [kcal/mol]     -62.33798065 [kJ/mol]
      Ind20,r                     -49.99324775 [mEh]     -31.37123659 [kcal/mol]    -131.25725390 [kJ/mol]
      Exch-Ind20,r                 33.17146170 [mEh]      20.81540648 [kcal/mol]      87.09166070 [kJ/mol]
      delta HF,r (2)               -6.92149684 [mEh]      -4.34330484 [kcal/mol]     -18.17238746 [kJ/mol]

    Dispersion                    -61.64589357 [mEh]     -38.68338224 [kcal/mol]    -161.85127128 [kJ/mol]
      Disp20                      -70.41450969 [mEh]     -44.18577192 [kcal/mol]    -184.87326973 [kJ/mol]
      Exch-Disp20                   8.76861612 [mEh]       5.50238969 [kcal/mol]      23.02199845 [kJ/mol]
      Disp20 (SS)                 -35.20725485 [mEh]     -22.09288596 [kcal/mol]     -92.43663487 [kJ/mol]
      Disp20 (OS)                 -35.20725485 [mEh]     -22.09288596 [kcal/mol]     -92.43663487 [kJ/mol]
      Exch-Disp20 (SS)              5.24968846 [mEh]       3.29422925 [kcal/mol]      13.78305516 [kJ/mol]
      Exch-Disp20 (OS)              3.51892766 [mEh]       2.20816044 [kcal/mol]       9.23894329 [kJ/mol]

  Total HF                         23.34547616 [mEh]      14.64950746 [kcal/mol]      61.29353921 [kJ/mol]
  Total SAPT0                     -38.30041742 [mEh]     -24.03387478 [kcal/mol]    -100.55773207 [kJ/mol]

  Special recipe for scaled SAPT0 (see Manual):
    Electrostatics sSAPT0         -44.84326975 [mEh]     -28.13957660 [kcal/mol]    -117.73598851 [kJ/mol]
    Exchange sSAPT0                91.93202881 [mEh]      57.68821902 [kcal/mol]     241.36750838 [kJ/mol]
    Induction sSAPT0              -22.69032972 [mEh]     -14.23839686 [kcal/mol]     -59.57345248 [kJ/mol]
    Dispersion sSAPT0             -61.36755365 [mEh]     -38.50872130 [kcal/mol]    -161.12048991 [kJ/mol]
  Total sSAPT0                    -36.96912432 [mEh]     -23.19847575 [kcal/mol]     -97.06242253 [kJ/mol]
  --------------------------------------------------------------------------------------------------------

*** Psi4 exiting successfully. Buy a developer a beer!
