                               Psi4 1.9 release

  ==> Input File <==

--------------------------------------------------------------------------
memory 32 GB # how much memory is available ! Depends on the nodes/cores !

molecule dimer {
# monomer A
+1 1    # Charge and multiplicity
C  0.680067 -1.215929 5.608042
C -0.680504 -1.215545 5.606014
N -1.085635  0.102779 5.605016
C  0.000108  0.884180 5.601740
C -2.477365  0.570758 5.555610
N  1.085222  0.102779 5.605016
H  1.385146 -2.033368 5.615870
H -1.385302 -2.033214 5.606204
H -0.000009  1.965269 5.599993
C  2.478117  0.567877 5.621908
H  2.490592  1.658130 5.594563
H  2.967028  0.220701 6.535354
H  3.001428  0.176405 4.746425
H -2.857359  0.490799 4.533539
H -3.082679 -0.042306 6.225694
H -2.518128  1.610706 5.882594
--
# monomer B
0 1     # Charge and multiplicity
C   1.22531237526482      0.70753866091955      0.00613762728373
C   1.22532433589282     -0.70753852257020     -0.00619318228664
C   -0.00000567409046      1.41496628609039     -0.00672680580738
C   2.45644923379077      1.41832825917820      0.00902448468363
C   0.00001130712078     -1.41497612663474      0.00347275151708
C   -1.22530046906674      0.70754574598412      0.00838914760619
C   2.45643823516184     -1.41832293188077     -0.00843833914343
C   -0.00000085313587      2.83680140328112     -0.00913035594137
C   3.68182717731192      0.70931832800114     -0.00808954934571
C   2.45512052870677      2.83422403348893     -0.00819210630633
C   3.68182158506039     -0.70933346742900      0.00798293467272
C   -1.22531311884624     -0.70752714354401     -0.00512042085974
C   1.22670006104402      3.54346985599427      0.00816696660346
C   0.00000526469929     -2.83678176723568      0.00832091913869
C   -2.45643555300670      1.41831729028492      0.00842454345199
C   2.45512389762097     -2.83422965658853      0.00783102630520
C   -1.22671388474763      3.54346943575023      0.00827029982280
C   4.91451777504333      1.42717324448953     -0.00160886631602
C   3.69315067131765      3.54279566454522     -0.00155906667985
C   -2.45643712022637     -1.41831290883911     -0.00846337726810
C   1.22670532178455     -3.54347386990643     -0.00780316414624
C   -2.45512491866593      2.83421703463423     -0.00818572995999
C   4.91452486062398     -1.42718653794377      0.00136387641845
C   1.22142509354026      4.97013443726031      0.00150231067809
C   4.89300870916237      2.82518837202648     -0.00039219795739
C   -1.22669652864725     -3.54347062507680     -0.00753595973677
C   -3.68181849668397      0.70932533873199     -0.00807686886569
C   3.69314758099218     -3.54280096939050      0.00148176697923
C   -1.22143177215231      4.97012866986289      0.00168580605083
C   6.13477145276790      0.68054831910577     -0.00083909176631
C   3.65678936045204      4.97295361556775     -0.00065042889723
C   -2.45512642789169     -2.83421472106065      0.00758666850712
C   -3.68181869921921     -0.70932533146830      0.00810055625144
C   4.89301309775526     -2.82519973363176      0.00021895393805
C   -0.00000059327114      5.65044773803267      0.00045449734393
C   6.13477559217374     -0.68055448207492      0.00042622874941
C   2.47813196269732      5.65357712333155      0.00063835075260
C   1.22142288457925     -4.97012668293268     -0.00129718634452
C   -3.69316190412301      3.54279732619245     -0.00139355922051
C   -1.22142804110313     -4.97011793159564     -0.00140994817719
C   -4.91452132810043      1.42717581899491     -0.00153192130862
C   3.65678749952045     -4.97295485423912      0.00080007163680
C   -2.47813805026426      5.65357479452875      0.00092287576113
C   -3.69314125872231     -3.54278984697859      0.00136564082345
C   -4.91451200321153     -1.42718062802730      0.00139857359209
C   -0.00000552908399     -5.65043791501335      0.00005899322272
C   -4.89302000425900      2.82518897091939     -0.00040227981744
C   2.47812647313991     -5.65357317188818     -0.00029052915548
C   -3.65679823041642      4.97295655404175     -0.00047374852278
C   -4.89299899901461     -2.82519139505969      0.00006491824035
C   -2.47812801824129     -5.65356579800621     -0.00056571680280
C   -6.13477002348955      0.68054913825639     -0.00086464346868
C   -3.65678835334731     -4.97294365097028      0.00058578382008
C   -6.13476456307132     -0.68055354348201      0.00040575295444
H   5.83528897565761      3.36927626695423      0.00396712770529
H   7.07385965258860      1.22821762089947     -0.00037744837300
H   4.60066374401555      5.51238117445323     -0.00014522814529
H   5.83528386714679     -3.36930568472863     -0.00423551337640
H   -0.00001167146422      6.73853104613662     -0.00389474766392
H   7.07386165167227     -1.22822657074368     -0.00008250934481
H   2.47331421164041      6.74068466339473      0.00017162982210
H   4.60066897122302     -5.51237575717576      0.00039007446835
H   -2.47331820069565      6.74068209160650      0.00047297644710
H   -0.00000978838621     -6.73852780445195      0.00458867820736
H   -5.83530143450167      3.36927132229595      0.00410314985360
H   2.47330840367253     -6.74068500242887      0.00027980126949
H   -4.60067436136587      5.51237839860371      0.00002010017831
H   -5.83527902699321     -3.36928859177951     -0.00451481925734
H   -2.47329986759855     -6.74067870613986     -0.00016951527498
H   -7.07385728692578      1.22822084484047     -0.00046143985387
H   -4.60067330624313     -5.51236229778631      0.00021776644566
H   -7.07385645456741     -1.22822025997701     -0.00017736581114

    units angstrom      # Angstroms are the default
    no_reorient         # Geometry fixed, default
    symmetry c1         # C1 symmetry, default
}

set {
    scf_type DF         # Density fitting, faster than exact integrals
    freeze_core True    # Freeze core electrons
    basis jun-cc-pVDZ   # Jun-cc-pVDZ basis set, recommended for sSAPT0 in https://doi.org/10.1063/1.4867135
}

energy('ssapt0')        # Compute sSAPT0 energy, includes also SAPT0
--------------------------------------------------------------------------

  //              Dimer HF             //
    Molecular point group: c1
  Charge       = 1
  Multiplicity = 1
  Basis Set: JUN-CC-PVDZ
    Blend: JUN-CC-PVDZ
  Basis Set: (JUN-CC-PVDZ AUX)
    Blend: JUN-CC-PVDZ-JKFIT
  @DF-RHF Final Energy: -2359.20319052274499
    Total Energy =                      -2359.2031905227449897
 Dipole X            :          0.0035967            0.0006313            0.0042280
 Dipole Y            :         -1.5395662            1.8864948            0.3469286
 Dipole Z            :        -20.9399493           29.1350679            8.1951186
 Magnitude           :                                                    8.2024597
  //            Monomer A HF           //
    Molecular point group: c1
  Multiplicity = 1
  Basis Set: JUN-CC-PVDZ
    Blend: JUN-CC-PVDZ
  Basis Set: (JUN-CC-PVDZ AUX)
    Blend: JUN-CC-PVDZ-JKFIT
  @DF-RHF Final Energy:  -303.29754103701976
    Total Energy =                       -303.2975410370197551
  //            Monomer B HF           //
    Molecular point group: c1

    Geometry (in Angstrom), charge = 0, multiplicity = 1:

       Center              X                  Y                   Z               Mass
    ------------   -----------------  -----------------  -----------------  -----------------
      Gh(C)           0.680066520158    -1.215933861162     4.895758540591    12.000000000000
      Gh(C)          -0.680504479842    -1.215549861162     4.893730540591    12.000000000000
      Gh(N)          -1.085635479842     0.102774138838     4.892732540591    14.003074004430
      Gh(C)           0.000107520158     0.884175138838     4.889456540591    12.000000000000
      Gh(C)          -2.477365479842     0.570753138838     4.843326540591    12.000000000000
      Gh(N)           1.085221520158     0.102774138838     4.892732540591    14.003074004430
      Gh(H)           1.385145520158    -2.033372861162     4.903586540591     1.007825032230
      Gh(H)          -1.385302479842    -2.033218861162     4.893920540591     1.007825032230
      Gh(H)          -0.000009479842     1.965264138838     4.887709540591     1.007825032230
      Gh(C)           2.478116520158     0.567872138838     4.909624540591    12.000000000000
      Gh(H)           2.490591520158     1.658125138838     4.882279540591     1.007825032230
      Gh(H)           2.967027520158     0.220696138838     5.823070540591     1.007825032230
      Gh(H)           3.001427520158     0.176400138838     4.034141540591     1.007825032230
      Gh(H)          -2.857359479842     0.490794138838     3.821255540591     1.007825032230
      Gh(H)          -3.082679479842    -0.042310861162     5.513410540591     1.007825032230
      Gh(H)          -2.518128479842     1.610701138838     5.170310540591     1.007825032230
         C            1.225311895423     0.707533799757    -0.706145832125    12.000000000000
         C            1.225323856051    -0.707543383733    -0.718476641696    12.000000000000
         C           -0.000006153932     1.414961424928    -0.719010265217    12.000000000000
         C            2.456448753949     1.418323398016    -0.703258974726    12.000000000000
         C            0.000010827279    -1.414980987797    -0.708810707892    12.000000000000
         C           -1.225300948908     0.707540884822    -0.703894311803    12.000000000000
         C            2.456437755320    -1.418327793043    -0.720721798553    12.000000000000
         C           -0.000001332978     2.836796542119    -0.721413815351    12.000000000000
         C            3.681826697470     0.709313466839    -0.720373008755    12.000000000000
         C            2.455120048865     2.834219172327    -0.720475565716    12.000000000000
         C            3.681821105219    -0.709338328591    -0.704300524736    12.000000000000
         C           -1.225313598688    -0.707532004706    -0.717403880269    12.000000000000
         C            1.226699581202     3.543464994832    -0.704116492806    12.000000000000
         C            0.000004784858    -2.836786628398    -0.703962540270    12.000000000000
         C           -2.456436032848     1.418312429123    -0.703858915957    12.000000000000
         C            2.455123417779    -2.834234517751    -0.704452433104    12.000000000000
         C           -1.226714364589     3.543464574588    -0.704013159586    12.000000000000
         C            4.914517295202     1.427168383327    -0.713892325725    12.000000000000
         C            3.693150191476     3.542790803383    -0.713842526089    12.000000000000
         C           -2.456437600068    -1.418317770001    -0.720746836677    12.000000000000
         C            1.226704841943    -3.543478731069    -0.720086623555    12.000000000000
         C           -2.455125398508     2.834212173472    -0.720469189369    12.000000000000
         C            4.914524380782    -1.427191399106    -0.710919582991    12.000000000000
         C            1.221424613699     4.970129576098    -0.710781148731    12.000000000000
         C            4.893008229321     2.825183510864    -0.712675657367    12.000000000000
         C           -1.226697008489    -3.543475486239    -0.719819419146    12.000000000000
         C           -3.681818976526     0.709320477570    -0.720360328275    12.000000000000
         C            3.693147101150    -3.542805830553    -0.710801692430    12.000000000000
         C           -1.221432251994     4.970123808701    -0.710597653358    12.000000000000
         C            6.134770972926     0.680543457943    -0.713122551175    12.000000000000
         C            3.656788880610     4.972948754405    -0.712933888306    12.000000000000
         C           -2.455126907733    -2.834219582223    -0.704696790902    12.000000000000
         C           -3.681819179061    -0.709330192631    -0.704182903158    12.000000000000
         C            4.893012617914    -2.825204594794    -0.712064505471    12.000000000000
         C           -0.000001073113     5.650442876870    -0.711828962065    12.000000000000
         C            6.134775112332    -0.680559343237    -0.711857230660    12.000000000000
         C            2.478131482856     5.653572262169    -0.711645108657    12.000000000000
         C            1.221422404738    -4.970131544095    -0.713580645754    12.000000000000
         C           -3.693162383965     3.542792465030    -0.713677018630    12.000000000000
         C           -1.221428520945    -4.970122792758    -0.713693407586    12.000000000000
         C           -4.914521807942     1.427170957833    -0.713815380718    12.000000000000
         C            3.656787019679    -4.972959715401    -0.711483387772    12.000000000000
         C           -2.478138530106     5.653569933366    -0.711360583648    12.000000000000
         C           -3.693141738564    -3.542794708141    -0.710917818586    12.000000000000
         C           -4.914512483053    -1.427185489190    -0.710884885817    12.000000000000
         C           -0.000006008926    -5.650442776176    -0.712224466186    12.000000000000
         C           -4.893020484101     2.825184109757    -0.712685739227    12.000000000000
         C            2.478125993298    -5.653578033051    -0.712573988565    12.000000000000
         C           -3.656798710258     4.972951692879    -0.712757207932    12.000000000000
         C           -4.892999478856    -2.825196256222    -0.712218541169    12.000000000000
         C           -2.478128498083    -5.653570659169    -0.712849176212    12.000000000000
         C           -6.134770503331     0.680544277094    -0.713148102878    12.000000000000
         C           -3.656788833189    -4.972948512133    -0.711697675589    12.000000000000
         C           -6.134765042913    -0.680558404644    -0.711877706455    12.000000000000
         H            5.835288495816     3.369271405792    -0.708316331704     1.007825032230
         H            7.073859172747     1.228212759737    -0.712660907782     1.007825032230
         H            4.600663264174     5.512376313291    -0.712428687554     1.007825032230
         H            5.835283387305    -3.369310545891    -0.716518972786     1.007825032230
         H           -0.000012151306     6.738526184974    -0.716178207073     1.007825032230
         H            7.073861171831    -1.228231431906    -0.712365968754     1.007825032230
         H            2.473313731799     6.740679802232    -0.712111829587     1.007825032230
         H            4.600668491381    -5.512380618338    -0.711893384941     1.007825032230
         H           -2.473318680537     6.740677230444    -0.711810482962     1.007825032230
         H           -0.000010268228    -6.738532665614    -0.707694781202     1.007825032230
         H           -5.835301914343     3.369266461134    -0.708180309556     1.007825032230
         H            2.473307923831    -6.740689863591    -0.712003658140     1.007825032230
         H           -4.600674841208     5.512373537441    -0.712263359231     1.007825032230
         H           -5.835279506835    -3.369293452942    -0.716798278667     1.007825032230
         H           -2.473300347440    -6.740683567302    -0.712452974684     1.007825032230
         H           -7.073857766768     1.228215983678    -0.712744899263     1.007825032230
         H           -4.600673786085    -5.512367158949    -0.712065692964     1.007825032230
         H           -7.073856934409    -1.228225121139    -0.712460825220     1.007825032230

  Charge       = 0
  Multiplicity = 1
  Basis Set: JUN-CC-PVDZ
    Blend: JUN-CC-PVDZ
  Basis Set: (JUN-CC-PVDZ AUX)
    Blend: JUN-CC-PVDZ-JKFIT

    Orbital Energies [Eh]
    ---------------------

    Doubly Occupied:

       1A    -11.260579     2A    -11.260136     3A    -11.260134
       4A    -11.259426     5A    -11.259425     6A    -11.259256
       7A    -11.259046     8A    -11.258969     9A    -11.258967
      10A    -11.258644    11A    -11.258640    12A    -11.258572
      13A    -11.258510    14A    -11.258506    15A    -11.258501
      16A    -11.258473    17A    -11.258467    18A    -11.258451
      19A    -11.258439    20A    -11.258432    21A    -11.258427
      22A    -11.258328    23A    -11.258324    24A    -11.258024
      25A    -11.257364    26A    -11.257302    27A    -11.257302
      28A    -11.257166    29A    -11.257166    30A    -11.257081
      31A    -11.256458    32A    -11.256388    33A    -11.256387
      34A    -11.256278    35A    -11.256277    36A    -11.256230
      37A    -11.252324    38A    -11.252321    39A    -11.252321
      40A    -11.252319    41A    -11.252317    42A    -11.252314
      43A    -11.251442    44A    -11.251439    45A    -11.251437
      46A    -11.251432    47A    -11.251431    48A    -11.251426
      49A    -11.250885    50A    -11.250882    51A    -11.250882
      52A    -11.250880    53A    -11.250878    54A    -11.250875
      55A     -1.244129    56A     -1.219876    57A     -1.219872
      58A     -1.189598    59A     -1.189590    60A     -1.181014
      61A     -1.157611    62A     -1.149033    63A     -1.135560
      64A     -1.135550    65A     -1.113244    66A     -1.113240
      67A     -1.082490    68A     -1.082483    69A     -1.078666
      70A     -1.066032    71A     -1.066027    72A     -1.039450
      73A     -1.024336    74A     -1.021836    75A     -1.021789
      76A     -1.017776    77A     -1.012844    78A     -0.987079
      79A     -0.987032    80A     -0.961932    81A     -0.961882
      82A     -0.894345    83A     -0.894318    84A     -0.887999
      85A     -0.886251    86A     -0.886196    87A     -0.881453
      88A     -0.881406    89A     -0.861951    90A     -0.837455
      91A     -0.818260    92A     -0.816677    93A     -0.812193
      94A     -0.812186    95A     -0.794740    96A     -0.794729
      97A     -0.746681    98A     -0.744918    99A     -0.733478
     100A     -0.733472   101A     -0.732233   102A     -0.732209
     103A     -0.716556   104A     -0.699027   105A     -0.699012
     106A     -0.693642   107A     -0.693623   108A     -0.661281
     109A     -0.653180   110A     -0.651219   111A     -0.650304
     112A     -0.650299   113A     -0.639410   114A     -0.639404
     115A     -0.629771   116A     -0.627580   117A     -0.627565
     118A     -0.606465   119A     -0.605851   120A     -0.601717
     121A     -0.599790   122A     -0.599754   123A     -0.593685
     124A     -0.591286   125A     -0.591272   126A     -0.585322
     127A     -0.576418   128A     -0.576393   129A     -0.567371
     130A     -0.567357   131A     -0.566018   132A     -0.566000
     133A     -0.558787   134A     -0.554901   135A     -0.554895
     136A     -0.538642   137A     -0.538641   138A     -0.538245
     139A     -0.538230   140A     -0.529766   141A     -0.528175
     142A     -0.522926   143A     -0.522915   144A     -0.500552
     145A     -0.495649   146A     -0.493285   147A     -0.487872
     148A     -0.485123   149A     -0.481809   150A     -0.481802
     151A     -0.470371   152A     -0.470365   153A     -0.451083
     154A     -0.451007   155A     -0.439112   156A     -0.439104
     157A     -0.404792   158A     -0.404770   159A     -0.403413
     160A     -0.375466   161A     -0.375462   162A     -0.349167
     163A     -0.337624   164A     -0.336586   165A     -0.336545
     166A     -0.311139   167A     -0.298138   168A     -0.284386
     169A     -0.284337   170A     -0.224958   171A     -0.224896

  @DF-RHF Final Energy: -2055.89280376981242

   => Energetics <=

    Nuclear Repulsion Energy =           6452.5568002797772351
    One-Electron Energy =              -15636.4661396983192390
    Two-Electron Energy =                7128.0165356487295867
    Total Energy =                      -2055.8928037698124172
 Dipole X            :         -0.0000497           -0.0000085           -0.0000582
 Dipole Y            :          0.0029469           -0.0028843            0.0000627
 Dipole Z            :        460.3300373         -460.3405094           -0.0104720
 Magnitude           :                                                    0.0104724

    SAPT Results
  --------------------------------------------------------------------------------------------------------
    Electrostatics                 -9.33750197 [mEh]      -5.85937095 [kcal/mol]     -24.51560805 [kJ/mol]
      Elst10,r                     -9.33750197 [mEh]      -5.85937095 [kcal/mol]     -24.51560805 [kJ/mol]

    Exchange                        0.00853288 [mEh]       0.00535447 [kcal/mol]       0.02240309 [kJ/mol]
      Exch10                        0.00853288 [mEh]       0.00535447 [kcal/mol]       0.02240309 [kJ/mol]
      Exch10(S^2)                   0.00853287 [mEh]       0.00535446 [kcal/mol]       0.02240305 [kJ/mol]

    Induction                      -3.51674682 [mEh]      -2.20679195 [kcal/mol]      -9.23321752 [kJ/mol]
      Ind20,r                      -3.43003124 [mEh]      -2.15237710 [kcal/mol]      -9.00554577 [kJ/mol]
      Exch-Ind20,r                  0.00395280 [mEh]       0.00248042 [kcal/mol]       0.01037808 [kJ/mol]
      delta HF,r (2)               -0.09066839 [mEh]      -0.05689527 [kcal/mol]      -0.23804982 [kJ/mol]

    Dispersion                     -3.54251371 [mEh]      -2.22296091 [kcal/mol]      -9.30086847 [kJ/mol]
      Disp20                       -3.54631566 [mEh]      -2.22534667 [kcal/mol]      -9.31085048 [kJ/mol]
      Exch-Disp20                   0.00380195 [mEh]       0.00238576 [kcal/mol]       0.00998201 [kJ/mol]
      Disp20 (SS)                  -1.77315783 [mEh]      -1.11267334 [kcal/mol]      -4.65542524 [kJ/mol]
      Disp20 (OS)                  -1.77315783 [mEh]      -1.11267334 [kcal/mol]      -4.65542524 [kJ/mol]
      Exch-Disp20 (SS)              0.00270708 [mEh]       0.00169872 [kcal/mol]       0.00710744 [kJ/mol]
      Exch-Disp20 (OS)              0.00109487 [mEh]       0.00068704 [kcal/mol]       0.00287458 [kJ/mol]

  Total HF                        -12.84571591 [mEh]      -8.06080843 [kcal/mol]     -33.72642248 [kJ/mol]
  Total SAPT0                     -16.38822962 [mEh]     -10.28376935 [kcal/mol]     -43.02729095 [kJ/mol]

  Special recipe for scaled SAPT0 (see Manual):
    Electrostatics sSAPT0          -9.33750197 [mEh]      -5.85937095 [kcal/mol]     -24.51560805 [kJ/mol]
    Exchange sSAPT0                 0.00853288 [mEh]       0.00535447 [kcal/mol]       0.02240309 [kJ/mol]
    Induction sSAPT0               -3.51674682 [mEh]      -2.20679195 [kcal/mol]      -9.23321752 [kJ/mol]
    Dispersion sSAPT0              -3.54251371 [mEh]      -2.22296091 [kcal/mol]      -9.30086847 [kJ/mol]
  Total sSAPT0                    -16.38822962 [mEh]     -10.28376935 [kcal/mol]     -43.02729095 [kJ/mol]
  --------------------------------------------------------------------------------------------------------

*** Psi4 exiting successfully. Buy a developer a beer!
