                               Psi4 1.9 release

  ==> Input File <==

--------------------------------------------------------------------------
memory 32 GB # how much memory is available ! Depends on the nodes/cores !

molecule dimer {
# monomer A
-1 1    # Charge and multiplicity
B -0.000046  0.000337 6.199994
F -1.153597  0.000048 7.015641
F  1.153661 -0.000581 7.015641
F -0.000019 -1.153637 5.384360
F -0.000019  1.153978 5.384360
--
# monomer B
0 1     # Charge and multiplicity
C   1.22531237526482      0.70753866091955      0.00613762728373
C   1.22532433589282     -0.70753852257020     -0.00619318228664
C   -0.00000567409046      1.41496628609039     -0.00672680580738
C   2.45644923379077      1.41832825917820      0.00902448468363
C   0.00001130712078     -1.41497612663474      0.00347275151708
C   -1.22530046906674      0.70754574598412      0.00838914760619
C   2.45643823516184     -1.41832293188077     -0.00843833914343
C   -0.00000085313587      2.83680140328112     -0.00913035594137
C   3.68182717731192      0.70931832800114     -0.00808954934571
C   2.45512052870677      2.83422403348893     -0.00819210630633
C   3.68182158506039     -0.70933346742900      0.00798293467272
C   -1.22531311884624     -0.70752714354401     -0.00512042085974
C   1.22670006104402      3.54346985599427      0.00816696660346
C   0.00000526469929     -2.83678176723568      0.00832091913869
C   -2.45643555300670      1.41831729028492      0.00842454345199
C   2.45512389762097     -2.83422965658853      0.00783102630520
C   -1.22671388474763      3.54346943575023      0.00827029982280
C   4.91451777504333      1.42717324448953     -0.00160886631602
C   3.69315067131765      3.54279566454522     -0.00155906667985
C   -2.45643712022637     -1.41831290883911     -0.00846337726810
C   1.22670532178455     -3.54347386990643     -0.00780316414624
C   -2.45512491866593      2.83421703463423     -0.00818572995999
C   4.91452486062398     -1.42718653794377      0.00136387641845
C   1.22142509354026      4.97013443726031      0.00150231067809
C   4.89300870916237      2.82518837202648     -0.00039219795739
C   -1.22669652864725     -3.54347062507680     -0.00753595973677
C   -3.68181849668397      0.70932533873199     -0.00807686886569
C   3.69314758099218     -3.54280096939050      0.00148176697923
C   -1.22143177215231      4.97012866986289      0.00168580605083
C   6.13477145276790      0.68054831910577     -0.00083909176631
C   3.65678936045204      4.97295361556775     -0.00065042889723
C   -2.45512642789169     -2.83421472106065      0.00758666850712
C   -3.68181869921921     -0.70932533146830      0.00810055625144
C   4.89301309775526     -2.82519973363176      0.00021895393805
C   -0.00000059327114      5.65044773803267      0.00045449734393
C   6.13477559217374     -0.68055448207492      0.00042622874941
C   2.47813196269732      5.65357712333155      0.00063835075260
C   1.22142288457925     -4.97012668293268     -0.00129718634452
C   -3.69316190412301      3.54279732619245     -0.00139355922051
C   -1.22142804110313     -4.97011793159564     -0.00140994817719
C   -4.91452132810043      1.42717581899491     -0.00153192130862
C   3.65678749952045     -4.97295485423912      0.00080007163680
C   -2.47813805026426      5.65357479452875      0.00092287576113
C   -3.69314125872231     -3.54278984697859      0.00136564082345
C   -4.91451200321153     -1.42718062802730      0.00139857359209
C   -0.00000552908399     -5.65043791501335      0.00005899322272
C   -4.89302000425900      2.82518897091939     -0.00040227981744
C   2.47812647313991     -5.65357317188818     -0.00029052915548
C   -3.65679823041642      4.97295655404175     -0.00047374852278
C   -4.89299899901461     -2.82519139505969      0.00006491824035
C   -2.47812801824129     -5.65356579800621     -0.00056571680280
C   -6.13477002348955      0.68054913825639     -0.00086464346868
C   -3.65678835334731     -4.97294365097028      0.00058578382008
C   -6.13476456307132     -0.68055354348201      0.00040575295444
H   5.83528897565761      3.36927626695423      0.00396712770529
H   7.07385965258860      1.22821762089947     -0.00037744837300
H   4.60066374401555      5.51238117445323     -0.00014522814529
H   5.83528386714679     -3.36930568472863     -0.00423551337640
H   -0.00001167146422      6.73853104613662     -0.00389474766392
H   7.07386165167227     -1.22822657074368     -0.00008250934481
H   2.47331421164041      6.74068466339473      0.00017162982210
H   4.60066897122302     -5.51237575717576      0.00039007446835
H   -2.47331820069565      6.74068209160650      0.00047297644710
H   -0.00000978838621     -6.73852780445195      0.00458867820736
H   -5.83530143450167      3.36927132229595      0.00410314985360
H   2.47330840367253     -6.74068500242887      0.00027980126949
H   -4.60067436136587      5.51237839860371      0.00002010017831
H   -5.83527902699321     -3.36928859177951     -0.00451481925734
H   -2.47329986759855     -6.74067870613986     -0.00016951527498
H   -7.07385728692578      1.22822084484047     -0.00046143985387
H   -4.60067330624313     -5.51236229778631      0.00021776644566
H   -7.07385645456741     -1.22822025997701     -0.00017736581114

    units angstrom      # Angstroms are the default
    no_reorient         # Geometry fixed, default
    symmetry c1         # C1 symmetry, default
}

set {
    scf_type DF         # Density fitting, faster than exact integrals
    freeze_core True    # Freeze core electrons
    basis jun-cc-pVDZ   # Jun-cc-pVDZ basis set, recommended for sSAPT0 in https://doi.org/10.1063/1.4867135
}

energy('ssapt0')        # Compute sSAPT0 energy, includes also SAPT0
--------------------------------------------------------------------------

  //              Dimer HF             //
    Molecular point group: c1
  Charge       = -1
  Multiplicity = 1
  Basis Set: JUN-CC-PVDZ
    Blend: JUN-CC-PVDZ
  Basis Set: (JUN-CC-PVDZ AUX)
    Blend: JUN-CC-PVDZ-JKFIT
  @DF-RHF Final Energy: -2478.65805012218834
    Total Energy =                      -2478.6580501221887971
 Dipole X            :         -0.0001938           -0.0000160           -0.0002098
 Dipole Y            :          0.0012547           -0.0001716            0.0010830
 Dipole Z            :         28.5181268          -38.0078933           -9.4897666
 Magnitude           :                                                    9.4897666
  //            Monomer A HF           //
    Molecular point group: c1
  Multiplicity = 1
  Basis Set: JUN-CC-PVDZ
    Blend: JUN-CC-PVDZ
  Basis Set: (JUN-CC-PVDZ AUX)
    Blend: JUN-CC-PVDZ-JKFIT
  @DF-RHF Final Energy:  -422.77157695022896
    Total Energy =                       -422.7715769502289618
  //            Monomer B HF           //
    Molecular point group: c1

    Geometry (in Angstrom), charge = 0, multiplicity = 1:

       Center              X                  Y                   Z               Mass
    ------------   -----------------  -----------------  -----------------  -----------------
      Gh(B)          -0.000046449334     0.000336519434     5.483774325339    11.009305360000
      Gh(F)          -1.153597449334     0.000047519434     6.299421325339    18.998403162730
      Gh(F)           1.153660550666    -0.000581480566     6.299421325339    18.998403162730
      Gh(F)          -0.000019449334    -1.153637480566     4.668140325339    18.998403162730
      Gh(F)          -0.000019449334     1.153977519434     4.668140325339    18.998403162730
         C            1.225311925931     0.707538180353    -0.710082047378    12.000000000000
         C            1.225323886559    -0.707539003137    -0.722412856948    12.000000000000
         C           -0.000006123424     1.414965805524    -0.722946480469    12.000000000000
         C            2.456448784457     1.418327778612    -0.707195189978    12.000000000000
         C            0.000010857787    -1.414976607201    -0.712746923144    12.000000000000
         C           -1.225300918401     0.707545265418    -0.707830527055    12.000000000000
         C            2.456437785828    -1.418323412447    -0.724658013805    12.000000000000
         C           -0.000001302470     2.836800922715    -0.725350030603    12.000000000000
         C            3.681826727978     0.709317847435    -0.724309224007    12.000000000000
         C            2.455120079373     2.834223552923    -0.724411780968    12.000000000000
         C            3.681821135726    -0.709333947995    -0.708236739989    12.000000000000
         C           -1.225313568180    -0.707527624110    -0.721340095521    12.000000000000
         C            1.226699611710     3.543469375428    -0.708052708058    12.000000000000
         C            0.000004815365    -2.836782247802    -0.707898755523    12.000000000000
         C           -2.456436002341     1.418316809719    -0.707795131209    12.000000000000
         C            2.455123448287    -2.834230137155    -0.708388648356    12.000000000000
         C           -1.226714334082     3.543468955184    -0.707949374838    12.000000000000
         C            4.914517325709     1.427172763923    -0.717828540977    12.000000000000
         C            3.693150221984     3.542795183979    -0.717778741341    12.000000000000
         C           -2.456437569560    -1.418313389406    -0.724683051929    12.000000000000
         C            1.226704872451    -3.543474350473    -0.724022838807    12.000000000000
         C           -2.455125368000     2.834216554068    -0.724405404621    12.000000000000
         C            4.914524411290    -1.427187018510    -0.714855798243    12.000000000000
         C            1.221424644206     4.970133956694    -0.714717363983    12.000000000000
         C            4.893008259828     2.825187891460    -0.716611872619    12.000000000000
         C           -1.226696977981    -3.543471105643    -0.723755634398    12.000000000000
         C           -3.681818946018     0.709324858166    -0.724296543527    12.000000000000
         C            3.693147131658    -3.542801449957    -0.714737907682    12.000000000000
         C           -1.221432221486     4.970128189296    -0.714533868610    12.000000000000
         C            6.134771003434     0.680547838539    -0.717058766428    12.000000000000
         C            3.656788911118     4.972953135001    -0.716870103558    12.000000000000
         C           -2.455126877226    -2.834215201627    -0.708633006154    12.000000000000
         C           -3.681819148553    -0.709325812035    -0.708119118410    12.000000000000
         C            4.893012648421    -2.825200214198    -0.716000720723    12.000000000000
         C           -0.000001042605     5.650447257466    -0.715765177317    12.000000000000
         C            6.134775142840    -0.680554962641    -0.715793445912    12.000000000000
         C            2.478131513363     5.653576642765    -0.715581323909    12.000000000000
         C            1.221422435245    -4.970127163499    -0.717516861006    12.000000000000
         C           -3.693162353457     3.542796845626    -0.717613233882    12.000000000000
         C           -1.221428490437    -4.970118412162    -0.717629622838    12.000000000000
         C           -4.914521777434     1.427175338429    -0.717751595970    12.000000000000
         C            3.656787050187    -4.972955334806    -0.715419603024    12.000000000000
         C           -2.478138499598     5.653574313962    -0.715296798900    12.000000000000
         C           -3.693141708056    -3.542790327545    -0.714854033838    12.000000000000
         C           -4.914512452545    -1.427181108594    -0.714821101069    12.000000000000
         C           -0.000005978418    -5.650438395580    -0.716160681439    12.000000000000
         C           -4.893020453593     2.825188490353    -0.716621954479    12.000000000000
         C            2.478126023806    -5.653573652455    -0.716510203817    12.000000000000
         C           -3.656798679750     4.972956073475    -0.716693423184    12.000000000000
         C           -4.892999448349    -2.825191875626    -0.716154756421    12.000000000000
         C           -2.478128467575    -5.653566278573    -0.716785391464    12.000000000000
         C           -6.134770472823     0.680548657690    -0.717084318130    12.000000000000
         C           -3.656788802681    -4.972944131537    -0.715633890841    12.000000000000
         C           -6.134765012405    -0.680554024048    -0.715813921707    12.000000000000
         H            5.835288526324     3.369275786388    -0.712252546956     1.007825032230
         H            7.073859203255     1.228217140333    -0.716597123034     1.007825032230
         H            4.600663294682     5.512380693887    -0.716364902807     1.007825032230
         H            5.835283417813    -3.369306165295    -0.720455188038     1.007825032230
         H           -0.000012120798     6.738530565570    -0.720114422325     1.007825032230
         H            7.073861202338    -1.228227051310    -0.716302184006     1.007825032230
         H            2.473313762307     6.740684182828    -0.716048044839     1.007825032230
         H            4.600668521889    -5.512376237742    -0.715829600193     1.007825032230
         H           -2.473318650030     6.740681611040    -0.715746698214     1.007825032230
         H           -0.000010237720    -6.738528285018    -0.711630996454     1.007825032230
         H           -5.835301883836     3.369270841730    -0.712116524808     1.007825032230
         H            2.473307954339    -6.740685482995    -0.715939873392     1.007825032230
         H           -4.600674810700     5.512377918037    -0.716199574483     1.007825032230
         H           -5.835279476327    -3.369289072346    -0.720734493919     1.007825032230
         H           -2.473300316932    -6.740679186706    -0.716389189936     1.007825032230
         H           -7.073857736260     1.228220364274    -0.716681114515     1.007825032230
         H           -4.600673755577    -5.512362778353    -0.716001908216     1.007825032230
         H           -7.073856903901    -1.228220740543    -0.716397040472     1.007825032230

  Charge       = 0
  Multiplicity = 1
  Basis Set: JUN-CC-PVDZ
    Blend: JUN-CC-PVDZ
  Basis Set: (JUN-CC-PVDZ AUX)
    Blend: JUN-CC-PVDZ-JKFIT

    Orbital Energies [Eh]
    ---------------------

    Doubly Occupied:

       1A    -11.260646     2A    -11.260207     3A    -11.260199
       4A    -11.259496     5A    -11.259491     6A    -11.259325
       7A    -11.259116     8A    -11.259040     9A    -11.259036
      10A    -11.258715    11A    -11.258710    12A    -11.258644
      13A    -11.258581    14A    -11.258577    15A    -11.258574
      16A    -11.258544    17A    -11.258540    18A    -11.258523
      19A    -11.258509    20A    -11.258504    21A    -11.258499
      22A    -11.258399    23A    -11.258393    24A    -11.258092
      25A    -11.257436    26A    -11.257374    27A    -11.257373
      28A    -11.257238    29A    -11.257238    30A    -11.257153
      31A    -11.256530    32A    -11.256460    33A    -11.256459
      34A    -11.256350    35A    -11.256349    36A    -11.256302
      37A    -11.252384    38A    -11.252384    39A    -11.252382
      40A    -11.252381    41A    -11.252379    42A    -11.252377
      43A    -11.251515    44A    -11.251512    45A    -11.251510
      46A    -11.251505    47A    -11.251504    48A    -11.251500
      49A    -11.250946    50A    -11.250945    51A    -11.250944
      52A    -11.250941    53A    -11.250940    54A    -11.250939
      55A     -1.244254    56A     -1.219987    57A     -1.219982
      58A     -1.189698    59A     -1.189689    60A     -1.181128
      61A     -1.157701    62A     -1.149130    63A     -1.135668
      64A     -1.135665    65A     -1.113334    66A     -1.113329
      67A     -1.082598    68A     -1.082593    69A     -1.078777
      70A     -1.066118    71A     -1.066114    72A     -1.039553
      73A     -1.024455    74A     -1.021952    75A     -1.021912
      76A     -1.017867    77A     -1.012929    78A     -0.987190
      79A     -0.987143    80A     -0.962024    81A     -0.961976
      82A     -0.894442    83A     -0.894416    84A     -0.888126
      85A     -0.886375    86A     -0.886314    87A     -0.881568
      88A     -0.881522    89A     -0.862049    90A     -0.837534
      91A     -0.818364    92A     -0.816795    93A     -0.812307
      94A     -0.812297    95A     -0.794831    96A     -0.794821
      97A     -0.746804    98A     -0.745032    99A     -0.733596
     100A     -0.733586   101A     -0.732329   102A     -0.732306
     103A     -0.716667   104A     -0.699123   105A     -0.699115
     106A     -0.693746   107A     -0.693732   108A     -0.661376
     109A     -0.653293   110A     -0.651341   111A     -0.650394
     112A     -0.650389   113A     -0.639505   114A     -0.639504
     115A     -0.629882   116A     -0.627694   117A     -0.627676
     118A     -0.606460   119A     -0.605919   120A     -0.601834
     121A     -0.599891   122A     -0.599862   123A     -0.593796
     124A     -0.591410   125A     -0.591404   126A     -0.585402
     127A     -0.576421   128A     -0.576400   129A     -0.567458
     130A     -0.567444   131A     -0.566130   132A     -0.566110
     133A     -0.558904   134A     -0.554996   135A     -0.554991
     136A     -0.538737   137A     -0.538734   138A     -0.538272
     139A     -0.538267   140A     -0.529870   141A     -0.528203
     142A     -0.523024   143A     -0.523018   144A     -0.500646
     145A     -0.495703   146A     -0.493383   147A     -0.487931
     148A     -0.485237   149A     -0.481918   150A     -0.481910
     151A     -0.470432   152A     -0.470399   153A     -0.451212
     154A     -0.451132   155A     -0.439173   156A     -0.439164
     157A     -0.404850   158A     -0.404827   159A     -0.403474
     160A     -0.375527   161A     -0.375525   162A     -0.349230
     163A     -0.337694   164A     -0.336666   165A     -0.336600
     166A     -0.311206   167A     -0.298196   168A     -0.284458
     169A     -0.284407   170A     -0.225031   171A     -0.224963

  @DF-RHF Final Energy: -2055.89189711642621

   => Energetics <=

    Nuclear Repulsion Energy =           6452.5568002797781446
    One-Electron Energy =              -15636.4352042375903693
    Two-Electron Energy =                7127.9865068413873814
    Total Energy =                      -2055.8918971164257528
 Dipole X            :          0.0000764            0.0000112            0.0000876
 Dipole Y            :          0.0000522           -0.0000531           -0.0000010
 Dipole Z            :        462.8807262         -462.8844315           -0.0037052
 Magnitude           :                                                    0.0037063

    SAPT Results
  --------------------------------------------------------------------------------------------------------
    Electrostatics                  8.84841268 [mEh]       5.55246278 [kcal/mol]      23.23150429 [kJ/mol]
      Elst10,r                      8.84841268 [mEh]       5.55246278 [kcal/mol]      23.23150429 [kJ/mol]

    Exchange                        0.00053367 [mEh]       0.00033488 [kcal/mol]       0.00140114 [kJ/mol]
      Exch10                        0.00053367 [mEh]       0.00033488 [kcal/mol]       0.00140114 [kJ/mol]
      Exch10(S^2)                   0.00053367 [mEh]       0.00033489 [kcal/mol]       0.00140116 [kJ/mol]

    Induction                      -3.42500188 [mEh]      -2.14922113 [kcal/mol]      -8.99234119 [kJ/mol]
      Ind20,r                      -3.45521497 [mEh]      -2.16818013 [kcal/mol]      -9.07166566 [kJ/mol]
      Exch-Ind20,r                  0.00089274 [mEh]       0.00056021 [kcal/mol]       0.00234390 [kJ/mol]
      delta HF,r (2)                0.02932035 [mEh]       0.01839880 [kcal/mol]       0.07698057 [kJ/mol]

    Dispersion                     -0.73806050 [mEh]      -0.46313996 [kcal/mol]      -1.93777758 [kJ/mol]
      Disp20                       -0.73906437 [mEh]      -0.46376989 [kcal/mol]      -1.94041323 [kJ/mol]
      Exch-Disp20                   0.00100387 [mEh]       0.00062994 [kcal/mol]       0.00263565 [kJ/mol]
      Disp20 (SS)                  -0.36953218 [mEh]      -0.23188495 [kcal/mol]      -0.97020662 [kJ/mol]
      Disp20 (OS)                  -0.36953218 [mEh]      -0.23188495 [kcal/mol]      -0.97020662 [kJ/mol]
      Exch-Disp20 (SS)              0.00076975 [mEh]       0.00048302 [kcal/mol]       0.00202097 [kJ/mol]
      Exch-Disp20 (OS)              0.00023412 [mEh]       0.00014691 [kcal/mol]       0.00061468 [kJ/mol]

  Total HF                          5.42394447 [mEh]       3.40357654 [kcal/mol]      14.24056424 [kJ/mol]
  Total SAPT0                       4.68588396 [mEh]       2.94043658 [kcal/mol]      12.30278665 [kJ/mol]

  Special recipe for scaled SAPT0 (see Manual):
    Electrostatics sSAPT0           8.84841268 [mEh]       5.55246278 [kcal/mol]      23.23150429 [kJ/mol]
    Exchange sSAPT0                 0.00053367 [mEh]       0.00033488 [kcal/mol]       0.00140114 [kJ/mol]
    Induction sSAPT0               -3.42500188 [mEh]      -2.14922113 [kcal/mol]      -8.99234119 [kJ/mol]
    Dispersion sSAPT0              -0.73806050 [mEh]      -0.46313996 [kcal/mol]      -1.93777758 [kJ/mol]
  Total sSAPT0                      4.68588396 [mEh]       2.94043658 [kcal/mol]      12.30278665 [kJ/mol]
  --------------------------------------------------------------------------------------------------------

*** Psi4 exiting successfully. Buy a developer a beer!
