                               Psi4 1.9 release

  ==> Input File <==

--------------------------------------------------------------------------
memory 47 GB # how much memory is available ! Depends on the nodes/cores !

molecule dimer {
# monomer A
-1 1    # Charge and multiplicity
B -1.977592e-04  2.742729e-04 5.000034
F  1.123153e-16  1.430594e-17 6.412819
F  1.147860e+00  6.757812e-01 4.528893
F  1.191806e-02 -1.332011e+00 4.529095
F -1.159666e+00  6.560735e-01 4.529174
--
# monomer B
0 1     # Charge and multiplicity
C   -3.66844126402057      7.80375217008252      0.00190004133558
C   -4.84759871934653      7.13124183134024     -0.00046653359696
C   -4.89495929917518      5.69633040353158     -0.00103944469517
C   -3.65374067877320      4.98073034095895      0.00662099703436
C   -2.40942512149445      7.11398103667468      0.00209438359570
C   -2.42547734410473      5.68112195090346     -0.00491050527438
C   -1.19474401643570      7.78614419430947      0.00356656413763
C   0.03795902893699      7.09942164575698      0.00139585983271
C   0.03033258741920      5.66948955970466     -0.00408752508301
C   -1.20098450790502      4.96927034791531      0.00488220885047
C   1.27795782581485      7.77285944319479      0.00277170839332
C   2.48535808472416      7.08769688523756      0.00049722048857
C   2.48612868491717      5.65477081024076     -0.00644052849921
C   1.25408291964399      4.95607811366431      0.00518741308898
C   3.75171459140595      7.76391215098033      0.00062407186893
C   4.92356605618520      7.07878077698995     -0.00143240883900
C   4.95560727132542      5.64344746336949     -0.00159282164606
C   3.70680153420475      4.94121020833308      0.00349873852374
H   -3.65852113775815      8.89082741913536      0.00358502958574
H   -1.18921332975660      8.87412108735996      0.00753844057883
H   1.28429423888630      8.86083343548850      0.00693053253426
H   3.75354208679975      8.85103527897216      0.00214659618464
H   5.86995870320703      7.61379483465560     -0.00235777588134
H   -5.78823170750226      7.67630221293400     -0.00202638095293
C   -6.09197395869619      4.99326001364347     -0.00291168518608
C   -6.12866148031747      3.58258016879823     -0.00171050815740
C   -3.66457974004527      3.56418217974434     -0.00463560277484
C   -4.89429820469869      2.86108077590057      0.00453338221034
C   -2.43733499489796      2.84761165708481      0.00719617576166
C   -1.20922785759670      3.54788693497833     -0.00648285103018
C   1.24714157216223      3.53468075142962     -0.00729145743546
C   0.01517603956900      2.83311183930540      0.00439272578912
C   2.46764517244071      2.82128997725533      0.00449278391269
C   3.70254947457969      3.52466015442405     -0.00899517692985
C   6.14498038638375      4.92757236613191     -0.00282626685777
C   6.16658835886151      3.51658447594213     -0.00065971342101
C   4.92460995845939      2.80840792535402      0.00587903281610
H   7.08990550964105      5.46688776622306     -0.00658814770723
H   -7.03104175110130      5.54268795285765     -0.00714490013730
C   -7.33969804112295      2.85841153457957     -0.00333767559888
C   -7.36488195805880      1.47032337158330     -0.00157213747140
C   -4.90350460894690      1.44442681216000     -0.00628840166334
C   -6.13225715261081      0.73993935705394      0.00600164231964
C   -3.67687480051673      0.72669714267312      0.00433931473643
C   -2.44565658606518      1.42964113326212     -0.00597039546461
C   -1.22360068130162      0.71532450163492      0.00545886906656
C   0.00763786931376      1.41738314923765      0.00392452278437
C   1.23121980774686      0.70211669058719     -0.01490206287210
C   2.46082110053113      1.40329203612573      0.00460244601878
C   3.68443025419614      0.68719842821222      0.00377365974158
C   4.91870890153864      1.39173456118907     -0.00862816189375
C   7.36980207796101      2.77948220318441     -0.00242013321349
C   7.38016266612146      1.39121750785509     -0.00087345036788
C   6.13979953912259      0.67411862320065      0.00545489144369
H   -8.27919079934664      3.40711804112415     -0.00763522772059
H   8.31511347147953      3.31811809662368     -0.00663070901292
C   -8.59175593758115      0.72483255304480     -0.00123170985383
C   -8.59902460370342     -0.63263980622873      0.00089141472904
C   -6.13981313911873     -0.67413663715361     -0.00609792660607
C   -7.38018411213749     -1.39126618958160      0.00131813493501
C   -4.91868448025621     -1.39175501803000      0.00624257154343
C   -3.68443829568458     -0.68723731573599     -0.00478966852105
C   -2.46081704024768     -1.40334517882457      0.00575341766833
C   -1.23116201232071     -0.70217386488055     -0.00636696112346
C   -0.00756962538737     -1.41741884941102      0.00108956317991
C   1.22364771588843     -0.71527537726392      0.01109518512883
C   2.44567064933149     -1.42964328900682     -0.00065482763106
C   3.67686670284649     -0.72670743155550     -0.00479541202602
C   6.13224884641929     -0.73997883984993     -0.00632338623858
C   4.90351914550401     -1.44445752054090      0.00751768830159
C   8.59901484869081      0.63260386666793     -0.00101133422380
C   8.59174548810050     -0.72485086719319      0.00072504603735
C   7.36486276438985     -1.47033266560598      0.00049486934466
H   -9.52830597181814      1.27684744919284     -0.00270163681798
H   9.54141097460619      1.17457248844457     -0.00206336648518
C   -7.36983790976868     -2.77954514593389      0.00312634335708
C   -4.92459910905015     -2.80843725734101     -0.00460528907921
C   -6.16662249566744     -3.51665219282533      0.00169655107992
C   -3.70251035970491     -3.52468154912026      0.00571878010666
C   -2.46764698511392     -2.82132596280400     -0.00632585824990
C   -0.01513347410770     -2.83314164539971     -0.00604426974092
C   -1.24712184122656     -3.53473217556300      0.00551968366725
C   1.20924506964357     -3.54791467864352      0.00805871345849
C   2.43733602215464     -2.84764173817541     -0.00608104485234
C   4.89430234377080     -2.86112296828604     -0.00526030478103
C   3.66461525504104     -3.56421984553201      0.00761911515957
C   6.12863901474565     -3.58258405771778      0.00096495711699
C   7.33967266469532     -2.85841330737039      0.00248018319869
H   -9.54144911125902     -1.17456346666430      0.00226083090216
H   9.52826186807155     -1.27691907390448      0.00197485379837
H   -8.31516504384864     -3.31814985321231      0.00729857188773
H   8.27915514249207     -3.40714078989363      0.00681973918158
C   -6.14499418870218     -4.92764727278338      0.00302254913999
C   -3.70678334799751     -4.94126171411716     -0.00679841894792
C   -4.95559005800169     -5.64349397349412      0.00116871569699
C   -2.48612132622665     -5.65478557440947      0.00614125209662
C   -1.25405833548005     -4.95612205000132     -0.00503435388927
C   1.20101257386816     -4.96928038819302     -0.00385322963129
C   -0.03033667441341     -5.66952030313900      0.00398997003238
C   3.65375010132847     -4.98074377541453     -0.00309522988330
C   2.42549269587528     -5.68117463552727      0.00628170066869
C   6.09196561781097     -4.99325796338655      0.00325918379042
C   4.89497644461045     -5.69634842095790      0.00202298796027
H   -7.08989238804069     -5.46699984223871      0.00742531082125
H   7.03105520920009     -5.54265853633254      0.00683896355417
C   -4.92354532219813     -7.07882109967734      0.00061394679214
C   -2.48534208823777     -7.08772807792913     -0.00189594564379
C   -3.75168589177895     -7.76394715763627     -0.00170126671874
C   -0.03794895698805     -7.09946487446944     -0.00168022049625
C   -1.27795610040136     -7.77290438466689     -0.00366491325785
C   2.40944432072629     -7.11402201200282     -0.00081701968533
C   1.19474993715296     -7.78618536556242     -0.00296931056689
C   4.84762105249800     -7.13126211057943      0.00168979497423
C   3.66847160587561     -7.80378799294376     -0.00065863938960
H   -5.86994035041618     -7.61383059804164      0.00215798365757
H   5.78824962538815     -7.67633218931421      0.00281691445618
H   -3.75352693944918     -8.85107156923607     -0.00353718114765
H   -1.28430440589466     -8.86087539249706     -0.00809229711623
H   1.18922157469537     -8.87416062058945     -0.00706194725726
H   3.65854661482387     -8.89086063405326     -0.00231318081200

    units angstrom      # Angstroms are the default
    no_reorient         # Geometry fixed, default
    symmetry c1         # C1 symmetry, default
}

set {
    scf_type DF         # Density fitting, faster than exact integrals
    freeze_core True    # Freeze core electrons
    basis jun-cc-pVDZ   # Jun-cc-pVDZ basis set, recommended for sSAPT0 in https://doi.org/10.1063/1.4867135
}

energy('ssapt0')        # Compute sSAPT0 energy, includes also SAPT0
--------------------------------------------------------------------------

  //              Dimer HF             //
    Molecular point group: c1
  Charge       = -1
  Multiplicity = 1
  Basis Set: JUN-CC-PVDZ
    Blend: JUN-CC-PVDZ
  Basis Set: (JUN-CC-PVDZ AUX)
    Blend: JUN-CC-PVDZ-JKFIT
  @DF-RHF Final Energy: -4073.10762789195769
    Total Energy =                      -4073.1076278919572360
 Dipole X            :          0.0000146           -0.0000548           -0.0000402
 Dipole Y            :          0.0011183           -0.0002464            0.0008719
 Dipole Z            :         22.2230834          -29.7561148           -7.5330314
 Magnitude           :                                                    7.5330314
  //            Monomer A HF           //
    Molecular point group: c1
  Multiplicity = 1
  Basis Set: JUN-CC-PVDZ
    Blend: JUN-CC-PVDZ
  Basis Set: (JUN-CC-PVDZ AUX)
    Blend: JUN-CC-PVDZ-JKFIT
  @DF-RHF Final Energy:  -422.77201906735252
    Total Energy =                       -422.7720190673525167
  //            Monomer B HF           //
    Molecular point group: c1

    Geometry (in Angstrom), charge = 0, multiplicity = 1:

       Center              X                  Y                   Z               Mass
    ------------   -----------------  -----------------  -----------------  -----------------
      Gh(B)          -0.000201921932     0.000288800891     4.655653264022    11.009305360000
      Gh(F)          -0.000004162732     0.000014527991     6.068438264022    18.998403162730
      Gh(F)           1.147855837268     0.675795727991     4.184512264022    18.998403162730
      Gh(F)           0.011913897268    -1.331996472009     4.184714264022    18.998403162730
      Gh(F)          -1.159670162732     0.656088027991     4.184793264022    18.998403162730
         C           -3.668445426752     7.803766698073    -0.342480694642    12.000000000000
         C           -4.847602882078     7.131256359331    -0.344847269575    12.000000000000
         C           -4.894963461907     5.696344931522    -0.345420180673    12.000000000000
         C           -3.653744841505     4.980744868950    -0.337759738943    12.000000000000
         C           -2.409429284226     7.113995564665    -0.342286352382    12.000000000000
         C           -2.425481506836     5.681136478894    -0.349291241252    12.000000000000
         C           -1.194748179167     7.786158722300    -0.340814171840    12.000000000000
         C            0.037954866205     7.099436173748    -0.342984876145    12.000000000000
         C            0.030328424687     5.669504087695    -0.348468261061    12.000000000000
         C           -1.200988670637     4.969284875906    -0.339498527127    12.000000000000
         C            1.277953663083     7.772873971185    -0.341609027584    12.000000000000
         C            2.485353921992     7.087711413228    -0.343883515489    12.000000000000
         C            2.486124522185     5.654785338231    -0.350821264477    12.000000000000
         C            1.254078756912     4.956092641655    -0.339193322889    12.000000000000
         C            3.751710428674     7.763926678971    -0.343756664109    12.000000000000
         C            4.923561893453     7.078795304981    -0.345813144817    12.000000000000
         C            4.955603108594     5.643461991360    -0.345973557624    12.000000000000
         C            3.706797371473     4.941224736324    -0.340881997454    12.000000000000
         H           -3.658525300490     8.890841947126    -0.340795706392     1.007825032230
         H           -1.189217492488     8.874135615351    -0.336842295399     1.007825032230
         H            1.284290076155     8.860847963479    -0.337450203443     1.007825032230
         H            3.753537924068     8.851049806963    -0.342234139793     1.007825032230
         H            5.869954540475     7.613809362646    -0.346738511859     1.007825032230
         H           -5.788235870234     7.676316740925    -0.346407116931     1.007825032230
         C           -6.091978121428     4.993274541634    -0.347292421164    12.000000000000
         C           -6.128665643049     3.582594696789    -0.346091244135    12.000000000000
         C           -3.664583902777     3.564196707735    -0.349016338753    12.000000000000
         C           -4.894302367430     2.861095303891    -0.339847353767    12.000000000000
         C           -2.437339157630     2.847626185075    -0.337184560216    12.000000000000
         C           -1.209232020328     3.547901462969    -0.350863587008    12.000000000000
         C            1.247137409430     3.534695279420    -0.351672193413    12.000000000000
         C            0.015171876837     2.833126367296    -0.339988010189    12.000000000000
         C            2.467641009709     2.821304505246    -0.339887952065    12.000000000000
         C            3.702545311848     3.524674682415    -0.353375912908    12.000000000000
         C            6.144976223652     4.927586894122    -0.347207002836    12.000000000000
         C            6.166584196130     3.516599003933    -0.345040449399    12.000000000000
         C            4.924605795728     2.808422453345    -0.338501703162    12.000000000000
         H            7.089901346909     5.466902294214    -0.350968883685     1.007825032230
         H           -7.031045913833     5.542702480848    -0.351525636115     1.007825032230
         C           -7.339702203855     2.858426062570    -0.347718411577    12.000000000000
         C           -7.364886120791     1.470337899574    -0.345952873449    12.000000000000
         C           -4.903508771679     1.444441340151    -0.350669137641    12.000000000000
         C           -6.132261315343     0.739953885044    -0.338379093658    12.000000000000
         C           -3.676878963248     0.726711670664    -0.340041421241    12.000000000000
         C           -2.445660748797     1.429655661253    -0.350351131442    12.000000000000
         C           -1.223604844033     0.715339029625    -0.338921866911    12.000000000000
         C            0.007633706582     1.417397677228    -0.340456213193    12.000000000000
         C            1.231215645015     0.702131218578    -0.359282798850    12.000000000000
         C            2.460816937799     1.403306564116    -0.339778289959    12.000000000000
         C            3.684426091464     0.687212956203    -0.340607076236    12.000000000000
         C            4.918704738807     1.391749089180    -0.353008897871    12.000000000000
         C            7.369797915229     2.779496731175    -0.346800869191    12.000000000000
         C            7.380158503390     1.391232035846    -0.345254186346    12.000000000000
         C            6.139795376391     0.674133151191    -0.338925844534    12.000000000000
         H           -8.279194962078     3.407132569115    -0.352015963698     1.007825032230
         H            8.315109308748     3.318132624614    -0.351011444991     1.007825032230
         C           -8.591760100313     0.724847081035    -0.345612445832    12.000000000000
         C           -8.599028766435    -0.632625278238    -0.343489321249    12.000000000000
         C           -6.139817301850    -0.674122109163    -0.350478662584    12.000000000000
         C           -7.380188274869    -1.391251661591    -0.343062601043    12.000000000000
         C           -4.918688642988    -1.391740490039    -0.338138164434    12.000000000000
         C           -3.684442458416    -0.687222787745    -0.349170404499    12.000000000000
         C           -2.460821202979    -1.403330650834    -0.338627318309    12.000000000000
         C           -1.231166175052    -0.702159336890    -0.350747697101    12.000000000000
         C           -0.007573788119    -1.417404321420    -0.343291172798    12.000000000000
         C            1.223643553157    -0.715260849273    -0.333285550849    12.000000000000
         C            2.445666486600    -1.429628761016    -0.345035563609    12.000000000000
         C            3.676862540115    -0.726692903565    -0.349176148004    12.000000000000
         C            6.132244683688    -0.739964311859    -0.350704122216    12.000000000000
         C            4.903514982772    -1.444442992550    -0.336863047676    12.000000000000
         C            8.599010685959     0.632618394658    -0.345392070202    12.000000000000
         C            8.591741325369    -0.724836339203    -0.343655689940    12.000000000000
         C            7.364858601658    -1.470318137615    -0.343885866633    12.000000000000
         H           -9.528310134550     1.276861977183    -0.347082372796     1.007825032230
         H            9.541406811874     1.174587016435    -0.346444102463     1.007825032230
         C           -7.369842072500    -2.779530617943    -0.341254392621    12.000000000000
         C           -4.924603271782    -2.808422729350    -0.348986025057    12.000000000000
         C           -6.166626658399    -3.516637664835    -0.342684184898    12.000000000000
         C           -3.702514522437    -3.524667021130    -0.338661955871    12.000000000000
         C           -2.467651147846    -2.821311434813    -0.350706594228    12.000000000000
         C           -0.015137636839    -2.833127117409    -0.350425005719    12.000000000000
         C           -1.247126003958    -3.534717647572    -0.338861052310    12.000000000000
         C            1.209240906912    -3.547900150653    -0.336322022519    12.000000000000
         C            2.437331859423    -2.847627210185    -0.350461780830    12.000000000000
         C            4.894298181039    -2.861108440295    -0.349641040759    12.000000000000
         C            3.664611092309    -3.564205317541    -0.336761620818    12.000000000000
         C            6.128634852014    -3.582569529727    -0.343415778861    12.000000000000
         C            7.339668501964    -2.858398779380    -0.341900552779    12.000000000000
         H           -9.541453273991    -1.174548938674    -0.342119905076     1.007825032230
         H            9.528257705340    -1.276904545914    -0.342405882179     1.007825032230
         H           -8.315169206580    -3.318135325222    -0.337082164090     1.007825032230
         H            8.279150979760    -3.407126261903    -0.337560996796     1.007825032230
         C           -6.144998351434    -4.927632744793    -0.341358186838    12.000000000000
         C           -3.706787510729    -4.941247186127    -0.351179154926    12.000000000000
         C           -4.955594220733    -5.643479445504    -0.343212020281    12.000000000000
         C           -2.486125488958    -5.654771046419    -0.338239483881    12.000000000000
         C           -1.254062498212    -4.956107522011    -0.349415089867    12.000000000000
         C            1.201008411136    -4.969265860202    -0.348233965609    12.000000000000
         C           -0.030340837145    -5.669505775148    -0.340390765945    12.000000000000
         C            3.653745938597    -4.980729247424    -0.347475965861    12.000000000000
         C            2.425488533144    -5.681160107537    -0.338099035309    12.000000000000
         C            6.091961455079    -4.993243435396    -0.341121552187    12.000000000000
         C            4.894972281879    -5.696333892967    -0.342357748017    12.000000000000
         H           -7.089896550772    -5.466985314248    -0.336955425156     1.007825032230
         H            7.031051046468    -5.542644008342    -0.337541772424     1.007825032230
         C           -4.923549484930    -7.078806571687    -0.343766789186    12.000000000000
         C           -2.485346250970    -7.087713549939    -0.346276681622    12.000000000000
         C           -3.751690054511    -7.763932629646    -0.346082002696    12.000000000000
         C           -0.037953119720    -7.099450346479    -0.346060956474    12.000000000000
         C           -1.277960263133    -7.772889856676    -0.348045649236    12.000000000000
         C            2.409440157995    -7.114007484012    -0.345197755663    12.000000000000
         C            1.194745774421    -7.786170837572    -0.347350046545    12.000000000000
         C            4.847616889766    -7.131247582589    -0.342690941004    12.000000000000
         C            3.668467443144    -7.803773464953    -0.345039375367    12.000000000000
         H           -5.869944513148    -7.613816070051    -0.342222752320     1.007825032230
         H            5.788245462656    -7.676317661324    -0.341563821522     1.007825032230
         H           -3.753531102181    -8.851057041246    -0.347917917125     1.007825032230
         H           -1.284308568626    -8.860860864507    -0.352473033094     1.007825032230
         H            1.189217411964    -8.874146092599    -0.351442683235     1.007825032230
         H            3.658542452092    -8.890846106063    -0.346693916790     1.007825032230

  Charge       = 0
  Multiplicity = 1
  Basis Set: JUN-CC-PVDZ
    Blend: JUN-CC-PVDZ
  Basis Set: (JUN-CC-PVDZ AUX)
    Blend: JUN-CC-PVDZ-JKFIT

    Orbital Energies [Eh]
    ---------------------

    Doubly Occupied:

       1A    -11.264019     2A    -11.263695     3A    -11.263694
       4A    -11.263338     5A    -11.263336     6A    -11.263300
       7A    -11.263146     8A    -11.263124     9A    -11.263121
      10A    -11.262946    11A    -11.262794    12A    -11.262790
      13A    -11.262312    14A    -11.262309    15A    -11.262246
      16A    -11.262244    17A    -11.262182    18A    -11.262157
      19A    -11.262113    20A    -11.262075    21A    -11.262073
      22A    -11.261928    23A    -11.261924    24A    -11.261802
      25A    -11.261789    26A    -11.261774    27A    -11.261769
      28A    -11.261724    29A    -11.261716    30A    -11.261636
      31A    -11.261611    32A    -11.261608    33A    -11.261581
      34A    -11.261579    35A    -11.261558    36A    -11.261524
      37A    -11.261380    38A    -11.261371    39A    -11.261365
      40A    -11.261359    41A    -11.261353    42A    -11.261346
      43A    -11.261337    44A    -11.261321    45A    -11.261316
      46A    -11.261294    47A    -11.261290    48A    -11.261286
      49A    -11.261118    50A    -11.261085    51A    -11.261081
      52A    -11.261001    53A    -11.260999    54A    -11.260931
      55A    -11.259975    56A    -11.259962    57A    -11.259959
      58A    -11.259930    59A    -11.259928    60A    -11.259912
      61A    -11.259349    62A    -11.259324    63A    -11.259321
      64A    -11.259269    65A    -11.259266    66A    -11.259237
      67A    -11.258979    68A    -11.258961    69A    -11.258959
      70A    -11.258931    71A    -11.258929    72A    -11.258917
      73A    -11.254564    74A    -11.254563    75A    -11.254561
      76A    -11.254558    77A    -11.254554    78A    -11.254551
      79A    -11.253705    80A    -11.253704    81A    -11.253700
      82A    -11.253699    83A    -11.253697    84A    -11.253692
      85A    -11.253621    86A    -11.253620    87A    -11.253615
      88A    -11.253614    89A    -11.253612    90A    -11.253608
      91A    -11.253092    92A    -11.253091    93A    -11.253089
      94A    -11.253086    95A    -11.253081    96A    -11.253079
      97A     -1.254031    98A     -1.239074    99A     -1.239073
     100A     -1.220532   101A     -1.220528   102A     -1.215516
     103A     -1.201102   104A     -1.195669   105A     -1.188217
     106A     -1.188215   107A     -1.173824   108A     -1.173821
     109A     -1.155704   110A     -1.155700   111A     -1.152791
     112A     -1.144779   113A     -1.144776   114A     -1.128638
     115A     -1.114789   116A     -1.113219   117A     -1.112557
     118A     -1.112542   119A     -1.111673   120A     -1.088498
     121A     -1.088483   122A     -1.077016   123A     -1.077015
     124A     -1.067687   125A     -1.067658   126A     -1.065045
     127A     -1.046867   128A     -1.046859   129A     -1.040549
     130A     -1.038790   131A     -1.038789   132A     -1.025316
     133A     -1.021468   134A     -1.021417   135A     -1.007241
     136A     -1.006881   137A     -1.003857   138A     -1.000562
     139A     -1.000514   140A     -0.991127   141A     -0.971058
     142A     -0.971010   143A     -0.955941   144A     -0.955886
     145A     -0.905674   146A     -0.905632   147A     -0.905601
     148A     -0.905561   149A     -0.904419   150A     -0.892450
     151A     -0.892391   152A     -0.890440   153A     -0.890382
     154A     -0.889528   155A     -0.872274   156A     -0.869102
     157A     -0.851600   158A     -0.847940   159A     -0.847919
     160A     -0.845673   161A     -0.843090   162A     -0.834629
     163A     -0.834616   164A     -0.828169   165A     -0.828166
     166A     -0.784613   167A     -0.784602   168A     -0.783729
     169A     -0.783703   170A     -0.782356   171A     -0.782335
     172A     -0.782107   173A     -0.767056   174A     -0.760872
     175A     -0.750647   176A     -0.733540   177A     -0.727135
     178A     -0.727122   179A     -0.725151   180A     -0.724605
     181A     -0.724586   182A     -0.718568   183A     -0.713844
     184A     -0.713838   185A     -0.699637   186A     -0.699625
     187A     -0.686199   188A     -0.686014   189A     -0.686011
     190A     -0.682234   191A     -0.682223   192A     -0.678839
     193A     -0.653685   194A     -0.650934   195A     -0.650904
     196A     -0.649886   197A     -0.649870   198A     -0.649621
     199A     -0.641002   200A     -0.640975   201A     -0.640146
     202A     -0.639216   203A     -0.636088   204A     -0.636061
     205A     -0.629205   206A     -0.617735   207A     -0.615357
     208A     -0.615337   209A     -0.608861   210A     -0.608854
     211A     -0.599150   212A     -0.599113   213A     -0.598806
     214A     -0.598678   215A     -0.598653   216A     -0.598108
     217A     -0.595122   218A     -0.595110   219A     -0.594782
     220A     -0.594312   221A     -0.592019   222A     -0.592016
     223A     -0.587467   224A     -0.577840   225A     -0.577830
     226A     -0.575698   227A     -0.575695   228A     -0.573439
     229A     -0.569587   230A     -0.568210   231A     -0.568187
     232A     -0.566815   233A     -0.566804   234A     -0.560958
     235A     -0.558784   236A     -0.558765   237A     -0.558474
     238A     -0.554429   239A     -0.550590   240A     -0.547519
     241A     -0.544300   242A     -0.535028   243A     -0.534990
     244A     -0.533593   245A     -0.533571   246A     -0.528131
     247A     -0.528115   248A     -0.527867   249A     -0.517230
     250A     -0.517196   251A     -0.515388   252A     -0.515382
     253A     -0.509695   254A     -0.509679   255A     -0.498084
     256A     -0.496509   257A     -0.496483   258A     -0.493812
     259A     -0.493801   260A     -0.489455   261A     -0.481504
     262A     -0.477452   263A     -0.477449   264A     -0.474050
     265A     -0.469506   266A     -0.466586   267A     -0.466581
     268A     -0.458833   269A     -0.446763   270A     -0.446702
     271A     -0.441060   272A     -0.440794   273A     -0.440770
     274A     -0.434720   275A     -0.433939   276A     -0.407406
     277A     -0.407382   278A     -0.386441   279A     -0.386393
     280A     -0.385762   281A     -0.385761   282A     -0.383785
     283A     -0.354355   284A     -0.354339   285A     -0.350693
     286A     -0.338122   287A     -0.335622   288A     -0.335552
     289A     -0.332744   290A     -0.332738   291A     -0.307110
     292A     -0.301975   293A     -0.301912   294A     -0.300875
     295A     -0.286204   296A     -0.256495   297A     -0.253531
     298A     -0.253478   299A     -0.204293   300A     -0.204204

  @DF-RHF Final Energy: -3650.33869501583968

   => Energetics <=

    Nuclear Repulsion Energy =          15611.4211649754324753
    One-Electron Energy =              -36072.1130027528051869
    Two-Electron Energy =               16810.3531427615344001
    Total Energy =                      -3650.3386950158383115
 Dipole X            :         -0.0007607            0.0002304           -0.0005303
 Dipole Y            :          0.0011500           -0.0013052           -0.0001552
 Dipole Z            :        390.4600198         -390.4677724           -0.0077526
 Magnitude           :                                                    0.0077723

    SAPT Results
  --------------------------------------------------------------------------------------------------------
    Electrostatics                 11.20043442 [mEh]       7.02837871 [kcal/mol]      29.40673653 [kJ/mol]
      Elst10,r                     11.20043442 [mEh]       7.02837871 [kcal/mol]      29.40673653 [kJ/mol]

    Exchange                        0.04835639 [mEh]       0.03034409 [kcal/mol]       0.12695967 [kJ/mol]
      Exch10                        0.04835639 [mEh]       0.03034409 [kcal/mol]       0.12695967 [kJ/mol]
      Exch10(S^2)                   0.04835783 [mEh]       0.03034500 [kcal/mol]       0.12696347 [kJ/mol]

    Induction                      -8.16259957 [mEh]      -5.12210856 [kcal/mol]     -21.43090223 [kJ/mol]
      Ind20,r                      -8.22871023 [mEh]      -5.16359362 [kcal/mol]     -21.60447572 [kJ/mol]
      Exch-Ind20,r                  0.01309061 [mEh]       0.00821448 [kcal/mol]       0.03436940 [kJ/mol]
      delta HF,r (2)                0.05302004 [mEh]       0.03327058 [kcal/mol]       0.13920409 [kJ/mol]

    Dispersion                     -2.25018734 [mEh]      -1.41201387 [kcal/mol]      -5.90786604 [kJ/mol]
      Disp20                       -2.26984895 [mEh]      -1.42435172 [kcal/mol]      -5.95948761 [kJ/mol]
      Exch-Disp20                   0.01966162 [mEh]       0.01233785 [kcal/mol]       0.05162157 [kJ/mol]
      Disp20 (SS)                  -1.13492448 [mEh]      -0.71217586 [kcal/mol]      -2.97974380 [kJ/mol]
      Disp20 (OS)                  -1.13492448 [mEh]      -0.71217586 [kcal/mol]      -2.97974380 [kJ/mol]
      Exch-Disp20 (SS)              0.01418986 [mEh]       0.00890427 [kcal/mol]       0.03725547 [kJ/mol]
      Exch-Disp20 (OS)              0.00547176 [mEh]       0.00343358 [kcal/mol]       0.01436610 [kJ/mol]

  Total HF                          3.08619123 [mEh]       1.93661424 [kcal/mol]       8.10279397 [kJ/mol]
  Total SAPT0                       0.83600390 [mEh]       0.52460037 [kcal/mol]       2.19492793 [kJ/mol]

  Special recipe for scaled SAPT0 (see Manual):
    Electrostatics sSAPT0          11.20043442 [mEh]       7.02837871 [kcal/mol]      29.40673653 [kJ/mol]
    Exchange sSAPT0                 0.04835639 [mEh]       0.03034409 [kcal/mol]       0.12695967 [kJ/mol]
    Induction sSAPT0               -8.16260075 [mEh]      -5.12210930 [kcal/mol]     -21.43090531 [kJ/mol]
    Dispersion sSAPT0              -2.25018910 [mEh]      -1.41201498 [kcal/mol]      -5.90787067 [kJ/mol]
  Total sSAPT0                      0.83600096 [mEh]       0.52459852 [kcal/mol]       2.19492022 [kJ/mol]
  --------------------------------------------------------------------------------------------------------

*** Psi4 exiting successfully. Buy a developer a beer!
