                               Psi4 1.9 release

  ==> Input File <==

--------------------------------------------------------------------------
memory 64 GB # how much memory is available ! Depends on the nodes/cores !

molecule dimer {
# monomer A
+1 1    # Charge and multiplicity
C  0.680067 -0.008042 -8.615929
C -0.680504 -0.006014 -8.615545
N -1.085635 -0.005016 -7.297221
C  0.000108 -0.001740 -6.515820
C -2.477365  0.044390 -6.829242
N  1.085222 -0.005016 -7.297221
H  1.385146 -0.015870 -9.433368
H -1.385302 -0.006204 -9.433214
H -0.000009  0.000007 -5.434731
C  2.478117 -0.021908 -6.832123
H  2.490592  0.005437 -5.741870
H  2.967028 -0.935354 -7.179299
H  3.001428  0.853575 -7.223595
H -2.857359  1.066461 -6.909201
H -3.082679 -0.625694 -7.442306
H -2.518128 -0.282594 -5.789294
--
# monomer B
0 1     # Charge and multiplicity
C   -3.66844126402057      7.80375217008252      0.00190004133558
C   -4.84759871934653      7.13124183134024     -0.00046653359696
C   -4.89495929917518      5.69633040353158     -0.00103944469517
C   -3.65374067877320      4.98073034095895      0.00662099703436
C   -2.40942512149445      7.11398103667468      0.00209438359570
C   -2.42547734410473      5.68112195090346     -0.00491050527438
C   -1.19474401643570      7.78614419430947      0.00356656413763
C   0.03795902893699      7.09942164575698      0.00139585983271
C   0.03033258741920      5.66948955970466     -0.00408752508301
C   -1.20098450790502      4.96927034791531      0.00488220885047
C   1.27795782581485      7.77285944319479      0.00277170839332
C   2.48535808472416      7.08769688523756      0.00049722048857
C   2.48612868491717      5.65477081024076     -0.00644052849921
C   1.25408291964399      4.95607811366431      0.00518741308898
C   3.75171459140595      7.76391215098033      0.00062407186893
C   4.92356605618520      7.07878077698995     -0.00143240883900
C   4.95560727132542      5.64344746336949     -0.00159282164606
C   3.70680153420475      4.94121020833308      0.00349873852374
H   -3.65852113775815      8.89082741913536      0.00358502958574
H   -1.18921332975660      8.87412108735996      0.00753844057883
H   1.28429423888630      8.86083343548850      0.00693053253426
H   3.75354208679975      8.85103527897216      0.00214659618464
H   5.86995870320703      7.61379483465560     -0.00235777588134
H   -5.78823170750226      7.67630221293400     -0.00202638095293
C   -6.09197395869619      4.99326001364347     -0.00291168518608
C   -6.12866148031747      3.58258016879823     -0.00171050815740
C   -3.66457974004527      3.56418217974434     -0.00463560277484
C   -4.89429820469869      2.86108077590057      0.00453338221034
C   -2.43733499489796      2.84761165708481      0.00719617576166
C   -1.20922785759670      3.54788693497833     -0.00648285103018
C   1.24714157216223      3.53468075142962     -0.00729145743546
C   0.01517603956900      2.83311183930540      0.00439272578912
C   2.46764517244071      2.82128997725533      0.00449278391269
C   3.70254947457969      3.52466015442405     -0.00899517692985
C   6.14498038638375      4.92757236613191     -0.00282626685777
C   6.16658835886151      3.51658447594213     -0.00065971342101
C   4.92460995845939      2.80840792535402      0.00587903281610
H   7.08990550964105      5.46688776622306     -0.00658814770723
H   -7.03104175110130      5.54268795285765     -0.00714490013730
C   -7.33969804112295      2.85841153457957     -0.00333767559888
C   -7.36488195805880      1.47032337158330     -0.00157213747140
C   -4.90350460894690      1.44442681216000     -0.00628840166334
C   -6.13225715261081      0.73993935705394      0.00600164231964
C   -3.67687480051673      0.72669714267312      0.00433931473643
C   -2.44565658606518      1.42964113326212     -0.00597039546461
C   -1.22360068130162      0.71532450163492      0.00545886906656
C   0.00763786931376      1.41738314923765      0.00392452278437
C   1.23121980774686      0.70211669058719     -0.01490206287210
C   2.46082110053113      1.40329203612573      0.00460244601878
C   3.68443025419614      0.68719842821222      0.00377365974158
C   4.91870890153864      1.39173456118907     -0.00862816189375
C   7.36980207796101      2.77948220318441     -0.00242013321349
C   7.38016266612146      1.39121750785509     -0.00087345036788
C   6.13979953912259      0.67411862320065      0.00545489144369
H   -8.27919079934664      3.40711804112415     -0.00763522772059
H   8.31511347147953      3.31811809662368     -0.00663070901292
C   -8.59175593758115      0.72483255304480     -0.00123170985383
C   -8.59902460370342     -0.63263980622873      0.00089141472904
C   -6.13981313911873     -0.67413663715361     -0.00609792660607
C   -7.38018411213749     -1.39126618958160      0.00131813493501
C   -4.91868448025621     -1.39175501803000      0.00624257154343
C   -3.68443829568458     -0.68723731573599     -0.00478966852105
C   -2.46081704024768     -1.40334517882457      0.00575341766833
C   -1.23116201232071     -0.70217386488055     -0.00636696112346
C   -0.00756962538737     -1.41741884941102      0.00108956317991
C   1.22364771588843     -0.71527537726392      0.01109518512883
C   2.44567064933149     -1.42964328900682     -0.00065482763106
C   3.67686670284649     -0.72670743155550     -0.00479541202602
C   6.13224884641929     -0.73997883984993     -0.00632338623858
C   4.90351914550401     -1.44445752054090      0.00751768830159
C   8.59901484869081      0.63260386666793     -0.00101133422380
C   8.59174548810050     -0.72485086719319      0.00072504603735
C   7.36486276438985     -1.47033266560598      0.00049486934466
H   -9.52830597181814      1.27684744919284     -0.00270163681798
H   9.54141097460619      1.17457248844457     -0.00206336648518
C   -7.36983790976868     -2.77954514593389      0.00312634335708
C   -4.92459910905015     -2.80843725734101     -0.00460528907921
C   -6.16662249566744     -3.51665219282533      0.00169655107992
C   -3.70251035970491     -3.52468154912026      0.00571878010666
C   -2.46764698511392     -2.82132596280400     -0.00632585824990
C   -0.01513347410770     -2.83314164539971     -0.00604426974092
C   -1.24712184122656     -3.53473217556300      0.00551968366725
C   1.20924506964357     -3.54791467864352      0.00805871345849
C   2.43733602215464     -2.84764173817541     -0.00608104485234
C   4.89430234377080     -2.86112296828604     -0.00526030478103
C   3.66461525504104     -3.56421984553201      0.00761911515957
C   6.12863901474565     -3.58258405771778      0.00096495711699
C   7.33967266469532     -2.85841330737039      0.00248018319869
H   -9.54144911125902     -1.17456346666430      0.00226083090216
H   9.52826186807155     -1.27691907390448      0.00197485379837
H   -8.31516504384864     -3.31814985321231      0.00729857188773
H   8.27915514249207     -3.40714078989363      0.00681973918158
C   -6.14499418870218     -4.92764727278338      0.00302254913999
C   -3.70678334799751     -4.94126171411716     -0.00679841894792
C   -4.95559005800169     -5.64349397349412      0.00116871569699
C   -2.48612132622665     -5.65478557440947      0.00614125209662
C   -1.25405833548005     -4.95612205000132     -0.00503435388927
C   1.20101257386816     -4.96928038819302     -0.00385322963129
C   -0.03033667441341     -5.66952030313900      0.00398997003238
C   3.65375010132847     -4.98074377541453     -0.00309522988330
C   2.42549269587528     -5.68117463552727      0.00628170066869
C   6.09196561781097     -4.99325796338655      0.00325918379042
C   4.89497644461045     -5.69634842095790      0.00202298796027
H   -7.08989238804069     -5.46699984223871      0.00742531082125
H   7.03105520920009     -5.54265853633254      0.00683896355417
C   -4.92354532219813     -7.07882109967734      0.00061394679214
C   -2.48534208823777     -7.08772807792913     -0.00189594564379
C   -3.75168589177895     -7.76394715763627     -0.00170126671874
C   -0.03794895698805     -7.09946487446944     -0.00168022049625
C   -1.27795610040136     -7.77290438466689     -0.00366491325785
C   2.40944432072629     -7.11402201200282     -0.00081701968533
C   1.19474993715296     -7.78618536556242     -0.00296931056689
C   4.84762105249800     -7.13126211057943      0.00168979497423
C   3.66847160587561     -7.80378799294376     -0.00065863938960
H   -5.86994035041618     -7.61383059804164      0.00215798365757
H   5.78824962538815     -7.67633218931421      0.00281691445618
H   -3.75352693944918     -8.85107156923607     -0.00353718114765
H   -1.28430440589466     -8.86087539249706     -0.00809229711623
H   1.18922157469537     -8.87416062058945     -0.00706194725726
H   3.65854661482387     -8.89086063405326     -0.00231318081200

    units angstrom      # Angstroms are the default
    no_reorient         # Geometry fixed, default
    symmetry c1         # C1 symmetry, default
}

set {
    scf_type DF         # Density fitting, faster than exact integrals
    freeze_core True    # Freeze core electrons
    basis jun-cc-pVDZ   # Jun-cc-pVDZ basis set, recommended for sSAPT0 in https://doi.org/10.1063/1.4867135
}

energy('ssapt0')        # Compute sSAPT0 energy, includes also SAPT0
--------------------------------------------------------------------------

  //              Dimer HF             //
    Molecular point group: c1
  Charge       = 1
  Multiplicity = 1
  Basis Set: JUN-CC-PVDZ
    Blend: JUN-CC-PVDZ
  Basis Set: (JUN-CC-PVDZ AUX)
    Blend: JUN-CC-PVDZ-JKFIT
  @DF-RHF Final Energy: -3953.64631474790622
    Total Energy =                      -3953.6463147479043982
 Dipole X            :         -0.0021446            0.0004804           -0.0016642
 Dipole Y            :         -0.0493638            0.0561130            0.0067492
 Dipole Z            :         31.6382739          -43.0554821          -11.4172082
 Magnitude           :                                                   11.4172103
  //            Monomer A HF           //
    Molecular point group: c1
  Multiplicity = 1
  Basis Set: JUN-CC-PVDZ
    Blend: JUN-CC-PVDZ
  Basis Set: (JUN-CC-PVDZ AUX)
    Blend: JUN-CC-PVDZ-JKFIT
  @DF-RHF Final Energy:  -303.29723598945225
    Total Energy =                       -303.2972359894522469
  //            Monomer B HF           //
    Molecular point group: c1

    Geometry (in Angstrom), charge = 0, multiplicity = 1:

       Center              X                  Y                   Z               Mass
    ------------   -----------------  -----------------  -----------------  -----------------
      Gh(C)           0.680062820275    -0.008027535675    -8.051741938463    12.000000000000
      Gh(C)          -0.680508179725    -0.005999535675    -8.051357938463    12.000000000000
      Gh(N)          -1.085639179725    -0.005001535675    -6.733033938463    14.003074004430
      Gh(C)           0.000103820275    -0.001725535675    -5.951632938463    12.000000000000
      Gh(C)          -2.477369179725     0.044404464325    -6.265054938463    12.000000000000
      Gh(N)           1.085217820275    -0.005001535675    -6.733033938463    14.003074004430
      Gh(H)           1.385141820275    -0.015855535675    -8.869180938463     1.007825032230
      Gh(H)          -1.385306179725    -0.006189535675    -8.869026938463     1.007825032230
      Gh(H)          -0.000013179725     0.000021464325    -4.870543938463     1.007825032230
      Gh(C)           2.478112820275    -0.021893535675    -6.267935938463    12.000000000000
      Gh(H)           2.490587820275     0.005451464325    -5.177682938463     1.007825032230
      Gh(H)           2.967023820275    -0.935339535675    -6.615111938463     1.007825032230
      Gh(H)           3.001423820275     0.853589464325    -6.659407938463     1.007825032230
      Gh(H)          -2.857363179725     1.066475464325    -6.345013938463     1.007825032230
      Gh(H)          -3.082683179725    -0.625679535675    -6.878118938463     1.007825032230
      Gh(H)          -2.518132179725    -0.282579535675    -5.225106938463     1.007825032230
         C           -3.668445443746     7.803766634408     0.566087102872    12.000000000000
         C           -4.847602899072     7.131256295665     0.563720527940    12.000000000000
         C           -4.894963478901     5.696344867857     0.563147616842    12.000000000000
         C           -3.653744858499     4.980744805284     0.570808058571    12.000000000000
         C           -2.409429301220     7.113995501000     0.566281445133    12.000000000000
         C           -2.425481523830     5.681136415228     0.559276556262    12.000000000000
         C           -1.194748196161     7.786158658634     0.567753625674    12.000000000000
         C            0.037954849212     7.099436110082     0.565582921370    12.000000000000
         C            0.030328407694     5.669504024030     0.560099536454    12.000000000000
         C           -1.200988687630     4.969284812240     0.569069270387    12.000000000000
         C            1.277953646089     7.772873907520     0.566958769930    12.000000000000
         C            2.485353904999     7.087711349563     0.564684282025    12.000000000000
         C            2.486124505192     5.654785274566     0.557746533038    12.000000000000
         C            1.254078739919     4.956092577989     0.569374474626    12.000000000000
         C            3.751710411681     7.763926615305     0.564811133406    12.000000000000
         C            4.923561876460     7.078795241315     0.562754652698    12.000000000000
         C            4.955603091600     5.643461927694     0.562594239891    12.000000000000
         C            3.706797354479     4.941224672658     0.567685800061    12.000000000000
         H           -3.658525317484     8.890841883460     0.567772091123     1.007825032230
         H           -1.189217509482     8.874135551685     0.571725502116     1.007825032230
         H            1.284290059161     8.860847899813     0.571117594071     1.007825032230
         H            3.753537907074     8.851049743297     0.566333657721     1.007825032230
         H            5.869954523482     7.613809298981     0.561829285655     1.007825032230
         H           -5.788235887228     7.676316677259     0.562160680584     1.007825032230
         C           -6.091978138422     4.993274477968     0.561275376351    12.000000000000
         C           -6.128665660043     3.582594633123     0.562476553379    12.000000000000
         C           -3.664583919771     3.564196644069     0.559551458762    12.000000000000
         C           -4.894302384424     2.861095240226     0.568720443747    12.000000000000
         C           -2.437339174623     2.847626121410     0.571383237298    12.000000000000
         C           -1.209232037322     3.547901399303     0.557704210507    12.000000000000
         C            1.247137392437     3.534695215755     0.556895604101    12.000000000000
         C            0.015171859844     2.833126303630     0.568579787326    12.000000000000
         C            2.467640992715     2.821304441580     0.568679845449    12.000000000000
         C            3.702545294854     3.524674618749     0.555191884607    12.000000000000
         C            6.144976206658     4.927586830457     0.561360794679    12.000000000000
         C            6.166584179136     3.516598940267     0.563527348116    12.000000000000
         C            4.924605778734     2.808422389679     0.570066094353    12.000000000000
         H            7.089901329916     5.466902230548     0.557598913830     1.007825032230
         H           -7.031045930827     5.542702417183     0.557042161400     1.007825032230
         C           -7.339702220848     2.858425998905     0.560849385938    12.000000000000
         C           -7.364886137784     1.470337835908     0.562614924065    12.000000000000
         C           -4.903508788672     1.444441276485     0.557898659873    12.000000000000
         C           -6.132261332336     0.739953821379     0.570188703856    12.000000000000
         C           -3.676878980242     0.726711606998     0.568526376273    12.000000000000
         C           -2.445660765791     1.429655597587     0.558216666072    12.000000000000
         C           -1.223604861027     0.715338965960     0.569645930603    12.000000000000
         C            0.007633689588     1.417397613563     0.568111584321    12.000000000000
         C            1.231215628021     0.702131154912     0.549284998665    12.000000000000
         C            2.460816920806     1.403306500451     0.568789507556    12.000000000000
         C            3.684426074471     0.687212892537     0.567960721278    12.000000000000
         C            4.918704721813     1.391749025514     0.555558899643    12.000000000000
         C            7.369797898236     2.779496667509     0.561766928323    12.000000000000
         C            7.380158486396     1.391231972180     0.563313611169    12.000000000000
         C            6.139795359397     0.674133087526     0.569641952980    12.000000000000
         H           -8.279194979072     3.407132505449     0.556551833816     1.007825032230
         H            8.315109291754     3.318132560949     0.557556352524     1.007825032230
         C           -8.591760117307     0.724847017370     0.562955351683    12.000000000000
         C           -8.599028783429    -0.632625341904     0.565078476266    12.000000000000
         C           -6.139817318844    -0.674122172829     0.558089134931    12.000000000000
         C           -7.380188291863    -1.391251725257     0.565505196472    12.000000000000
         C           -4.918688659982    -1.391740553705     0.570429633080    12.000000000000
         C           -3.684442475410    -0.687222851411     0.559397393016    12.000000000000
         C           -2.460821219973    -1.403330714500     0.569940479205    12.000000000000
         C           -1.231166192046    -0.702159400556     0.557820100413    12.000000000000
         C           -0.007573805113    -1.417404385086     0.565276624717    12.000000000000
         C            1.223643536163    -0.715260912939     0.575282246666    12.000000000000
         C            2.445666469606    -1.429628824682     0.563532233906    12.000000000000
         C            3.676862523121    -0.726692967231     0.559391649511    12.000000000000
         C            6.132244666694    -0.739964375525     0.557863675298    12.000000000000
         C            4.903514965779    -1.444443056216     0.571704749838    12.000000000000
         C            8.599010668965     0.632618330993     0.563175727313    12.000000000000
         C            8.591741308375    -0.724836402868     0.564912107574    12.000000000000
         C            7.364858584664    -1.470318201281     0.564681930881    12.000000000000
         H           -9.528310151544     1.276861913518     0.561485424719     1.007825032230
         H            9.541406794881     1.174586952770     0.562123695052     1.007825032230
         C           -7.369842089494    -2.779530681609     0.567313404894    12.000000000000
         C           -4.924603288776    -2.808422793016     0.559581772458    12.000000000000
         C           -6.166626675393    -3.516637728500     0.565883612617    12.000000000000
         C           -3.702514539430    -3.524667084795     0.569905841643    12.000000000000
         C           -2.467651164839    -2.821311498479     0.557861203287    12.000000000000
         C           -0.015137653833    -2.833127181075     0.558142791796    12.000000000000
         C           -1.247126020952    -3.534717711238     0.569706745204    12.000000000000
         C            1.209240889918    -3.547900214319     0.572245774995    12.000000000000
         C            2.437331842429    -2.847627273850     0.558106016684    12.000000000000
         C            4.894298164045    -2.861108503961     0.558926756756    12.000000000000
         C            3.664611075316    -3.564205381207     0.571806176696    12.000000000000
         C            6.128634835020    -3.582569593393     0.565152018654    12.000000000000
         C            7.339668484970    -2.858398843045     0.566667244735    12.000000000000
         H           -9.541453290984    -1.174549002339     0.566447892439     1.007825032230
         H            9.528257688346    -1.276904609579     0.566161915335     1.007825032230
         H           -8.315169223574    -3.318135388887     0.571485633425     1.007825032230
         H            8.279150962767    -3.407126325569     0.571006800718     1.007825032230
         C           -6.144998368428    -4.927632808458     0.567209610677    12.000000000000
         C           -3.706787527723    -4.941247249792     0.557388642589    12.000000000000
         C           -4.955594237727    -5.643479509169     0.565355777234    12.000000000000
         C           -2.486125505952    -5.654771110084     0.570328313633    12.000000000000
         C           -1.254062515205    -4.956107585676     0.559152707648    12.000000000000
         C            1.201008394143    -4.969265923868     0.560333831906    12.000000000000
         C           -0.030340854139    -5.669505838814     0.568177031569    12.000000000000
         C            3.653745921603    -4.980729311090     0.561091831654    12.000000000000
         C            2.425488516150    -5.681160171202     0.570468762205    12.000000000000
         C            6.091961438086    -4.993243499062     0.567446245327    12.000000000000
         C            4.894972264885    -5.696333956633     0.566210049497    12.000000000000
         H           -7.089896567766    -5.466985377914     0.571612372358     1.007825032230
         H            7.031051029475    -5.542644072008     0.571026025091     1.007825032230
         C           -4.923549501924    -7.078806635352     0.564801008329    12.000000000000
         C           -2.485346267963    -7.087713613604     0.562291115893    12.000000000000
         C           -3.751690071504    -7.763932693311     0.562485794818    12.000000000000
         C           -0.037953136713    -7.099450410144     0.562506841041    12.000000000000
         C           -1.277960280127    -7.772889920342     0.560522148279    12.000000000000
         C            2.409440141001    -7.114007547678     0.563370041851    12.000000000000
         C            1.194745757428    -7.786170901237     0.561217750970    12.000000000000
         C            4.847616872773    -7.131247646254     0.565876856511    12.000000000000
         C            3.668467426150    -7.803773528619     0.563528422147    12.000000000000
         H           -5.869944530142    -7.613816133717     0.566345045194     1.007825032230
         H            5.788245445663    -7.676317724989     0.567003975993     1.007825032230
         H           -3.753531119175    -8.851057104911     0.560649880389     1.007825032230
         H           -1.284308585620    -8.860860928172     0.556094764421     1.007825032230
         H            1.189217394970    -8.874146156264     0.557125114280     1.007825032230
         H            3.658542435098    -8.890846169728     0.561873880725     1.007825032230

  Charge       = 0
  Multiplicity = 1
  Basis Set: JUN-CC-PVDZ
    Blend: JUN-CC-PVDZ
  Basis Set: (JUN-CC-PVDZ AUX)
    Blend: JUN-CC-PVDZ-JKFIT

    Orbital Energies [Eh]
    ---------------------

    Doubly Occupied:

       1A    -11.264044     2A    -11.263730     3A    -11.263727
       4A    -11.263386     5A    -11.263383     6A    -11.263348
       7A    -11.263191     8A    -11.263165     9A    -11.263163
      10A    -11.263005    11A    -11.262846    12A    -11.262840
      13A    -11.262363    14A    -11.262359    15A    -11.262287
      16A    -11.262286    17A    -11.262235    18A    -11.262200
      19A    -11.262155    20A    -11.262118    21A    -11.262115
      22A    -11.261962    23A    -11.261958    24A    -11.261839
      25A    -11.261826    26A    -11.261811    27A    -11.261807
      28A    -11.261760    29A    -11.261752    30A    -11.261679
      31A    -11.261653    32A    -11.261648    33A    -11.261623
      34A    -11.261621    35A    -11.261600    36A    -11.261553
      37A    -11.261415    38A    -11.261404    39A    -11.261398
      40A    -11.261391    41A    -11.261386    42A    -11.261377
      43A    -11.261373    44A    -11.261358    45A    -11.261353
      46A    -11.261331    47A    -11.261326    48A    -11.261323
      49A    -11.261167    50A    -11.261136    51A    -11.261133
      52A    -11.261052    53A    -11.261051    54A    -11.260980
      55A    -11.260015    56A    -11.260002    57A    -11.259999
      58A    -11.259971    59A    -11.259968    60A    -11.259952
      61A    -11.259392    62A    -11.259368    63A    -11.259364
      64A    -11.259313    65A    -11.259309    66A    -11.259281
      67A    -11.259019    68A    -11.259002    69A    -11.259000
      70A    -11.258972    71A    -11.258970    72A    -11.258958
      73A    -11.254591    74A    -11.254589    75A    -11.254587
      76A    -11.254585    77A    -11.254580    78A    -11.254576
      79A    -11.253740    80A    -11.253739    81A    -11.253736
      82A    -11.253735    83A    -11.253732    84A    -11.253726
      85A    -11.253656    86A    -11.253654    87A    -11.253652
      88A    -11.253650    89A    -11.253648    90A    -11.253641
      91A    -11.253118    92A    -11.253117    93A    -11.253115
      94A    -11.253113    95A    -11.253107    96A    -11.253105
      97A     -1.254129    98A     -1.239140    99A     -1.239138
     100A     -1.220584   101A     -1.220579   102A     -1.215605
     103A     -1.201146   104A     -1.195715   105A     -1.188297
     106A     -1.188294   107A     -1.173865   108A     -1.173863
     109A     -1.155771   110A     -1.155768   111A     -1.152874
     112A     -1.144819   113A     -1.144816   114A     -1.128696
     115A     -1.114853   116A     -1.113260   117A     -1.112635
     118A     -1.112621   119A     -1.111709   120A     -1.088556
     121A     -1.088542   122A     -1.077056   123A     -1.077055
     124A     -1.067750   125A     -1.067720   126A     -1.065120
     127A     -1.046917   128A     -1.046909   129A     -1.040605
     130A     -1.038829   131A     -1.038828   132A     -1.025386
     133A     -1.021556   134A     -1.021504   135A     -1.007288
     136A     -1.006932   137A     -1.003907   138A     -1.000630
     139A     -1.000581   140A     -0.991165   141A     -0.971119
     142A     -0.971070   143A     -0.955988   144A     -0.955933
     145A     -0.905756   146A     -0.905715   147A     -0.905637
     148A     -0.905596   149A     -0.904512   150A     -0.892527
     151A     -0.892468   152A     -0.890512   153A     -0.890455
     154A     -0.889589   155A     -0.872318   156A     -0.869133
     157A     -0.851647   158A     -0.848008   159A     -0.847987
     160A     -0.845744   161A     -0.843150   162A     -0.834681
     163A     -0.834668   164A     -0.828211   165A     -0.828206
     166A     -0.784670   167A     -0.784659   168A     -0.783795
     169A     -0.783770   170A     -0.782416   171A     -0.782395
     172A     -0.782178   173A     -0.767106   174A     -0.760949
     175A     -0.750725   176A     -0.733584   177A     -0.727189
     178A     -0.727173   179A     -0.725211   180A     -0.724655
     181A     -0.724636   182A     -0.718652   183A     -0.713916
     184A     -0.713910   185A     -0.699691   186A     -0.699677
     187A     -0.686285   188A     -0.686058   189A     -0.686054
     190A     -0.682279   191A     -0.682270   192A     -0.678911
     193A     -0.653742   194A     -0.650991   195A     -0.650960
     196A     -0.649961   197A     -0.649947   198A     -0.649665
     199A     -0.641082   200A     -0.641053   201A     -0.640190
     202A     -0.639255   203A     -0.636156   204A     -0.636129
     205A     -0.629259   206A     -0.617683   207A     -0.615400
     208A     -0.615379   209A     -0.608910   210A     -0.608904
     211A     -0.599177   212A     -0.599146   213A     -0.598866
     214A     -0.598739   215A     -0.598716   216A     -0.598190
     217A     -0.595166   218A     -0.595154   219A     -0.594837
     220A     -0.594394   221A     -0.592083   222A     -0.592080
     223A     -0.587550   224A     -0.577874   225A     -0.577864
     226A     -0.575729   227A     -0.575727   228A     -0.573486
     229A     -0.569582   230A     -0.568289   231A     -0.568264
     232A     -0.566872   233A     -0.566863   234A     -0.560994
     235A     -0.558851   236A     -0.558830   237A     -0.558510
     238A     -0.554484   239A     -0.550626   240A     -0.547553
     241A     -0.544334   242A     -0.535031   243A     -0.535006
     244A     -0.533647   245A     -0.533625   246A     -0.528176
     247A     -0.528160   248A     -0.527948   249A     -0.517308
     250A     -0.517274   251A     -0.515420   252A     -0.515415
     253A     -0.509738   254A     -0.509723   255A     -0.498133
     256A     -0.496564   257A     -0.496536   258A     -0.493838
     259A     -0.493826   260A     -0.489475   261A     -0.481547
     262A     -0.477483   263A     -0.477480   264A     -0.474098
     265A     -0.469566   266A     -0.466643   267A     -0.466639
     268A     -0.458871   269A     -0.446849   270A     -0.446789
     271A     -0.441094   272A     -0.440822   273A     -0.440795
     274A     -0.434751   275A     -0.433968   276A     -0.407442
     277A     -0.407419   278A     -0.386479   279A     -0.386430
     280A     -0.385792   281A     -0.385792   282A     -0.383823
     283A     -0.354394   284A     -0.354377   285A     -0.350732
     286A     -0.338160   287A     -0.335660   288A     -0.335593
     289A     -0.332775   290A     -0.332769   291A     -0.307158
     292A     -0.302019   293A     -0.301958   294A     -0.300907
     295A     -0.286237   296A     -0.256523   297A     -0.253570
     298A     -0.253519   299A     -0.204330   300A     -0.204241

  @DF-RHF Final Energy: -3650.33781701145244

   => Energetics <=

    Nuclear Repulsion Energy =          15611.4211649754306563
    One-Electron Energy =              -36072.0824993017522502
    Two-Electron Energy =               16810.3235173148714239
    Total Energy =                      -3650.3378170114519889
 Dipole X            :         -0.0009258            0.0002112           -0.0007146
 Dipole Y            :          0.0011349           -0.0013774           -0.0002425
 Dipole Z            :       -639.6940883          639.6988098            0.0047215
 Magnitude           :                                                    0.0047814

    SAPT Results
  --------------------------------------------------------------------------------------------------------
    Electrostatics                 -8.13762274 [mEh]      -5.10643536 [kcal/mol]     -21.36532555 [kJ/mol]
      Elst10,r                     -8.13762274 [mEh]      -5.10643536 [kcal/mol]     -21.36532555 [kJ/mol]

    Exchange                       -0.00013279 [mEh]      -0.00008333 [kcal/mol]      -0.00034864 [kJ/mol]
      Exch10                       -0.00013279 [mEh]      -0.00008333 [kcal/mol]      -0.00034864 [kJ/mol]
      Exch10(S^2)                  -0.00013279 [mEh]      -0.00008333 [kcal/mol]      -0.00034864 [kJ/mol]

    Induction                      -3.12399147 [mEh]      -1.96033425 [kcal/mol]      -8.20203848 [kJ/mol]
      Ind20,r                      -3.07017635 [mEh]      -1.92656475 [kcal/mol]      -8.06074690 [kJ/mol]
      Exch-Ind20,r                  0.00047613 [mEh]       0.00029878 [kcal/mol]       0.00125008 [kJ/mol]
      delta HF,r (2)               -0.05429125 [mEh]      -0.03406827 [kcal/mol]      -0.14254166 [kJ/mol]

    Dispersion                     -1.42730591 [mEh]      -0.89564798 [kcal/mol]      -3.74739116 [kJ/mol]
      Disp20                       -1.42745449 [mEh]      -0.89574122 [kcal/mol]      -3.74778125 [kJ/mol]
      Exch-Disp20                   0.00014858 [mEh]       0.00009323 [kcal/mol]       0.00039009 [kJ/mol]
      Disp20 (SS)                  -0.71372725 [mEh]      -0.44787061 [kcal/mol]      -1.87389063 [kJ/mol]
      Disp20 (OS)                  -0.71372725 [mEh]      -0.44787061 [kcal/mol]      -1.87389063 [kJ/mol]
      Exch-Disp20 (SS)              0.00011331 [mEh]       0.00007110 [kcal/mol]       0.00029750 [kJ/mol]
      Exch-Disp20 (OS)              0.00003527 [mEh]       0.00002213 [kcal/mol]       0.00009260 [kJ/mol]

  Total HF                        -11.26174700 [mEh]      -7.06685293 [kcal/mol]     -29.56771268 [kJ/mol]
  Total SAPT0                     -12.68905291 [mEh]      -7.96250092 [kcal/mol]     -33.31510384 [kJ/mol]

  Special recipe for scaled SAPT0 (see Manual):
    Electrostatics sSAPT0          -8.13762274 [mEh]      -5.10643536 [kcal/mol]     -21.36532555 [kJ/mol]
    Exchange sSAPT0                -0.00013279 [mEh]      -0.00008333 [kcal/mol]      -0.00034864 [kJ/mol]
    Induction sSAPT0               -3.12399147 [mEh]      -1.96033425 [kcal/mol]      -8.20203848 [kJ/mol]
    Dispersion sSAPT0              -1.42730591 [mEh]      -0.89564798 [kcal/mol]      -3.74739116 [kJ/mol]
  Total sSAPT0                    -12.68905291 [mEh]      -7.96250092 [kcal/mol]     -33.31510384 [kJ/mol]
  --------------------------------------------------------------------------------------------------------

*** Psi4 exiting successfully. Buy a developer a beer!
