                               Psi4 1.9 release

  ==> Input File <==

--------------------------------------------------------------------------
memory 32 GB # how much memory is available ! Depends on the nodes/cores !

molecule dimer {
# monomer A
+1 1    # Charge and multiplicity
C  0.680067 1.417258 -5.815929
C -0.680504 1.419286 -5.815545
N -1.085635 1.420284 -4.497221
C  0.000108 1.423560 -3.715820
C -2.477365 1.469690 -4.029242
N  1.085222 1.420284 -4.497221
H  1.385146 1.409430 -6.633368
H -1.385302 1.419096 -6.633214
H -0.000009 1.425307 -2.634731
C  2.478117 1.403392 -4.032123
H  2.490592 1.430737 -2.941870
H  2.967028 0.489946 -4.379299
H  3.001428 2.278875 -4.423595
H -2.857359 2.491761 -4.109201
H -3.082679 0.799606 -4.642306
H -2.518128 1.142706 -2.989294
--
# monomer B
0 1     # Charge and multiplicity
C   1.22531237526482      0.70753866091955      0.00613762728373
C   1.22532433589282     -0.70753852257020     -0.00619318228664
C   -0.00000567409046      1.41496628609039     -0.00672680580738
C   2.45644923379077      1.41832825917820      0.00902448468363
C   0.00001130712078     -1.41497612663474      0.00347275151708
C   -1.22530046906674      0.70754574598412      0.00838914760619
C   2.45643823516184     -1.41832293188077     -0.00843833914343
C   -0.00000085313587      2.83680140328112     -0.00913035594137
C   3.68182717731192      0.70931832800114     -0.00808954934571
C   2.45512052870677      2.83422403348893     -0.00819210630633
C   3.68182158506039     -0.70933346742900      0.00798293467272
C   -1.22531311884624     -0.70752714354401     -0.00512042085974
C   1.22670006104402      3.54346985599427      0.00816696660346
C   0.00000526469929     -2.83678176723568      0.00832091913869
C   -2.45643555300670      1.41831729028492      0.00842454345199
C   2.45512389762097     -2.83422965658853      0.00783102630520
C   -1.22671388474763      3.54346943575023      0.00827029982280
C   4.91451777504333      1.42717324448953     -0.00160886631602
C   3.69315067131765      3.54279566454522     -0.00155906667985
C   -2.45643712022637     -1.41831290883911     -0.00846337726810
C   1.22670532178455     -3.54347386990643     -0.00780316414624
C   -2.45512491866593      2.83421703463423     -0.00818572995999
C   4.91452486062398     -1.42718653794377      0.00136387641845
C   1.22142509354026      4.97013443726031      0.00150231067809
C   4.89300870916237      2.82518837202648     -0.00039219795739
C   -1.22669652864725     -3.54347062507680     -0.00753595973677
C   -3.68181849668397      0.70932533873199     -0.00807686886569
C   3.69314758099218     -3.54280096939050      0.00148176697923
C   -1.22143177215231      4.97012866986289      0.00168580605083
C   6.13477145276790      0.68054831910577     -0.00083909176631
C   3.65678936045204      4.97295361556775     -0.00065042889723
C   -2.45512642789169     -2.83421472106065      0.00758666850712
C   -3.68181869921921     -0.70932533146830      0.00810055625144
C   4.89301309775526     -2.82519973363176      0.00021895393805
C   -0.00000059327114      5.65044773803267      0.00045449734393
C   6.13477559217374     -0.68055448207492      0.00042622874941
C   2.47813196269732      5.65357712333155      0.00063835075260
C   1.22142288457925     -4.97012668293268     -0.00129718634452
C   -3.69316190412301      3.54279732619245     -0.00139355922051
C   -1.22142804110313     -4.97011793159564     -0.00140994817719
C   -4.91452132810043      1.42717581899491     -0.00153192130862
C   3.65678749952045     -4.97295485423912      0.00080007163680
C   -2.47813805026426      5.65357479452875      0.00092287576113
C   -3.69314125872231     -3.54278984697859      0.00136564082345
C   -4.91451200321153     -1.42718062802730      0.00139857359209
C   -0.00000552908399     -5.65043791501335      0.00005899322272
C   -4.89302000425900      2.82518897091939     -0.00040227981744
C   2.47812647313991     -5.65357317188818     -0.00029052915548
C   -3.65679823041642      4.97295655404175     -0.00047374852278
C   -4.89299899901461     -2.82519139505969      0.00006491824035
C   -2.47812801824129     -5.65356579800621     -0.00056571680280
C   -6.13477002348955      0.68054913825639     -0.00086464346868
C   -3.65678835334731     -4.97294365097028      0.00058578382008
C   -6.13476456307132     -0.68055354348201      0.00040575295444
H   5.83528897565761      3.36927626695423      0.00396712770529
H   7.07385965258860      1.22821762089947     -0.00037744837300
H   4.60066374401555      5.51238117445323     -0.00014522814529
H   5.83528386714679     -3.36930568472863     -0.00423551337640
H   -0.00001167146422      6.73853104613662     -0.00389474766392
H   7.07386165167227     -1.22822657074368     -0.00008250934481
H   2.47331421164041      6.74068466339473      0.00017162982210
H   4.60066897122302     -5.51237575717576      0.00039007446835
H   -2.47331820069565      6.74068209160650      0.00047297644710
H   -0.00000978838621     -6.73852780445195      0.00458867820736
H   -5.83530143450167      3.36927132229595      0.00410314985360
H   2.47330840367253     -6.74068500242887      0.00027980126949
H   -4.60067436136587      5.51237839860371      0.00002010017831
H   -5.83527902699321     -3.36928859177951     -0.00451481925734
H   -2.47329986759855     -6.74067870613986     -0.00016951527498
H   -7.07385728692578      1.22822084484047     -0.00046143985387
H   -4.60067330624313     -5.51236229778631      0.00021776644566
H   -7.07385645456741     -1.22822025997701     -0.00017736581114

    units angstrom      # Angstroms are the default
    no_reorient         # Geometry fixed, default
    symmetry c1         # C1 symmetry, default
}

set {
    scf_type DF         # Density fitting, faster than exact integrals
    freeze_core True    # Freeze core electrons
    basis jun-cc-pVDZ   # Jun-cc-pVDZ basis set, recommended for sSAPT0 in https://doi.org/10.1063/1.4867135
}

energy('ssapt0')        # Compute sSAPT0 energy, includes also SAPT0
--------------------------------------------------------------------------

  //              Dimer HF             //
    Molecular point group: c1
  Charge       = 1
  Multiplicity = 1
  Basis Set: JUN-CC-PVDZ
    Blend: JUN-CC-PVDZ
  Basis Set: (JUN-CC-PVDZ AUX)
    Blend: JUN-CC-PVDZ-JKFIT
  @DF-RHF Final Energy: -2359.21262649325536
    Total Energy =                      -2359.2126264932558115
 Dipole X            :         -0.0021631            0.0006313           -0.0015318
 Dipole Y            :         -6.0218556            7.4856329            1.4637774
 Dipole Z            :         16.4904797          -22.0915312           -5.6010515
 Magnitude           :                                                    5.7891644
  //            Monomer A HF           //
    Molecular point group: c1
  Multiplicity = 1
  Basis Set: JUN-CC-PVDZ
    Blend: JUN-CC-PVDZ
  Basis Set: (JUN-CC-PVDZ AUX)
    Blend: JUN-CC-PVDZ-JKFIT
  @DF-RHF Final Energy:  -303.29800299516450
    Total Energy =                       -303.2980029951644951
  //            Monomer B HF           //
    Molecular point group: c1

    Geometry (in Angstrom), charge = 0, multiplicity = 1:

       Center              X                  Y                   Z               Mass
    ------------   -----------------  -----------------  -----------------  -----------------
      Gh(C)           0.680066520158     1.235968212970    -5.230839494352    12.000000000000
      Gh(C)          -0.680504479842     1.237996212970    -5.230455494352    12.000000000000
      Gh(N)          -1.085635479842     1.238994212970    -3.912131494352    14.003074004430
      Gh(C)           0.000107520158     1.242270212970    -3.130730494352    12.000000000000
      Gh(C)          -2.477365479842     1.288400212970    -3.444152494352    12.000000000000
      Gh(N)           1.085221520158     1.238994212970    -3.912131494352    14.003074004430
      Gh(H)           1.385145520158     1.228140212970    -6.048278494352     1.007825032230
      Gh(H)          -1.385302479842     1.237806212970    -6.048124494352     1.007825032230
      Gh(H)          -0.000009479842     1.244017212970    -2.049641494352     1.007825032230
      Gh(C)           2.478116520158     1.222102212970    -3.447033494352    12.000000000000
      Gh(H)           2.490591520158     1.249447212970    -2.356780494352     1.007825032230
      Gh(H)           2.967027520158     0.308656212970    -3.794209494352     1.007825032230
      Gh(H)           3.001427520158     2.097585212970    -3.838505494352     1.007825032230
      Gh(H)          -2.857359479842     2.310471212970    -3.524111494352     1.007825032230
      Gh(H)          -3.082679479842     0.618316212970    -4.057216494352     1.007825032230
      Gh(H)          -2.518128479842     0.961416212970    -2.404204494352     1.007825032230
         C            1.225311895423     0.526248873889     0.591227132932    12.000000000000
         C            1.225323856051    -0.888828309601     0.578896323362    12.000000000000
         C           -0.000006153932     1.233676499060     0.578362699841    12.000000000000
         C            2.456448753949     1.237038472148     0.594113990332    12.000000000000
         C            0.000010827279    -1.596265913665     0.588562257165    12.000000000000
         C           -1.225300948908     0.526255958954     0.593478653255    12.000000000000
         C            2.456437755320    -1.599612718911     0.576651166505    12.000000000000
         C           -0.000001332978     2.655511616251     0.575959149707    12.000000000000
         C            3.681826697470     0.528028540971     0.576999956303    12.000000000000
         C            2.455120048865     2.652934246459     0.576897399342    12.000000000000
         C            3.681821105219    -0.890623254459     0.593072440321    12.000000000000
         C           -1.225313598688    -0.888816930574     0.579969084789    12.000000000000
         C            1.226699581202     3.362180068964     0.593256472252    12.000000000000
         C            0.000004784858    -3.018071554266     0.593410424787    12.000000000000
         C           -2.456436032848     1.237027503255     0.593514049100    12.000000000000
         C            2.455123417779    -3.015519443619     0.592920531954    12.000000000000
         C           -1.226714364589     3.362179648720     0.593359805471    12.000000000000
         C            4.914517295202     1.245883457459     0.583480639332    12.000000000000
         C            3.693150191476     3.361505877515     0.583530438968    12.000000000000
         C           -2.456437600068    -1.599602695869     0.576626128380    12.000000000000
         C            1.226704841943    -3.724763656937     0.577286341502    12.000000000000
         C           -2.455125398508     2.652927247604     0.576903775688    12.000000000000
         C            4.914524380782    -1.608476324974     0.586453382067    12.000000000000
         C            1.221424613699     4.788844650230     0.586591816326    12.000000000000
         C            4.893008229321     2.643898584996     0.584697307691    12.000000000000
         C           -1.226697008489    -3.724760412107     0.577553545912    12.000000000000
         C           -3.681818976526     0.528035551702     0.577012636783    12.000000000000
         C            3.693147101150    -3.724090756421     0.586571272628    12.000000000000
         C           -1.221432251994     4.788838882833     0.586775311699    12.000000000000
         C            6.134770972926     0.499258532075     0.584250413882    12.000000000000
         C            3.656788880610     4.791663828537     0.584439076751    12.000000000000
         C           -2.455126907733    -3.015504508091     0.592676174155    12.000000000000
         C           -3.681819179061    -0.890615118499     0.593190061900    12.000000000000
         C            4.893012617914    -3.006489520662     0.585308459586    12.000000000000
         C           -0.000001073113     5.469157951002     0.585544002992    12.000000000000
         C            6.134775112332    -0.861844269105     0.585515734398    12.000000000000
         C            2.478131482856     5.472287336301     0.585727856401    12.000000000000
         C            1.221422404738    -5.151416469963     0.583792319304    12.000000000000
         C           -3.693162383965     3.361507539162     0.583695946428    12.000000000000
         C           -1.221428520945    -5.151407718626     0.583679557471    12.000000000000
         C           -4.914521807942     1.245886031965     0.583557584340    12.000000000000
         C            3.656787019679    -5.154244641269     0.585889577285    12.000000000000
         C           -2.478138530106     5.472285007498     0.586012381409    12.000000000000
         C           -3.693141738564    -3.724079634009     0.586455146472    12.000000000000
         C           -4.914512483053    -1.608470415058     0.586488079240    12.000000000000
         C           -0.000006008926    -5.831727702044     0.585148498871    12.000000000000
         C           -4.893020484101     2.643899183889     0.584687225831    12.000000000000
         C            2.478125993298    -5.834862958919     0.584798976493    12.000000000000
         C           -3.656798710258     4.791666767011     0.584615757126    12.000000000000
         C           -4.892999478856    -3.006481182090     0.585154423889    12.000000000000
         C           -2.478128498083    -5.834855585037     0.584523788846    12.000000000000
         C           -6.134770503331     0.499259351226     0.584224862180    12.000000000000
         C           -3.656788833189    -5.154233438001     0.585675289468    12.000000000000
         C           -6.134765042913    -0.861843330512     0.585495258603    12.000000000000
         H            5.835288495816     3.187986479924     0.589056633354     1.007825032230
         H            7.073859172747     1.046927833869     0.584712057275     1.007825032230
         H            4.600663264174     5.331091387423     0.584944277503     1.007825032230
         H            5.835283387305    -3.550595471759     0.580853992272     1.007825032230
         H           -0.000012151306     6.557241259106     0.581194757984     1.007825032230
         H            7.073861171831    -1.409516357774     0.585006996304     1.007825032230
         H            2.473313731799     6.559394876364     0.585261135470     1.007825032230
         H            4.600668491381    -5.693665544206     0.585479580117     1.007825032230
         H           -2.473318680537     6.559392304576     0.585562482095     1.007825032230
         H           -0.000010268228    -6.919817591482     0.589678183856     1.007825032230
         H           -5.835301914343     3.187981535266     0.589192655502     1.007825032230
         H            2.473307923831    -6.921974789459     0.585369306918     1.007825032230
         H           -4.600674841208     5.331088611573     0.585109605827     1.007825032230
         H           -5.835279506835    -3.550578378810     0.580574686391     1.007825032230
         H           -2.473300347440    -6.921968493170     0.584919990373     1.007825032230
         H           -7.073857766768     1.046931057810     0.584628065794     1.007825032230
         H           -4.600673786085    -5.693652084817     0.585307272094     1.007825032230
         H           -7.073856934409    -1.409510047007     0.584912139837     1.007825032230

  Charge       = 0
  Multiplicity = 1
  Basis Set: JUN-CC-PVDZ
    Blend: JUN-CC-PVDZ
  Basis Set: (JUN-CC-PVDZ AUX)
    Blend: JUN-CC-PVDZ-JKFIT

    Orbital Energies [Eh]
    ---------------------

    Doubly Occupied:

       1A    -11.260573     2A    -11.260113     3A    -11.260111
       4A    -11.259420     5A    -11.259403     6A    -11.259215
       7A    -11.259023     8A    -11.258947     9A    -11.258899
      10A    -11.258594    11A    -11.258575    12A    -11.258499
      13A    -11.258438    14A    -11.258433    15A    -11.258428
      16A    -11.258398    17A    -11.258391    18A    -11.258378
      19A    -11.258372    20A    -11.258365    21A    -11.258348
      22A    -11.258282    23A    -11.258268    24A    -11.257986
      25A    -11.257308    26A    -11.257256    27A    -11.257229
      28A    -11.257120    29A    -11.257105    30A    -11.257021
      31A    -11.256405    32A    -11.256343    33A    -11.256323
      34A    -11.256227    35A    -11.256223    36A    -11.256158
      37A    -11.252252    38A    -11.252249    39A    -11.252214
      40A    -11.252212    41A    -11.252210    42A    -11.252204
      43A    -11.251360    44A    -11.251357    45A    -11.251348
      46A    -11.251339    47A    -11.251336    48A    -11.251314
      49A    -11.250814    50A    -11.250810    51A    -11.250775
      52A    -11.250774    53A    -11.250770    54A    -11.250765
      55A     -1.243970    56A     -1.219732    57A     -1.219713
      58A     -1.189459    59A     -1.189442    60A     -1.180848
      61A     -1.157472    62A     -1.148893    63A     -1.135408
      64A     -1.135383    65A     -1.113108    66A     -1.113104
      67A     -1.082336    68A     -1.082331    69A     -1.078507
      70A     -1.065899    71A     -1.065892    72A     -1.039306
      73A     -1.024177    74A     -1.021674    75A     -1.021614
      76A     -1.017640    77A     -1.012714    78A     -0.986931
      79A     -0.986876    80A     -0.961794    81A     -0.961741
      82A     -0.894198    83A     -0.894176    84A     -0.887827
      85A     -0.886075    86A     -0.886029    87A     -0.881293
      88A     -0.881246    89A     -0.861809    90A     -0.837326
      91A     -0.818113    92A     -0.816512    93A     -0.812030
      94A     -0.812030    95A     -0.794601    96A     -0.794588
      97A     -0.746515    98A     -0.744754    99A     -0.733314
     100A     -0.733307   101A     -0.732090   102A     -0.732067
     103A     -0.716396   104A     -0.698885   105A     -0.698857
     106A     -0.693496   107A     -0.693459   108A     -0.661140
     109A     -0.653012   110A     -0.651053   111A     -0.650164
     112A     -0.650155   113A     -0.639273   114A     -0.639253
     115A     -0.629613   116A     -0.627417   117A     -0.627408
     118A     -0.606418   119A     -0.605732   120A     -0.601552
     121A     -0.599654   122A     -0.599594   123A     -0.593524
     124A     -0.591116   125A     -0.591087   126A     -0.585196
     127A     -0.576454   128A     -0.576348   129A     -0.567238
     130A     -0.567216   131A     -0.565854   132A     -0.565840
     133A     -0.558620   134A     -0.554757   135A     -0.554752
     136A     -0.538501   137A     -0.538499   138A     -0.538205
     139A     -0.538188   140A     -0.529616   141A     -0.528137
     142A     -0.522782   143A     -0.522756   144A     -0.500412
     145A     -0.495586   146A     -0.493141   147A     -0.487818
     148A     -0.484964   149A     -0.481650   150A     -0.481649
     151A     -0.470303   152A     -0.470299   153A     -0.450904
     154A     -0.450836   155A     -0.439033   156A     -0.439022
     157A     -0.404712   158A     -0.404689   159A     -0.403319
     160A     -0.375380   161A     -0.375375   162A     -0.349077
     163A     -0.337568   164A     -0.336505   165A     -0.336450
     166A     -0.311053   167A     -0.298051   168A     -0.284303
     169A     -0.284247   170A     -0.224862   171A     -0.224803

  @DF-RHF Final Energy: -2055.89460517410498

   => Energetics <=

    Nuclear Repulsion Energy =           6452.5568002797781446
    One-Electron Energy =              -15636.5080107705161936
    Two-Electron Energy =                7128.0566053166321581
    Total Energy =                      -2055.8946051741049814
 Dipole X            :         -0.0001862           -0.0000085           -0.0001947
 Dipole Y            :        117.1719532         -117.1648546            0.0070986
 Dipole Z            :       -378.1298566          378.1339092            0.0040527
 Magnitude           :                                                    0.0081763

    SAPT Results
  --------------------------------------------------------------------------------------------------------
    Electrostatics                -14.00865809 [mEh]      -8.79056566 [kcal/mol]     -36.77972674 [kJ/mol]
      Elst10,r                    -14.00865809 [mEh]      -8.79056566 [kcal/mol]     -36.77972674 [kJ/mol]

    Exchange                        6.29896959 [mEh]       3.95266310 [kcal/mol]      16.53794239 [kJ/mol]
      Exch10                        6.29896959 [mEh]       3.95266310 [kcal/mol]      16.53794239 [kJ/mol]
      Exch10(S^2)                   6.28631335 [mEh]       3.94472118 [kcal/mol]      16.50471342 [kJ/mol]

    Induction                     -12.30863549 [mEh]      -7.72378538 [kcal/mol]     -32.31631803 [kJ/mol]
      Ind20,r                     -12.08677777 [mEh]      -7.58456756 [kcal/mol]     -31.73383065 [kJ/mol]
      Exch-Ind20,r                  1.54972726 [mEh]       0.97246854 [kcal/mol]       4.06880835 [kJ/mol]
      delta HF,r (2)               -1.77158499 [mEh]      -1.11168636 [kcal/mol]      -4.65129574 [kJ/mol]

    Dispersion                    -14.62978856 [mEh]      -9.18033092 [kcal/mol]     -38.41050458 [kJ/mol]
      Disp20                      -15.19624687 [mEh]      -9.53578888 [kcal/mol]     -39.89774067 [kJ/mol]
      Exch-Disp20                   0.56645831 [mEh]       0.35545796 [kcal/mol]       1.48723610 [kJ/mol]
      Disp20 (SS)                  -7.59812344 [mEh]      -4.76789444 [kcal/mol]     -19.94887034 [kJ/mol]
      Disp20 (OS)                  -7.59812344 [mEh]      -4.76789444 [kcal/mol]     -19.94887034 [kJ/mol]
      Exch-Disp20 (SS)              0.35099473 [mEh]       0.22025252 [kcal/mol]       0.92153653 [kJ/mol]
      Exch-Disp20 (OS)              0.21546359 [mEh]       0.13520544 [kcal/mol]       0.56569956 [kJ/mol]

  Total HF                        -20.01832399 [mEh]     -12.56168795 [kcal/mol]     -52.55810238 [kJ/mol]
  Total SAPT0                     -34.64811255 [mEh]     -21.74201887 [kcal/mol]     -90.96860696 [kJ/mol]

  Special recipe for scaled SAPT0 (see Manual):
    Electrostatics sSAPT0         -14.00865809 [mEh]      -8.79056566 [kcal/mol]     -36.77972674 [kJ/mol]
    Exchange sSAPT0                 6.29896959 [mEh]       3.95266310 [kcal/mol]      16.53794239 [kJ/mol]
    Induction sSAPT0              -12.29925643 [mEh]      -7.71789993 [kcal/mol]     -32.29169331 [kJ/mol]
    Dispersion sSAPT0             -14.62636031 [mEh]      -9.17817966 [kcal/mol]     -38.40150371 [kJ/mol]
  Total sSAPT0                    -34.63530524 [mEh]     -21.73398216 [kcal/mol]     -90.93498137 [kJ/mol]
  --------------------------------------------------------------------------------------------------------

*** Psi4 exiting successfully. Buy a developer a beer!
