                               Psi4 1.9 release

  ==> Input File <==

--------------------------------------------------------------------------
memory 32 GB # how much memory is available ! Depends on the nodes/cores !

molecule dimer {
# monomer A
-1 1    # Charge and multiplicity
B -1.977592e-04  2.742729e-04 4.800034
F  1.123153e-16  1.430594e-17 6.212819
F  1.147860e+00  6.757812e-01 4.328893
F  1.191806e-02 -1.332011e+00 4.329095
F -1.159666e+00  6.560735e-01 4.329174
--
# monomer B
0 1     # Charge and multiplicity
C   1.22531237526482      0.70753866091955      0.00613762728373
C   1.22532433589282     -0.70753852257020     -0.00619318228664
C   -0.00000567409046      1.41496628609039     -0.00672680580738
C   2.45644923379077      1.41832825917820      0.00902448468363
C   0.00001130712078     -1.41497612663474      0.00347275151708
C   -1.22530046906674      0.70754574598412      0.00838914760619
C   2.45643823516184     -1.41832293188077     -0.00843833914343
C   -0.00000085313587      2.83680140328112     -0.00913035594137
C   3.68182717731192      0.70931832800114     -0.00808954934571
C   2.45512052870677      2.83422403348893     -0.00819210630633
C   3.68182158506039     -0.70933346742900      0.00798293467272
C   -1.22531311884624     -0.70752714354401     -0.00512042085974
C   1.22670006104402      3.54346985599427      0.00816696660346
C   0.00000526469929     -2.83678176723568      0.00832091913869
C   -2.45643555300670      1.41831729028492      0.00842454345199
C   2.45512389762097     -2.83422965658853      0.00783102630520
C   -1.22671388474763      3.54346943575023      0.00827029982280
C   4.91451777504333      1.42717324448953     -0.00160886631602
C   3.69315067131765      3.54279566454522     -0.00155906667985
C   -2.45643712022637     -1.41831290883911     -0.00846337726810
C   1.22670532178455     -3.54347386990643     -0.00780316414624
C   -2.45512491866593      2.83421703463423     -0.00818572995999
C   4.91452486062398     -1.42718653794377      0.00136387641845
C   1.22142509354026      4.97013443726031      0.00150231067809
C   4.89300870916237      2.82518837202648     -0.00039219795739
C   -1.22669652864725     -3.54347062507680     -0.00753595973677
C   -3.68181849668397      0.70932533873199     -0.00807686886569
C   3.69314758099218     -3.54280096939050      0.00148176697923
C   -1.22143177215231      4.97012866986289      0.00168580605083
C   6.13477145276790      0.68054831910577     -0.00083909176631
C   3.65678936045204      4.97295361556775     -0.00065042889723
C   -2.45512642789169     -2.83421472106065      0.00758666850712
C   -3.68181869921921     -0.70932533146830      0.00810055625144
C   4.89301309775526     -2.82519973363176      0.00021895393805
C   -0.00000059327114      5.65044773803267      0.00045449734393
C   6.13477559217374     -0.68055448207492      0.00042622874941
C   2.47813196269732      5.65357712333155      0.00063835075260
C   1.22142288457925     -4.97012668293268     -0.00129718634452
C   -3.69316190412301      3.54279732619245     -0.00139355922051
C   -1.22142804110313     -4.97011793159564     -0.00140994817719
C   -4.91452132810043      1.42717581899491     -0.00153192130862
C   3.65678749952045     -4.97295485423912      0.00080007163680
C   -2.47813805026426      5.65357479452875      0.00092287576113
C   -3.69314125872231     -3.54278984697859      0.00136564082345
C   -4.91451200321153     -1.42718062802730      0.00139857359209
C   -0.00000552908399     -5.65043791501335      0.00005899322272
C   -4.89302000425900      2.82518897091939     -0.00040227981744
C   2.47812647313991     -5.65357317188818     -0.00029052915548
C   -3.65679823041642      4.97295655404175     -0.00047374852278
C   -4.89299899901461     -2.82519139505969      0.00006491824035
C   -2.47812801824129     -5.65356579800621     -0.00056571680280
C   -6.13477002348955      0.68054913825639     -0.00086464346868
C   -3.65678835334731     -4.97294365097028      0.00058578382008
C   -6.13476456307132     -0.68055354348201      0.00040575295444
H   5.83528897565761      3.36927626695423      0.00396712770529
H   7.07385965258860      1.22821762089947     -0.00037744837300
H   4.60066374401555      5.51238117445323     -0.00014522814529
H   5.83528386714679     -3.36930568472863     -0.00423551337640
H   -0.00001167146422      6.73853104613662     -0.00389474766392
H   7.07386165167227     -1.22822657074368     -0.00008250934481
H   2.47331421164041      6.74068466339473      0.00017162982210
H   4.60066897122302     -5.51237575717576      0.00039007446835
H   -2.47331820069565      6.74068209160650      0.00047297644710
H   -0.00000978838621     -6.73852780445195      0.00458867820736
H   -5.83530143450167      3.36927132229595      0.00410314985360
H   2.47330840367253     -6.74068500242887      0.00027980126949
H   -4.60067436136587      5.51237839860371      0.00002010017831
H   -5.83527902699321     -3.36928859177951     -0.00451481925734
H   -2.47329986759855     -6.74067870613986     -0.00016951527498
H   -7.07385728692578      1.22822084484047     -0.00046143985387
H   -4.60067330624313     -5.51236229778631      0.00021776644566
H   -7.07385645456741     -1.22822025997701     -0.00017736581114

    units angstrom      # Angstroms are the default
    no_reorient         # Geometry fixed, default
    symmetry c1         # C1 symmetry, default
}

set {
    scf_type DF         # Density fitting, faster than exact integrals
    freeze_core True    # Freeze core electrons
    basis jun-cc-pVDZ   # Jun-cc-pVDZ basis set, recommended for sSAPT0 in https://doi.org/10.1063/1.4867135
}

energy('ssapt0')        # Compute sSAPT0 energy, includes also SAPT0
--------------------------------------------------------------------------

  //              Dimer HF             //
    Molecular point group: c1
  Charge       = -1
  Multiplicity = 1
  Basis Set: JUN-CC-PVDZ
    Blend: JUN-CC-PVDZ
  Basis Set: (JUN-CC-PVDZ AUX)
    Blend: JUN-CC-PVDZ-JKFIT
  @DF-RHF Final Energy: -2478.66037895750833
    Total Energy =                      -2478.6603789575074188
 Dipole X            :         -0.0005372            0.0000481           -0.0004891
 Dipole Y            :          0.0010005           -0.0001453            0.0008552
 Dipole Z            :         22.5223976          -29.4254454           -6.9030479
 Magnitude           :                                                    6.9030479
  //            Monomer A HF           //
    Molecular point group: c1
  Multiplicity = 1
  Basis Set: JUN-CC-PVDZ
    Blend: JUN-CC-PVDZ
  Basis Set: (JUN-CC-PVDZ AUX)
    Blend: JUN-CC-PVDZ-JKFIT
  @DF-RHF Final Energy:  -422.77207900157953
    Total Energy =                       -422.7720790015795274
  //            Monomer B HF           //
    Molecular point group: c1

    Geometry (in Angstrom), charge = 0, multiplicity = 1:

       Center              X                  Y                   Z               Mass
    ------------   -----------------  -----------------  -----------------  -----------------
      Gh(B)          -0.000198161052     0.000273808717     4.245541805389    11.009305360000
      Gh(F)          -0.000000401852    -0.000000464183     5.658326805389    18.998403162730
      Gh(F)           1.147859598148     0.675780735817     3.774400805389    18.998403162730
      Gh(F)           0.011917658148    -1.332011464183     3.774602805389    18.998403162730
      Gh(F)          -1.159666401852     0.656073035817     3.774681805389    18.998403162730
         C            1.225311973413     0.707538196736    -0.548354567328    12.000000000000
         C            1.225323934041    -0.707538986754    -0.560685376898    12.000000000000
         C           -0.000006075942     1.414965821907    -0.561219000419    12.000000000000
         C            2.456448831939     1.418327794995    -0.545467709928    12.000000000000
         C            0.000010905269    -1.414976590818    -0.551019443094    12.000000000000
         C           -1.225300870919     0.707545281801    -0.546103047005    12.000000000000
         C            2.456437833310    -1.418323396064    -0.562930533755    12.000000000000
         C           -0.000001254988     2.836800939098    -0.563622550553    12.000000000000
         C            3.681826775460     0.709317863818    -0.562581743957    12.000000000000
         C            2.455120126855     2.834223569306    -0.562684300918    12.000000000000
         C            3.681821183209    -0.709333931612    -0.546509259939    12.000000000000
         C           -1.225313520698    -0.707527607727    -0.559612615471    12.000000000000
         C            1.226699659192     3.543469391811    -0.546325228008    12.000000000000
         C            0.000004862847    -2.836782231419    -0.546171275473    12.000000000000
         C           -2.456435954859     1.418316826102    -0.546067651159    12.000000000000
         C            2.455123495769    -2.834230120772    -0.546661168306    12.000000000000
         C           -1.226714286599     3.543468971567    -0.546221894789    12.000000000000
         C            4.914517373191     1.427172780306    -0.556101060927    12.000000000000
         C            3.693150269466     3.542795200362    -0.556051261291    12.000000000000
         C           -2.456437522078    -1.418313373022    -0.562955571879    12.000000000000
         C            1.226704919933    -3.543474334090    -0.562295358758    12.000000000000
         C           -2.455125320518     2.834216570451    -0.562677924571    12.000000000000
         C            4.914524458772    -1.427187002127    -0.553128318193    12.000000000000
         C            1.221424691688     4.970133973077    -0.552989883933    12.000000000000
         C            4.893008307311     2.825187907843    -0.554884392569    12.000000000000
         C           -1.226696930499    -3.543471089260    -0.562028154348    12.000000000000
         C           -3.681818898536     0.709324874549    -0.562569063477    12.000000000000
         C            3.693147179140    -3.542801433574    -0.553010427632    12.000000000000
         C           -1.221432174004     4.970128205680    -0.552806388560    12.000000000000
         C            6.134771050916     0.680547854922    -0.555331286378    12.000000000000
         C            3.656788958600     4.972953151384    -0.555142623509    12.000000000000
         C           -2.455126829744    -2.834215185244    -0.546905526104    12.000000000000
         C           -3.681819101071    -0.709325795652    -0.546391638360    12.000000000000
         C            4.893012695903    -2.825200197815    -0.554273240673    12.000000000000
         C           -0.000000995123     5.650447273849    -0.554037697267    12.000000000000
         C            6.134775190322    -0.680554946258    -0.554065965862    12.000000000000
         C            2.478131560845     5.653576659148    -0.553853843859    12.000000000000
         C            1.221422482727    -4.970127147116    -0.555789380956    12.000000000000
         C           -3.693162305975     3.542796862009    -0.555885753832    12.000000000000
         C           -1.221428442955    -4.970118395779    -0.555902142789    12.000000000000
         C           -4.914521729952     1.427175354812    -0.556024115920    12.000000000000
         C            3.656787097669    -4.972955318422    -0.553692122975    12.000000000000
         C           -2.478138452116     5.653574330345    -0.553569318850    12.000000000000
         C           -3.693141660574    -3.542790311162    -0.553126553788    12.000000000000
         C           -4.914512405063    -1.427181092211    -0.553093621019    12.000000000000
         C           -0.000005930936    -5.650438379197    -0.554433201389    12.000000000000
         C           -4.893020406111     2.825188506736    -0.554894474429    12.000000000000
         C            2.478126071288    -5.653573636072    -0.554782723767    12.000000000000
         C           -3.656798632268     4.972956089858    -0.554965943134    12.000000000000
         C           -4.892999400866    -2.825191859243    -0.554427276371    12.000000000000
         C           -2.478128420093    -5.653566262190    -0.555057911414    12.000000000000
         C           -6.134770425341     0.680548674073    -0.555356838080    12.000000000000
         C           -3.656788755199    -4.972944115154    -0.553906410791    12.000000000000
         C           -6.134764964923    -0.680554007665    -0.554086441657    12.000000000000
         H            5.835288573806     3.369275802771    -0.550525066906     1.007825032230
         H            7.073859250737     1.228217156716    -0.554869642984     1.007825032230
         H            4.600663342164     5.512380710270    -0.554637422757     1.007825032230
         H            5.835283465295    -3.369306148912    -0.558727707988     1.007825032230
         H           -0.000012073316     6.738530581953    -0.558386942275     1.007825032230
         H            7.073861249820    -1.228227034927    -0.554574703956     1.007825032230
         H            2.473313809789     6.740684199211    -0.554320564789     1.007825032230
         H            4.600668569371    -5.512376221359    -0.554102120143     1.007825032230
         H           -2.473318602548     6.740681627423    -0.554019218164     1.007825032230
         H           -0.000010190238    -6.738528268635    -0.549903516404     1.007825032230
         H           -5.835301836354     3.369270858113    -0.550389044758     1.007825032230
         H            2.473308001821    -6.740685466612    -0.554212393342     1.007825032230
         H           -4.600674763218     5.512377934420    -0.554472094433     1.007825032230
         H           -5.835279428845    -3.369289055963    -0.559007013869     1.007825032230
         H           -2.473300269450    -6.740679170323    -0.554661709886     1.007825032230
         H           -7.073857688778     1.228220380657    -0.554953634465     1.007825032230
         H           -4.600673708095    -5.512362761970    -0.554274428166     1.007825032230
         H           -7.073856856419    -1.228220724160    -0.554669560422     1.007825032230

  Charge       = 0
  Multiplicity = 1
  Basis Set: JUN-CC-PVDZ
    Blend: JUN-CC-PVDZ
  Basis Set: (JUN-CC-PVDZ AUX)
    Blend: JUN-CC-PVDZ-JKFIT

    Orbital Energies [Eh]
    ---------------------

    Doubly Occupied:

       1A    -11.260621     2A    -11.260175     3A    -11.260174
       4A    -11.259450     5A    -11.259450     6A    -11.259275
       7A    -11.259052     8A    -11.258978     9A    -11.258976
      10A    -11.258652    11A    -11.258649    12A    -11.258568
      13A    -11.258509    14A    -11.258505    15A    -11.258502
      16A    -11.258471    17A    -11.258465    18A    -11.258449
      19A    -11.258440    20A    -11.258435    21A    -11.258429
      22A    -11.258343    23A    -11.258340    24A    -11.258058
      25A    -11.257356    26A    -11.257295    27A    -11.257294
      28A    -11.257161    29A    -11.257160    30A    -11.257077
      31A    -11.256450    32A    -11.256380    33A    -11.256379
      34A    -11.256271    35A    -11.256270    36A    -11.256224
      37A    -11.252321    38A    -11.252321    39A    -11.252319
      40A    -11.252318    41A    -11.252316    42A    -11.252314
      43A    -11.251439    44A    -11.251437    45A    -11.251437
      46A    -11.251426    47A    -11.251425    48A    -11.251422
      49A    -11.250883    50A    -11.250882    51A    -11.250881
      52A    -11.250879    53A    -11.250877    54A    -11.250876
      55A     -1.244105    56A     -1.219866    57A     -1.219865
      58A     -1.189595    59A     -1.189588    60A     -1.180989
      61A     -1.157612    62A     -1.149034    63A     -1.135539
      64A     -1.135533    65A     -1.113245    66A     -1.113240
      67A     -1.082482    68A     -1.082475    69A     -1.078649
      70A     -1.066033    71A     -1.066030    72A     -1.039449
      73A     -1.024326    74A     -1.021813    75A     -1.021770
      76A     -1.017782    77A     -1.012848    78A     -0.987072
      79A     -0.987026    80A     -0.961932    81A     -0.961882
      82A     -0.894343    83A     -0.894316    84A     -0.887981
      85A     -0.886233    86A     -0.886175    87A     -0.881448
      88A     -0.881401    89A     -0.861950    90A     -0.837462
      91A     -0.818261    92A     -0.816663    93A     -0.812186
      94A     -0.812176    95A     -0.794740    96A     -0.794729
      97A     -0.746676    98A     -0.744908    99A     -0.733463
     100A     -0.733454   101A     -0.732233   102A     -0.732210
     103A     -0.716544   104A     -0.699025   105A     -0.699014
     106A     -0.693636   107A     -0.693621   108A     -0.661281
     109A     -0.653152   110A     -0.651202   111A     -0.650304
     112A     -0.650298   113A     -0.639413   114A     -0.639410
     115A     -0.629763   116A     -0.627572   117A     -0.627556
     118A     -0.606494   119A     -0.605855   120A     -0.601713
     121A     -0.599785   122A     -0.599754   123A     -0.593689
     124A     -0.591264   125A     -0.591253   126A     -0.585328
     127A     -0.576393   128A     -0.576387   129A     -0.567375
     130A     -0.567360   131A     -0.566004   132A     -0.565984
     133A     -0.558770   134A     -0.554895   135A     -0.554889
     136A     -0.538644   137A     -0.538643   138A     -0.538228
     139A     -0.538222   140A     -0.529769   141A     -0.528193
     142A     -0.522922   143A     -0.522915   144A     -0.500554
     145A     -0.495641   146A     -0.493285   147A     -0.487871
     148A     -0.485123   149A     -0.481807   150A     -0.481799
     151A     -0.470384   152A     -0.470366   153A     -0.451067
     154A     -0.450989   155A     -0.439110   156A     -0.439100
     157A     -0.404790   158A     -0.404767   159A     -0.403417
     160A     -0.375461   161A     -0.375459   162A     -0.349163
     163A     -0.337638   164A     -0.336602   165A     -0.336544
     166A     -0.311131   167A     -0.298143   168A     -0.284387
     169A     -0.284333   170A     -0.224959   171A     -0.224894

  @DF-RHF Final Energy: -2055.89298334632122

   => Energetics <=

    Nuclear Repulsion Energy =           6452.5568002797772351
    One-Electron Energy =              -15636.4672362999881443
    Two-Electron Energy =                7128.0174526738901477
    Total Energy =                      -2055.8929833463207615
 Dipole X            :          0.0000420            0.0000419            0.0000839
 Dipole Y            :          0.0000243           -0.0000426           -0.0000182
 Dipole Z            :        358.3553344         -358.3621712           -0.0068368
 Magnitude           :                                                    0.0068373

    SAPT Results
  --------------------------------------------------------------------------------------------------------
    Electrostatics                 11.62026508 [mEh]       7.29182642 [kcal/mol]      30.50900176 [kJ/mol]
      Elst10,r                     11.62026508 [mEh]       7.29182642 [kcal/mol]      30.50900176 [kJ/mol]

    Exchange                        0.11108146 [mEh]       0.06970467 [kcal/mol]       0.29164435 [kJ/mol]
      Exch10                        0.11108146 [mEh]       0.06970467 [kcal/mol]       0.29164435 [kJ/mol]
      Exch10(S^2)                   0.11108593 [mEh]       0.06970747 [kcal/mol]       0.29165606 [kJ/mol]

    Induction                      -7.04795615 [mEh]      -4.42265925 [kcal/mol]     -18.50440632 [kJ/mol]
      Ind20,r                      -7.13834253 [mEh]      -4.47937756 [kcal/mol]     -18.74171573 [kJ/mol]
      Exch-Ind20,r                  0.02446954 [mEh]       0.01535487 [kcal/mol]       0.06424476 [kJ/mol]
      delta HF,r (2)                0.06591684 [mEh]       0.04136344 [kcal/mol]       0.17306465 [kJ/mol]

    Dispersion                     -2.50963475 [mEh]      -1.57481958 [kcal/mol]      -6.58904512 [kJ/mol]
      Disp20                       -2.54471921 [mEh]      -1.59683541 [kcal/mol]      -6.68115936 [kJ/mol]
      Exch-Disp20                   0.03508446 [mEh]       0.02201583 [kcal/mol]       0.09211424 [kJ/mol]
      Disp20 (SS)                  -1.27235960 [mEh]      -0.79841771 [kcal/mol]      -3.34057968 [kJ/mol]
      Disp20 (OS)                  -1.27235960 [mEh]      -0.79841771 [kcal/mol]      -3.34057968 [kJ/mol]
      Exch-Disp20 (SS)              0.02459080 [mEh]       0.01543096 [kcal/mol]       0.06456314 [kJ/mol]
      Exch-Disp20 (OS)              0.01049366 [mEh]       0.00658487 [kcal/mol]       0.02755110 [kJ/mol]

  Total HF                          4.68339039 [mEh]       2.93887184 [kcal/mol]      12.29623978 [kJ/mol]
  Total SAPT0                       2.17375564 [mEh]       1.36405226 [kcal/mol]       5.70719466 [kJ/mol]

  Special recipe for scaled SAPT0 (see Manual):
    Electrostatics sSAPT0          11.62026508 [mEh]       7.29182642 [kcal/mol]      30.50900176 [kJ/mol]
    Exchange sSAPT0                 0.11108146 [mEh]       0.06970467 [kcal/mol]       0.29164435 [kJ/mol]
    Induction sSAPT0               -7.04795910 [mEh]      -4.42266111 [kcal/mol]     -18.50441406 [kJ/mol]
    Dispersion sSAPT0              -2.50963898 [mEh]      -1.57482223 [kcal/mol]      -6.58905622 [kJ/mol]
  Total sSAPT0                      2.17374847 [mEh]       1.36404776 [kcal/mol]       5.70717582 [kJ/mol]
  --------------------------------------------------------------------------------------------------------

*** Psi4 exiting successfully. Buy a developer a beer!
