                               Psi4 1.9 release

  ==> Input File <==

--------------------------------------------------------------------------
memory 32 GB # how much memory is available ! Depends on the nodes/cores !

molecule dimer {
# monomer A
+1 1    # Charge and multiplicity
C  0.680067 1.417258 -11.015929
C -0.680504 1.419286 -11.015545
N -1.085635 1.420284  -9.697221
C  0.000108 1.423560  -8.915820
C -2.477365 1.469690  -9.229242
N  1.085222 1.420284  -9.697221
H  1.385146 1.409430 -11.833368
H -1.385302 1.419096 -11.833214
H -0.000009 1.425307  -7.834731
C  2.478117 1.403392  -9.232123
H  2.490592 1.430737  -8.141870
H  2.967028 0.489946  -9.579299
H  3.001428 2.278875  -9.623595
H -2.857359 2.491761  -9.309201
H -3.082679 0.799606  -9.842306
H -2.518128 1.142706  -8.189294
--
# monomer B
0 1     # Charge and multiplicity
C   1.22531237526482      0.70753866091955      0.00613762728373
C   1.22532433589282     -0.70753852257020     -0.00619318228664
C   -0.00000567409046      1.41496628609039     -0.00672680580738
C   2.45644923379077      1.41832825917820      0.00902448468363
C   0.00001130712078     -1.41497612663474      0.00347275151708
C   -1.22530046906674      0.70754574598412      0.00838914760619
C   2.45643823516184     -1.41832293188077     -0.00843833914343
C   -0.00000085313587      2.83680140328112     -0.00913035594137
C   3.68182717731192      0.70931832800114     -0.00808954934571
C   2.45512052870677      2.83422403348893     -0.00819210630633
C   3.68182158506039     -0.70933346742900      0.00798293467272
C   -1.22531311884624     -0.70752714354401     -0.00512042085974
C   1.22670006104402      3.54346985599427      0.00816696660346
C   0.00000526469929     -2.83678176723568      0.00832091913869
C   -2.45643555300670      1.41831729028492      0.00842454345199
C   2.45512389762097     -2.83422965658853      0.00783102630520
C   -1.22671388474763      3.54346943575023      0.00827029982280
C   4.91451777504333      1.42717324448953     -0.00160886631602
C   3.69315067131765      3.54279566454522     -0.00155906667985
C   -2.45643712022637     -1.41831290883911     -0.00846337726810
C   1.22670532178455     -3.54347386990643     -0.00780316414624
C   -2.45512491866593      2.83421703463423     -0.00818572995999
C   4.91452486062398     -1.42718653794377      0.00136387641845
C   1.22142509354026      4.97013443726031      0.00150231067809
C   4.89300870916237      2.82518837202648     -0.00039219795739
C   -1.22669652864725     -3.54347062507680     -0.00753595973677
C   -3.68181849668397      0.70932533873199     -0.00807686886569
C   3.69314758099218     -3.54280096939050      0.00148176697923
C   -1.22143177215231      4.97012866986289      0.00168580605083
C   6.13477145276790      0.68054831910577     -0.00083909176631
C   3.65678936045204      4.97295361556775     -0.00065042889723
C   -2.45512642789169     -2.83421472106065      0.00758666850712
C   -3.68181869921921     -0.70932533146830      0.00810055625144
C   4.89301309775526     -2.82519973363176      0.00021895393805
C   -0.00000059327114      5.65044773803267      0.00045449734393
C   6.13477559217374     -0.68055448207492      0.00042622874941
C   2.47813196269732      5.65357712333155      0.00063835075260
C   1.22142288457925     -4.97012668293268     -0.00129718634452
C   -3.69316190412301      3.54279732619245     -0.00139355922051
C   -1.22142804110313     -4.97011793159564     -0.00140994817719
C   -4.91452132810043      1.42717581899491     -0.00153192130862
C   3.65678749952045     -4.97295485423912      0.00080007163680
C   -2.47813805026426      5.65357479452875      0.00092287576113
C   -3.69314125872231     -3.54278984697859      0.00136564082345
C   -4.91451200321153     -1.42718062802730      0.00139857359209
C   -0.00000552908399     -5.65043791501335      0.00005899322272
C   -4.89302000425900      2.82518897091939     -0.00040227981744
C   2.47812647313991     -5.65357317188818     -0.00029052915548
C   -3.65679823041642      4.97295655404175     -0.00047374852278
C   -4.89299899901461     -2.82519139505969      0.00006491824035
C   -2.47812801824129     -5.65356579800621     -0.00056571680280
C   -6.13477002348955      0.68054913825639     -0.00086464346868
C   -3.65678835334731     -4.97294365097028      0.00058578382008
C   -6.13476456307132     -0.68055354348201      0.00040575295444
H   5.83528897565761      3.36927626695423      0.00396712770529
H   7.07385965258860      1.22821762089947     -0.00037744837300
H   4.60066374401555      5.51238117445323     -0.00014522814529
H   5.83528386714679     -3.36930568472863     -0.00423551337640
H   -0.00001167146422      6.73853104613662     -0.00389474766392
H   7.07386165167227     -1.22822657074368     -0.00008250934481
H   2.47331421164041      6.74068466339473      0.00017162982210
H   4.60066897122302     -5.51237575717576      0.00039007446835
H   -2.47331820069565      6.74068209160650      0.00047297644710
H   -0.00000978838621     -6.73852780445195      0.00458867820736
H   -5.83530143450167      3.36927132229595      0.00410314985360
H   2.47330840367253     -6.74068500242887      0.00027980126949
H   -4.60067436136587      5.51237839860371      0.00002010017831
H   -5.83527902699321     -3.36928859177951     -0.00451481925734
H   -2.47329986759855     -6.74067870613986     -0.00016951527498
H   -7.07385728692578      1.22822084484047     -0.00046143985387
H   -4.60067330624313     -5.51236229778631      0.00021776644566
H   -7.07385645456741     -1.22822025997701     -0.00017736581114

    units angstrom      # Angstroms are the default
    no_reorient         # Geometry fixed, default
    symmetry c1         # C1 symmetry, default
}

set {
    scf_type DF         # Density fitting, faster than exact integrals
    freeze_core True    # Freeze core electrons
    basis jun-cc-pVDZ   # Jun-cc-pVDZ basis set, recommended for sSAPT0 in https://doi.org/10.1063/1.4867135
}

energy('ssapt0')        # Compute sSAPT0 energy, includes also SAPT0
--------------------------------------------------------------------------

  //              Dimer HF             //
    Molecular point group: c1
  Charge       = 1
  Multiplicity = 1
  Basis Set: JUN-CC-PVDZ
    Blend: JUN-CC-PVDZ
  Basis Set: (JUN-CC-PVDZ AUX)
    Blend: JUN-CC-PVDZ-JKFIT
  @DF-RHF Final Energy: -2359.19388553232830
    Total Energy =                      -2359.1938855323278403
 Dipole X            :         -0.0010413            0.0006313           -0.0004100
 Dipole Y            :         -5.3859982            7.4856329            2.0996348
 Dipole Z            :         34.0390841          -49.1973907          -15.1583066
 Magnitude           :                                                   15.3030299
  //            Monomer A HF           //
    Molecular point group: c1
  Multiplicity = 1
  Basis Set: JUN-CC-PVDZ
    Blend: JUN-CC-PVDZ
  Basis Set: (JUN-CC-PVDZ AUX)
    Blend: JUN-CC-PVDZ-JKFIT
  @DF-RHF Final Energy:  -303.29716832747960
    Total Energy =                       -303.2971683274795964
  //            Monomer B HF           //
    Molecular point group: c1

    Geometry (in Angstrom), charge = 0, multiplicity = 1:

       Center              X                  Y                   Z               Mass
    ------------   -----------------  -----------------  -----------------  -----------------
      Gh(C)           0.680066520158     1.235968212970    -9.769431400982    12.000000000000
      Gh(C)          -0.680504479842     1.237996212970    -9.769047400982    12.000000000000
      Gh(N)          -1.085635479842     1.238994212970    -8.450723400982    14.003074004430
      Gh(C)           0.000107520158     1.242270212970    -7.669322400982    12.000000000000
      Gh(C)          -2.477365479842     1.288400212970    -7.982744400982    12.000000000000
      Gh(N)           1.085221520158     1.238994212970    -8.450723400982    14.003074004430
      Gh(H)           1.385145520158     1.228140212970   -10.586870400982     1.007825032230
      Gh(H)          -1.385302479842     1.237806212970   -10.586716400982     1.007825032230
      Gh(H)          -0.000009479842     1.244017212970    -6.588233400982     1.007825032230
      Gh(C)           2.478116520158     1.222102212970    -7.985625400982    12.000000000000
      Gh(H)           2.490591520158     1.249447212970    -6.895372400982     1.007825032230
      Gh(H)           2.967027520158     0.308656212970    -8.332801400982     1.007825032230
      Gh(H)           3.001427520158     2.097585212970    -8.377097400982     1.007825032230
      Gh(H)          -2.857359479842     2.310471212970    -8.062703400982     1.007825032230
      Gh(H)          -3.082679479842     0.618316212970    -8.595808400982     1.007825032230
      Gh(H)          -2.518128479842     0.961416212970    -6.942796400982     1.007825032230
         C            1.225311895423     0.526248873889     1.252635226302    12.000000000000
         C            1.225323856051    -0.888828309601     1.240304416731    12.000000000000
         C           -0.000006153932     1.233676499060     1.239770793211    12.000000000000
         C            2.456448753949     1.237038472148     1.255522083702    12.000000000000
         C            0.000010827279    -1.596265913665     1.249970350535    12.000000000000
         C           -1.225300948908     0.526255958954     1.254886746624    12.000000000000
         C            2.456437755320    -1.599612718911     1.238059259875    12.000000000000
         C           -0.000001332978     2.655511616251     1.237367243077    12.000000000000
         C            3.681826697470     0.528028540971     1.238408049672    12.000000000000
         C            2.455120048865     2.652934246459     1.238305492712    12.000000000000
         C            3.681821105219    -0.890623254459     1.254480533691    12.000000000000
         C           -1.225313598688    -0.888816930574     1.241377178158    12.000000000000
         C            1.226699581202     3.362180068964     1.254664565622    12.000000000000
         C            0.000004784858    -3.018071554266     1.254818518157    12.000000000000
         C           -2.456436032848     1.237027503255     1.254922142470    12.000000000000
         C            2.455123417779    -3.015519443619     1.254328625323    12.000000000000
         C           -1.226714364589     3.362179648720     1.254767898841    12.000000000000
         C            4.914517295202     1.245883457459     1.244888732702    12.000000000000
         C            3.693150191476     3.361505877515     1.244938532338    12.000000000000
         C           -2.456437600068    -1.599602695869     1.238034221750    12.000000000000
         C            1.226704841943    -3.724763656937     1.238694434872    12.000000000000
         C           -2.455125398508     2.652927247604     1.238311869058    12.000000000000
         C            4.914524380782    -1.608476324974     1.247861475437    12.000000000000
         C            1.221424613699     4.788844650230     1.247999909696    12.000000000000
         C            4.893008229321     2.643898584996     1.246105401061    12.000000000000
         C           -1.226697008489    -3.724760412107     1.238961639281    12.000000000000
         C           -3.681818976526     0.528035551702     1.238420730152    12.000000000000
         C            3.693147101150    -3.724090756421     1.247979365997    12.000000000000
         C           -1.221432251994     4.788838882833     1.248183405069    12.000000000000
         C            6.134770972926     0.499258532075     1.245658507252    12.000000000000
         C            3.656788880610     4.791663828537     1.245847170121    12.000000000000
         C           -2.455126907733    -3.015504508091     1.254084267525    12.000000000000
         C           -3.681819179061    -0.890615118499     1.254598155270    12.000000000000
         C            4.893012617914    -3.006489520662     1.246716552956    12.000000000000
         C           -0.000001073113     5.469157951002     1.246952096362    12.000000000000
         C            6.134775112332    -0.861844269105     1.246923827767    12.000000000000
         C            2.478131482856     5.472287336301     1.247135949771    12.000000000000
         C            1.221422404738    -5.151416469963     1.245200412674    12.000000000000
         C           -3.693162383965     3.361507539162     1.245104039798    12.000000000000
         C           -1.221428520945    -5.151407718626     1.245087650841    12.000000000000
         C           -4.914521807942     1.245886031965     1.244965677709    12.000000000000
         C            3.656787019679    -5.154244641269     1.247297670655    12.000000000000
         C           -2.478138530106     5.472285007498     1.247420474779    12.000000000000
         C           -3.693141738564    -3.724079634009     1.247863239842    12.000000000000
         C           -4.914512483053    -1.608470415058     1.247896172610    12.000000000000
         C           -0.000006008926    -5.831727702044     1.246556592241    12.000000000000
         C           -4.893020484101     2.643899183889     1.246095319201    12.000000000000
         C            2.478125993298    -5.834862958919     1.246207069863    12.000000000000
         C           -3.656798710258     4.791666767011     1.246023850495    12.000000000000
         C           -4.892999478856    -3.006481182090     1.246562517258    12.000000000000
         C           -2.478128498083    -5.834855585037     1.245931882215    12.000000000000
         C           -6.134770503331     0.499259351226     1.245632955549    12.000000000000
         C           -3.656788833189    -5.154233438001     1.247083382838    12.000000000000
         C           -6.134765042913    -0.861843330512     1.246903351973    12.000000000000
         H            5.835288495816     3.187986479924     1.250464726723     1.007825032230
         H            7.073859172747     1.046927833869     1.246120150645     1.007825032230
         H            4.600663264174     5.331091387423     1.246352370873     1.007825032230
         H            5.835283387305    -3.550595471759     1.242262085642     1.007825032230
         H           -0.000012151306     6.557241259106     1.242602851354     1.007825032230
         H            7.073861171831    -1.409516357774     1.246415089673     1.007825032230
         H            2.473313731799     6.559394876364     1.246669228840     1.007825032230
         H            4.600668491381    -5.693665544206     1.246887673486     1.007825032230
         H           -2.473318680537     6.559392304576     1.246970575465     1.007825032230
         H           -0.000010268228    -6.919817591482     1.251086277225     1.007825032230
         H           -5.835301914343     3.187981535266     1.250600748872     1.007825032230
         H            2.473307923831    -6.921974789459     1.246777400288     1.007825032230
         H           -4.600674841208     5.331088611573     1.246517699196     1.007825032230
         H           -5.835279506835    -3.550578378810     1.241982779761     1.007825032230
         H           -2.473300347440    -6.921968493170     1.246328083743     1.007825032230
         H           -7.073857766768     1.046931057810     1.246036159164     1.007825032230
         H           -4.600673786085    -5.693652084817     1.246715365464     1.007825032230
         H           -7.073856934409    -1.409510047007     1.246320233207     1.007825032230

  Charge       = 0
  Multiplicity = 1
  Basis Set: JUN-CC-PVDZ
    Blend: JUN-CC-PVDZ
  Basis Set: (JUN-CC-PVDZ AUX)
    Blend: JUN-CC-PVDZ-JKFIT

    Orbital Energies [Eh]
    ---------------------

    Doubly Occupied:

       1A    -11.260681     2A    -11.260239     3A    -11.260237
       4A    -11.259527     5A    -11.259526     6A    -11.259356
       7A    -11.259147     8A    -11.259069     9A    -11.259068
      10A    -11.258743    11A    -11.258740    12A    -11.258670
      13A    -11.258608    14A    -11.258603    15A    -11.258600
      16A    -11.258571    17A    -11.258565    18A    -11.258549
      19A    -11.258536    20A    -11.258531    21A    -11.258525
      22A    -11.258428    23A    -11.258424    24A    -11.258127
      25A    -11.257466    26A    -11.257404    27A    -11.257403
      28A    -11.257269    29A    -11.257268    30A    -11.257184
      31A    -11.256561    32A    -11.256491    33A    -11.256490
      34A    -11.256381    35A    -11.256380    36A    -11.256333
      37A    -11.252406    38A    -11.252405    39A    -11.252404
      40A    -11.252402    41A    -11.252400    42A    -11.252398
      43A    -11.251541    44A    -11.251538    45A    -11.251537
      46A    -11.251531    47A    -11.251531    48A    -11.251527
      49A    -11.250967    50A    -11.250966    51A    -11.250965
      52A    -11.250963    53A    -11.250961    54A    -11.250960
      55A     -1.244306    56A     -1.220024    57A     -1.220022
      58A     -1.189731    59A     -1.189724    60A     -1.181176
      61A     -1.157730    62A     -1.149163    63A     -1.135715
      64A     -1.135709    65A     -1.113364    66A     -1.113359
      67A     -1.082639    68A     -1.082631    69A     -1.078822
      70A     -1.066147    71A     -1.066143    72A     -1.039588
      73A     -1.024501    74A     -1.022006    75A     -1.021963
      76A     -1.017896    77A     -1.012958    78A     -0.987231
      79A     -0.987185    80A     -0.962058    81A     -0.962009
      82A     -0.894477    83A     -0.894450    84A     -0.888177
      85A     -0.886424    86A     -0.886366    87A     -0.881611
      88A     -0.881563    89A     -0.862083    90A     -0.837559
      91A     -0.818400    92A     -0.816843    93A     -0.812350
      94A     -0.812341    95A     -0.794864    96A     -0.794853
      97A     -0.746850    98A     -0.745076    99A     -0.733644
     100A     -0.733636   101A     -0.732362   102A     -0.732339
     103A     -0.716711   104A     -0.699159   105A     -0.699148
     106A     -0.693786   107A     -0.693770   108A     -0.661409
     109A     -0.653345   110A     -0.651391   111A     -0.650426
     112A     -0.650420   113A     -0.639538   114A     -0.639536
     115A     -0.629924   116A     -0.627736   117A     -0.627720
     118A     -0.606463   119A     -0.605941   120A     -0.601877
     121A     -0.599929   122A     -0.599898   123A     -0.593833
     124A     -0.591467   125A     -0.591456   126A     -0.585427
     127A     -0.576422   128A     -0.576417   129A     -0.567487
     130A     -0.567472   131A     -0.566177   132A     -0.566158
     133A     -0.558953   134A     -0.555033   135A     -0.555027
     136A     -0.538769   137A     -0.538767   138A     -0.538295
     139A     -0.538289   140A     -0.529906   141A     -0.528211
     142A     -0.523060   143A     -0.523054   144A     -0.500678
     145A     -0.495725   146A     -0.493416   147A     -0.487954
     148A     -0.485277   149A     -0.481958   150A     -0.481950
     151A     -0.470445   152A     -0.470427   153A     -0.451264
     154A     -0.451186   155A     -0.439195   156A     -0.439186
     157A     -0.404877   158A     -0.404854   159A     -0.403497
     160A     -0.375550   161A     -0.375547   162A     -0.349254
     163A     -0.337724   164A     -0.336692   165A     -0.336634
     166A     -0.311231   167A     -0.298217   168A     -0.284488
     169A     -0.284435   170A     -0.225056   171A     -0.224990

  @DF-RHF Final Energy: -2055.89158326818415

   => Energetics <=

    Nuclear Repulsion Energy =           6452.5568002797781446
    One-Electron Energy =              -15636.4233480398816027
    Two-Electron Energy =                7127.9749644919183993
    Total Energy =                      -2055.8915832681841493
 Dipole X            :          0.0001050           -0.0000085            0.0000965
 Dipole Y            :        117.1648617         -117.1648546            0.0000071
 Dipole Z            :       -805.5928420          805.5929218            0.0000797
 Magnitude           :                                                    0.0001254

    SAPT Results
  --------------------------------------------------------------------------------------------------------
    Electrostatics                 -4.28481850 [mEh]      -2.68876420 [kcal/mol]     -11.24978941 [kJ/mol]
      Elst10,r                     -4.28481850 [mEh]      -2.68876420 [kcal/mol]     -11.24978941 [kJ/mol]

    Exchange                       -0.00001761 [mEh]      -0.00001105 [kcal/mol]      -0.00004623 [kJ/mol]
      Exch10                       -0.00001761 [mEh]      -0.00001105 [kcal/mol]      -0.00004623 [kJ/mol]
      Exch10(S^2)                  -0.00001761 [mEh]      -0.00001105 [kcal/mol]      -0.00004623 [kJ/mol]

    Induction                      -0.84910056 [mEh]      -0.53281865 [kcal/mol]      -2.22931322 [kJ/mol]
      Ind20,r                      -0.84284241 [mEh]      -0.52889160 [kcal/mol]      -2.21288244 [kJ/mol]
      Exch-Ind20,r                  0.00000586 [mEh]       0.00000368 [kcal/mol]       0.00001538 [kJ/mol]
      delta HF,r (2)               -0.00626401 [mEh]      -0.00393072 [kcal/mol]      -0.01644615 [kJ/mol]

    Dispersion                     -0.26128310 [mEh]      -0.16395762 [kcal/mol]      -0.68599867 [kJ/mol]
      Disp20                       -0.26128570 [mEh]      -0.16395925 [kcal/mol]      -0.68600550 [kJ/mol]
      Exch-Disp20                   0.00000260 [mEh]       0.00000163 [kcal/mol]       0.00000683 [kJ/mol]
      Disp20 (SS)                  -0.13064285 [mEh]      -0.08197962 [kcal/mol]      -0.34300275 [kJ/mol]
      Disp20 (OS)                  -0.13064285 [mEh]      -0.08197962 [kcal/mol]      -0.34300275 [kJ/mol]
      Exch-Disp20 (SS)              0.00000194 [mEh]       0.00000122 [kcal/mol]       0.00000508 [kJ/mol]
      Exch-Disp20 (OS)              0.00000066 [mEh]       0.00000042 [kcal/mol]       0.00000174 [kJ/mol]

  Total HF                         -5.13393666 [mEh]      -3.22159389 [kcal/mol]     -13.47914886 [kJ/mol]
  Total SAPT0                      -5.39521976 [mEh]      -3.38555151 [kcal/mol]     -14.16514753 [kJ/mol]

  Special recipe for scaled SAPT0 (see Manual):
    Electrostatics sSAPT0          -4.28481850 [mEh]      -2.68876420 [kcal/mol]     -11.24978941 [kJ/mol]
    Exchange sSAPT0                -0.00001761 [mEh]      -0.00001105 [kcal/mol]      -0.00004623 [kJ/mol]
    Induction sSAPT0               -0.84910056 [mEh]      -0.53281865 [kcal/mol]      -2.22931322 [kJ/mol]
    Dispersion sSAPT0              -0.26128310 [mEh]      -0.16395762 [kcal/mol]      -0.68599867 [kJ/mol]
  Total sSAPT0                     -5.39521976 [mEh]      -3.38555151 [kcal/mol]     -14.16514753 [kJ/mol]
  --------------------------------------------------------------------------------------------------------

*** Psi4 exiting successfully. Buy a developer a beer!
