                               Psi4 1.9 release

  ==> Input File <==

--------------------------------------------------------------------------
memory 32 GB # how much memory is available ! Depends on the nodes/cores !

molecule dimer {
# monomer A
-1 1    # Charge and multiplicity
B -0.000046  0.000337 4.999994
F -1.153597  0.000048 5.815641
F  1.153661 -0.000581 5.815641
F -0.000019 -1.153637 4.184360
F -0.000019  1.153978 4.184360
--
# monomer B
0 1     # Charge and multiplicity
C   1.22531237526482      0.70753866091955      0.00613762728373
C   1.22532433589282     -0.70753852257020     -0.00619318228664
C   -0.00000567409046      1.41496628609039     -0.00672680580738
C   2.45644923379077      1.41832825917820      0.00902448468363
C   0.00001130712078     -1.41497612663474      0.00347275151708
C   -1.22530046906674      0.70754574598412      0.00838914760619
C   2.45643823516184     -1.41832293188077     -0.00843833914343
C   -0.00000085313587      2.83680140328112     -0.00913035594137
C   3.68182717731192      0.70931832800114     -0.00808954934571
C   2.45512052870677      2.83422403348893     -0.00819210630633
C   3.68182158506039     -0.70933346742900      0.00798293467272
C   -1.22531311884624     -0.70752714354401     -0.00512042085974
C   1.22670006104402      3.54346985599427      0.00816696660346
C   0.00000526469929     -2.83678176723568      0.00832091913869
C   -2.45643555300670      1.41831729028492      0.00842454345199
C   2.45512389762097     -2.83422965658853      0.00783102630520
C   -1.22671388474763      3.54346943575023      0.00827029982280
C   4.91451777504333      1.42717324448953     -0.00160886631602
C   3.69315067131765      3.54279566454522     -0.00155906667985
C   -2.45643712022637     -1.41831290883911     -0.00846337726810
C   1.22670532178455     -3.54347386990643     -0.00780316414624
C   -2.45512491866593      2.83421703463423     -0.00818572995999
C   4.91452486062398     -1.42718653794377      0.00136387641845
C   1.22142509354026      4.97013443726031      0.00150231067809
C   4.89300870916237      2.82518837202648     -0.00039219795739
C   -1.22669652864725     -3.54347062507680     -0.00753595973677
C   -3.68181849668397      0.70932533873199     -0.00807686886569
C   3.69314758099218     -3.54280096939050      0.00148176697923
C   -1.22143177215231      4.97012866986289      0.00168580605083
C   6.13477145276790      0.68054831910577     -0.00083909176631
C   3.65678936045204      4.97295361556775     -0.00065042889723
C   -2.45512642789169     -2.83421472106065      0.00758666850712
C   -3.68181869921921     -0.70932533146830      0.00810055625144
C   4.89301309775526     -2.82519973363176      0.00021895393805
C   -0.00000059327114      5.65044773803267      0.00045449734393
C   6.13477559217374     -0.68055448207492      0.00042622874941
C   2.47813196269732      5.65357712333155      0.00063835075260
C   1.22142288457925     -4.97012668293268     -0.00129718634452
C   -3.69316190412301      3.54279732619245     -0.00139355922051
C   -1.22142804110313     -4.97011793159564     -0.00140994817719
C   -4.91452132810043      1.42717581899491     -0.00153192130862
C   3.65678749952045     -4.97295485423912      0.00080007163680
C   -2.47813805026426      5.65357479452875      0.00092287576113
C   -3.69314125872231     -3.54278984697859      0.00136564082345
C   -4.91451200321153     -1.42718062802730      0.00139857359209
C   -0.00000552908399     -5.65043791501335      0.00005899322272
C   -4.89302000425900      2.82518897091939     -0.00040227981744
C   2.47812647313991     -5.65357317188818     -0.00029052915548
C   -3.65679823041642      4.97295655404175     -0.00047374852278
C   -4.89299899901461     -2.82519139505969      0.00006491824035
C   -2.47812801824129     -5.65356579800621     -0.00056571680280
C   -6.13477002348955      0.68054913825639     -0.00086464346868
C   -3.65678835334731     -4.97294365097028      0.00058578382008
C   -6.13476456307132     -0.68055354348201      0.00040575295444
H   5.83528897565761      3.36927626695423      0.00396712770529
H   7.07385965258860      1.22821762089947     -0.00037744837300
H   4.60066374401555      5.51238117445323     -0.00014522814529
H   5.83528386714679     -3.36930568472863     -0.00423551337640
H   -0.00001167146422      6.73853104613662     -0.00389474766392
H   7.07386165167227     -1.22822657074368     -0.00008250934481
H   2.47331421164041      6.74068466339473      0.00017162982210
H   4.60066897122302     -5.51237575717576      0.00039007446835
H   -2.47331820069565      6.74068209160650      0.00047297644710
H   -0.00000978838621     -6.73852780445195      0.00458867820736
H   -5.83530143450167      3.36927132229595      0.00410314985360
H   2.47330840367253     -6.74068500242887      0.00027980126949
H   -4.60067436136587      5.51237839860371      0.00002010017831
H   -5.83527902699321     -3.36928859177951     -0.00451481925734
H   -2.47329986759855     -6.74067870613986     -0.00016951527498
H   -7.07385728692578      1.22822084484047     -0.00046143985387
H   -4.60067330624313     -5.51236229778631      0.00021776644566
H   -7.07385645456741     -1.22822025997701     -0.00017736581114

    units angstrom      # Angstroms are the default
    no_reorient         # Geometry fixed, default
    symmetry c1         # C1 symmetry, default
}

set {
    scf_type DF         # Density fitting, faster than exact integrals
    freeze_core True    # Freeze core electrons
    basis jun-cc-pVDZ   # Jun-cc-pVDZ basis set, recommended for sSAPT0 in https://doi.org/10.1063/1.4867135
}

energy('ssapt0')        # Compute sSAPT0 energy, includes also SAPT0
--------------------------------------------------------------------------

  //              Dimer HF             //
    Molecular point group: c1
  Charge       = -1
  Multiplicity = 1
  Basis Set: JUN-CC-PVDZ
    Blend: JUN-CC-PVDZ
  Basis Set: (JUN-CC-PVDZ AUX)
    Blend: JUN-CC-PVDZ-JKFIT
  @DF-RHF Final Energy: -2478.66026128828753
    Total Energy =                      -2478.6602612882870744
 Dipole X            :         -0.0002212           -0.0000160           -0.0002372
 Dipole Y            :          0.0012825           -0.0001716            0.0011109
 Dipole Z            :         23.3781290          -30.6514931           -7.2733641
 Magnitude           :                                                    7.2733641
  //            Monomer A HF           //
    Molecular point group: c1
  Multiplicity = 1
  Basis Set: JUN-CC-PVDZ
    Blend: JUN-CC-PVDZ
  Basis Set: (JUN-CC-PVDZ AUX)
    Blend: JUN-CC-PVDZ-JKFIT
  @DF-RHF Final Energy:  -422.77203456910780
    Total Energy =                       -422.7720345691078023
  //            Monomer B HF           //
    Molecular point group: c1

    Geometry (in Angstrom), charge = 0, multiplicity = 1:

       Center              X                  Y                   Z               Mass
    ------------   -----------------  -----------------  -----------------  -----------------
      Gh(B)          -0.000046449334     0.000336519434     4.422397926791    11.009305360000
      Gh(F)          -1.153597449334     0.000047519434     5.238044926791    18.998403162730
      Gh(F)           1.153660550666    -0.000581480566     5.238044926791    18.998403162730
      Gh(F)          -0.000019449334    -1.153637480566     3.606763926791    18.998403162730
      Gh(F)          -0.000019449334     1.153977519434     3.606763926791    18.998403162730
         C            1.225311925931     0.707538180353    -0.571458445926    12.000000000000
         C            1.225323886559    -0.707539003137    -0.583789255496    12.000000000000
         C           -0.000006123424     1.414965805524    -0.584322879017    12.000000000000
         C            2.456448784457     1.418327778612    -0.568571588526    12.000000000000
         C            0.000010857787    -1.414976607201    -0.574123321692    12.000000000000
         C           -1.225300918401     0.707545265418    -0.569206925603    12.000000000000
         C            2.456437785828    -1.418323412447    -0.586034412353    12.000000000000
         C           -0.000001302470     2.836800922715    -0.586726429151    12.000000000000
         C            3.681826727978     0.709317847435    -0.585685622555    12.000000000000
         C            2.455120079373     2.834223552923    -0.585788179516    12.000000000000
         C            3.681821135726    -0.709333947995    -0.569613138537    12.000000000000
         C           -1.225313568180    -0.707527624110    -0.582716494069    12.000000000000
         C            1.226699611710     3.543469375428    -0.569429106606    12.000000000000
         C            0.000004815365    -2.836782247802    -0.569275154071    12.000000000000
         C           -2.456436002341     1.418316809719    -0.569171529757    12.000000000000
         C            2.455123448287    -2.834230137155    -0.569765046904    12.000000000000
         C           -1.226714334082     3.543468955184    -0.569325773387    12.000000000000
         C            4.914517325709     1.427172763923    -0.579204939525    12.000000000000
         C            3.693150221984     3.542795183979    -0.579155139889    12.000000000000
         C           -2.456437569560    -1.418313389406    -0.586059450478    12.000000000000
         C            1.226704872451    -3.543474350473    -0.585399237356    12.000000000000
         C           -2.455125368000     2.834216554068    -0.585781803169    12.000000000000
         C            4.914524411290    -1.427187018510    -0.576232196791    12.000000000000
         C            1.221424644206     4.970133956694    -0.576093762531    12.000000000000
         C            4.893008259828     2.825187891460    -0.577988271167    12.000000000000
         C           -1.226696977981    -3.543471105643    -0.585132032946    12.000000000000
         C           -3.681818946018     0.709324858166    -0.585672942075    12.000000000000
         C            3.693147131658    -3.542801449957    -0.576114306230    12.000000000000
         C           -1.221432221486     4.970128189296    -0.575910267159    12.000000000000
         C            6.134771003434     0.680547838539    -0.578435164976    12.000000000000
         C            3.656788911118     4.972953135001    -0.578246502107    12.000000000000
         C           -2.455126877226    -2.834215201627    -0.570009404702    12.000000000000
         C           -3.681819148553    -0.709325812035    -0.569495516958    12.000000000000
         C            4.893012648421    -2.825200214198    -0.577377119271    12.000000000000
         C           -0.000001042605     5.650447257466    -0.577141575865    12.000000000000
         C            6.134775142840    -0.680554962641    -0.577169844460    12.000000000000
         C            2.478131513363     5.653576642765    -0.576957722457    12.000000000000
         C            1.221422435245    -4.970127163499    -0.578893259554    12.000000000000
         C           -3.693162353457     3.542796845626    -0.578989632430    12.000000000000
         C           -1.221428490437    -4.970118412162    -0.579006021387    12.000000000000
         C           -4.914521777434     1.427175338429    -0.579127994518    12.000000000000
         C            3.656787050187    -4.972955334806    -0.576796001573    12.000000000000
         C           -2.478138499598     5.653574313962    -0.576673197448    12.000000000000
         C           -3.693141708056    -3.542790327545    -0.576230432386    12.000000000000
         C           -4.914512452545    -1.427181108594    -0.576197499617    12.000000000000
         C           -0.000005978418    -5.650438395580    -0.577537079987    12.000000000000
         C           -4.893020453593     2.825188490353    -0.577998353027    12.000000000000
         C            2.478126023806    -5.653573652455    -0.577886602365    12.000000000000
         C           -3.656798679750     4.972956073475    -0.578069821732    12.000000000000
         C           -4.892999448349    -2.825191875626    -0.577531154969    12.000000000000
         C           -2.478128467575    -5.653566278573    -0.578161790012    12.000000000000
         C           -6.134770472823     0.680548657690    -0.578460716678    12.000000000000
         C           -3.656788802681    -4.972944131537    -0.577010289389    12.000000000000
         C           -6.134765012405    -0.680554024048    -0.577190320255    12.000000000000
         H            5.835288526324     3.369275786388    -0.573628945504     1.007825032230
         H            7.073859203255     1.228217140333    -0.577973521582     1.007825032230
         H            4.600663294682     5.512380693887    -0.577741301355     1.007825032230
         H            5.835283417813    -3.369306165295    -0.581831586586     1.007825032230
         H           -0.000012120798     6.738530565570    -0.581490820873     1.007825032230
         H            7.073861202338    -1.228227051310    -0.577678582554     1.007825032230
         H            2.473313762307     6.740684182828    -0.577424443387     1.007825032230
         H            4.600668521889    -5.512376237742    -0.577205998741     1.007825032230
         H           -2.473318650030     6.740681611040    -0.577123096762     1.007825032230
         H           -0.000010237720    -6.738528285018    -0.573007395002     1.007825032230
         H           -5.835301883836     3.369270841730    -0.573492923356     1.007825032230
         H            2.473307954339    -6.740685482995    -0.577316271940     1.007825032230
         H           -4.600674810700     5.512377918037    -0.577575973031     1.007825032230
         H           -5.835279476327    -3.369289072346    -0.582110892467     1.007825032230
         H           -2.473300316932    -6.740679186706    -0.577765588484     1.007825032230
         H           -7.073857736260     1.228220364274    -0.578057513063     1.007825032230
         H           -4.600673755577    -5.512362778353    -0.577378306764     1.007825032230
         H           -7.073856903901    -1.228220740543    -0.577773439021     1.007825032230

  Charge       = 0
  Multiplicity = 1
  Basis Set: JUN-CC-PVDZ
    Blend: JUN-CC-PVDZ
  Basis Set: (JUN-CC-PVDZ AUX)
    Blend: JUN-CC-PVDZ-JKFIT

    Orbital Energies [Eh]
    ---------------------

    Doubly Occupied:

       1A    -11.260641     2A    -11.260220     3A    -11.260168
       4A    -11.259488     5A    -11.259440     6A    -11.259286
       7A    -11.259065     8A    -11.259004     9A    -11.258972
      10A    -11.258673    11A    -11.258654    12A    -11.258578
      13A    -11.258517    14A    -11.258516    15A    -11.258514
      16A    -11.258479    17A    -11.258478    18A    -11.258459
      19A    -11.258453    20A    -11.258447    21A    -11.258436
      22A    -11.258368    23A    -11.258340    24A    -11.258075
      25A    -11.257367    26A    -11.257305    27A    -11.257305
      28A    -11.257174    29A    -11.257168    30A    -11.257087
      31A    -11.256460    32A    -11.256391    33A    -11.256389
      34A    -11.256284    35A    -11.256278    36A    -11.256234
      37A    -11.252331    38A    -11.252330    39A    -11.252328
      40A    -11.252326    41A    -11.252325    42A    -11.252323
      43A    -11.251449    44A    -11.251447    45A    -11.251443
      46A    -11.251441    47A    -11.251432    48A    -11.251429
      49A    -11.250893    50A    -11.250892    51A    -11.250889
      52A    -11.250887    53A    -11.250885    54A    -11.250884
      55A     -1.244123    56A     -1.219892    57A     -1.219871
      58A     -1.189611    59A     -1.189599    60A     -1.181005
      61A     -1.157624    62A     -1.149046    63A     -1.135556
      64A     -1.135548    65A     -1.113259    66A     -1.113251
      67A     -1.082494    68A     -1.082493    69A     -1.078664
      70A     -1.066044    71A     -1.066042    72A     -1.039465
      73A     -1.024342    74A     -1.021825    75A     -1.021791
      76A     -1.017794    77A     -1.012858    78A     -0.987088
      79A     -0.987042    80A     -0.961943    81A     -0.961894
      82A     -0.894356    83A     -0.894330    84A     -0.887997
      85A     -0.886255    86A     -0.886184    87A     -0.881460
      88A     -0.881421    89A     -0.861964    90A     -0.837472
      91A     -0.818276    92A     -0.816678    93A     -0.812203
      94A     -0.812191    95A     -0.794750    96A     -0.794743
      97A     -0.746690    98A     -0.744923    99A     -0.733483
     100A     -0.733464   101A     -0.732246   102A     -0.732224
     103A     -0.716559   104A     -0.699033   105A     -0.699032
     106A     -0.693646   107A     -0.693639   108A     -0.661294
     109A     -0.653167   110A     -0.651219   111A     -0.650315
     112A     -0.650311   113A     -0.639428   114A     -0.639421
     115A     -0.629778   116A     -0.627593   117A     -0.627566
     118A     -0.606501   119A     -0.605864   120A     -0.601728
     121A     -0.599793   122A     -0.599776   123A     -0.593704
     124A     -0.591281   125A     -0.591272   126A     -0.585338
     127A     -0.576452   128A     -0.576366   129A     -0.567385
     130A     -0.567372   131A     -0.566021   132A     -0.565995
     133A     -0.558785   134A     -0.554907   135A     -0.554903
     136A     -0.538658   137A     -0.538654   138A     -0.538227
     139A     -0.538225   140A     -0.529782   141A     -0.528208
     142A     -0.522933   143A     -0.522931   144A     -0.500567
     145A     -0.495650   146A     -0.493298   147A     -0.487879
     148A     -0.485139   149A     -0.481822   150A     -0.481813
     151A     -0.470416   152A     -0.470355   153A     -0.451087
     154A     -0.451003   155A     -0.439118   156A     -0.439110
     157A     -0.404795   158A     -0.404768   159A     -0.403427
     160A     -0.375469   161A     -0.375467   162A     -0.349172
     163A     -0.337642   164A     -0.336626   165A     -0.336538
     166A     -0.311140   167A     -0.298148   168A     -0.284390
     169A     -0.284349   170A     -0.224974   171A     -0.224897

  @DF-RHF Final Energy: -2055.89290340626030

   => Energetics <=

    Nuclear Repulsion Energy =           6452.5568002797781446
    One-Electron Energy =              -15636.4628779831400607
    Two-Electron Energy =                7128.0131742971025233
    Total Energy =                      -2055.8929034062603023
 Dipole X            :          0.0000675            0.0000112            0.0000787
 Dipole Y            :          0.0002295           -0.0000531            0.0001764
 Dipole Z            :        373.2890523         -373.2938922           -0.0048399
 Magnitude           :                                                    0.0048437

    SAPT Results
  --------------------------------------------------------------------------------------------------------
    Electrostatics                 11.12902009 [mEh]       6.98356554 [kcal/mol]      29.21923823 [kJ/mol]
      Elst10,r                     11.12902009 [mEh]       6.98356554 [kcal/mol]      29.21923823 [kJ/mol]

    Exchange                        0.12613260 [mEh]       0.07914940 [kcal/mol]       0.33116110 [kJ/mol]
      Exch10                        0.12613260 [mEh]       0.07914940 [kcal/mol]       0.33116110 [kJ/mol]
      Exch10(S^2)                   0.12613581 [mEh]       0.07915142 [kcal/mol]       0.33116954 [kJ/mol]

    Induction                      -6.57846561 [mEh]      -4.12804950 [kcal/mol]     -17.27175909 [kJ/mol]
      Ind20,r                      -6.66814767 [mEh]      -4.18432583 [kcal/mol]     -17.50721929 [kJ/mol]
      Exch-Ind20,r                  0.02619742 [mEh]       0.01643913 [kcal/mol]       0.06878131 [kJ/mol]
      delta HF,r (2)                0.06348463 [mEh]       0.03983721 [kcal/mol]       0.16667889 [kJ/mol]

    Dispersion                     -2.25254172 [mEh]      -1.41349127 [kcal/mol]      -5.91404747 [kJ/mol]
      Disp20                       -2.28792315 [mEh]      -1.43569345 [kcal/mol]      -6.00694141 [kJ/mol]
      Exch-Disp20                   0.03538143 [mEh]       0.02220218 [kcal/mol]       0.09289394 [kJ/mol]
      Disp20 (SS)                  -1.14396158 [mEh]      -0.71784673 [kcal/mol]      -3.00347070 [kJ/mol]
      Disp20 (OS)                  -1.14396158 [mEh]      -0.71784673 [kcal/mol]      -3.00347070 [kJ/mol]
      Exch-Disp20 (SS)              0.02432005 [mEh]       0.01526106 [kcal/mol]       0.06385228 [kJ/mol]
      Exch-Disp20 (OS)              0.01106138 [mEh]       0.00694112 [kcal/mol]       0.02904166 [kJ/mol]

  Total HF                          4.67668708 [mEh]       2.93466545 [kcal/mol]      12.27864024 [kJ/mol]
  Total SAPT0                       2.42414536 [mEh]       1.52117418 [kcal/mol]       6.36459277 [kJ/mol]

  Special recipe for scaled SAPT0 (see Manual):
    Electrostatics sSAPT0          11.12902009 [mEh]       6.98356554 [kcal/mol]      29.21923823 [kJ/mol]
    Exchange sSAPT0                 0.12613260 [mEh]       0.07914940 [kcal/mol]       0.33116110 [kJ/mol]
    Induction sSAPT0               -6.57846762 [mEh]      -4.12805075 [kcal/mol]     -17.27176435 [kJ/mol]
    Dispersion sSAPT0              -2.25254442 [mEh]      -1.41349296 [kcal/mol]      -5.91405456 [kJ/mol]
  Total sSAPT0                      2.42414066 [mEh]       1.52117123 [kcal/mol]       6.36458042 [kJ/mol]
  --------------------------------------------------------------------------------------------------------

*** Psi4 exiting successfully. Buy a developer a beer!
