                               Psi4 1.9 release

  ==> Input File <==

--------------------------------------------------------------------------
memory 32 GB # how much memory is available ! Depends on the nodes/cores !

molecule dimer {
# monomer A
-1 1    # Charge and multiplicity
B -0.000046  0.000337 2.399994
F -1.153597  0.000048 3.215641
F  1.153661 -0.000581 3.215641
F -0.000019 -1.153637 1.584360
F -0.000019  1.153978 1.584360
--
# monomer B
0 1     # Charge and multiplicity
C   1.22531237526482      0.70753866091955      0.00613762728373
C   1.22532433589282     -0.70753852257020     -0.00619318228664
C   -0.00000567409046      1.41496628609039     -0.00672680580738
C   2.45644923379077      1.41832825917820      0.00902448468363
C   0.00001130712078     -1.41497612663474      0.00347275151708
C   -1.22530046906674      0.70754574598412      0.00838914760619
C   2.45643823516184     -1.41832293188077     -0.00843833914343
C   -0.00000085313587      2.83680140328112     -0.00913035594137
C   3.68182717731192      0.70931832800114     -0.00808954934571
C   2.45512052870677      2.83422403348893     -0.00819210630633
C   3.68182158506039     -0.70933346742900      0.00798293467272
C   -1.22531311884624     -0.70752714354401     -0.00512042085974
C   1.22670006104402      3.54346985599427      0.00816696660346
C   0.00000526469929     -2.83678176723568      0.00832091913869
C   -2.45643555300670      1.41831729028492      0.00842454345199
C   2.45512389762097     -2.83422965658853      0.00783102630520
C   -1.22671388474763      3.54346943575023      0.00827029982280
C   4.91451777504333      1.42717324448953     -0.00160886631602
C   3.69315067131765      3.54279566454522     -0.00155906667985
C   -2.45643712022637     -1.41831290883911     -0.00846337726810
C   1.22670532178455     -3.54347386990643     -0.00780316414624
C   -2.45512491866593      2.83421703463423     -0.00818572995999
C   4.91452486062398     -1.42718653794377      0.00136387641845
C   1.22142509354026      4.97013443726031      0.00150231067809
C   4.89300870916237      2.82518837202648     -0.00039219795739
C   -1.22669652864725     -3.54347062507680     -0.00753595973677
C   -3.68181849668397      0.70932533873199     -0.00807686886569
C   3.69314758099218     -3.54280096939050      0.00148176697923
C   -1.22143177215231      4.97012866986289      0.00168580605083
C   6.13477145276790      0.68054831910577     -0.00083909176631
C   3.65678936045204      4.97295361556775     -0.00065042889723
C   -2.45512642789169     -2.83421472106065      0.00758666850712
C   -3.68181869921921     -0.70932533146830      0.00810055625144
C   4.89301309775526     -2.82519973363176      0.00021895393805
C   -0.00000059327114      5.65044773803267      0.00045449734393
C   6.13477559217374     -0.68055448207492      0.00042622874941
C   2.47813196269732      5.65357712333155      0.00063835075260
C   1.22142288457925     -4.97012668293268     -0.00129718634452
C   -3.69316190412301      3.54279732619245     -0.00139355922051
C   -1.22142804110313     -4.97011793159564     -0.00140994817719
C   -4.91452132810043      1.42717581899491     -0.00153192130862
C   3.65678749952045     -4.97295485423912      0.00080007163680
C   -2.47813805026426      5.65357479452875      0.00092287576113
C   -3.69314125872231     -3.54278984697859      0.00136564082345
C   -4.91451200321153     -1.42718062802730      0.00139857359209
C   -0.00000552908399     -5.65043791501335      0.00005899322272
C   -4.89302000425900      2.82518897091939     -0.00040227981744
C   2.47812647313991     -5.65357317188818     -0.00029052915548
C   -3.65679823041642      4.97295655404175     -0.00047374852278
C   -4.89299899901461     -2.82519139505969      0.00006491824035
C   -2.47812801824129     -5.65356579800621     -0.00056571680280
C   -6.13477002348955      0.68054913825639     -0.00086464346868
C   -3.65678835334731     -4.97294365097028      0.00058578382008
C   -6.13476456307132     -0.68055354348201      0.00040575295444
H   5.83528897565761      3.36927626695423      0.00396712770529
H   7.07385965258860      1.22821762089947     -0.00037744837300
H   4.60066374401555      5.51238117445323     -0.00014522814529
H   5.83528386714679     -3.36930568472863     -0.00423551337640
H   -0.00001167146422      6.73853104613662     -0.00389474766392
H   7.07386165167227     -1.22822657074368     -0.00008250934481
H   2.47331421164041      6.74068466339473      0.00017162982210
H   4.60066897122302     -5.51237575717576      0.00039007446835
H   -2.47331820069565      6.74068209160650      0.00047297644710
H   -0.00000978838621     -6.73852780445195      0.00458867820736
H   -5.83530143450167      3.36927132229595      0.00410314985360
H   2.47330840367253     -6.74068500242887      0.00027980126949
H   -4.60067436136587      5.51237839860371      0.00002010017831
H   -5.83527902699321     -3.36928859177951     -0.00451481925734
H   -2.47329986759855     -6.74067870613986     -0.00016951527498
H   -7.07385728692578      1.22822084484047     -0.00046143985387
H   -4.60067330624313     -5.51236229778631      0.00021776644566
H   -7.07385645456741     -1.22822025997701     -0.00017736581114

    units angstrom      # Angstroms are the default
    no_reorient         # Geometry fixed, default
    symmetry c1         # C1 symmetry, default
}

set {
    scf_type DF         # Density fitting, faster than exact integrals
    freeze_core True    # Freeze core electrons
    basis jun-cc-pVDZ   # Jun-cc-pVDZ basis set, recommended for sSAPT0 in https://doi.org/10.1063/1.4867135
}

energy('ssapt0')        # Compute sSAPT0 energy, includes also SAPT0
--------------------------------------------------------------------------

  //              Dimer HF             //
    Molecular point group: c1
  Charge       = -1
  Multiplicity = 1
  Basis Set: JUN-CC-PVDZ
    Blend: JUN-CC-PVDZ
  Basis Set: (JUN-CC-PVDZ AUX)
    Blend: JUN-CC-PVDZ-JKFIT
  @DF-RHF Final Energy: -2478.31466189016692
    Total Energy =                      -2478.3146618901664624
 Dipole X            :         -0.0010448           -0.0000160           -0.0010608
 Dipole Y            :         -0.0207128           -0.0001716           -0.0208844
 Dipole Z            :         13.1310992          -14.7126259           -1.5815267
 Magnitude           :                                                    1.5816649
  //            Monomer A HF           //
    Molecular point group: c1
  Multiplicity = 1
  Basis Set: JUN-CC-PVDZ
    Blend: JUN-CC-PVDZ
  Basis Set: (JUN-CC-PVDZ AUX)
    Blend: JUN-CC-PVDZ-JKFIT
  @DF-RHF Final Energy:  -422.77782897993040
    Total Energy =                       -422.7778289799304048
  //            Monomer B HF           //
    Molecular point group: c1

    Geometry (in Angstrom), charge = 0, multiplicity = 1:

       Center              X                  Y                   Z               Mass
    ------------   -----------------  -----------------  -----------------  -----------------
      Gh(B)          -0.000046449334     0.000336519434     2.122749063270    11.009305360000
      Gh(F)          -1.153597449334     0.000047519434     2.938396063270    18.998403162730
      Gh(F)           1.153660550666    -0.000581480566     2.938396063270    18.998403162730
      Gh(F)          -0.000019449334    -1.153637480566     1.307115063270    18.998403162730
      Gh(F)          -0.000019449334     1.153977519434     1.307115063270    18.998403162730
         C            1.225311925931     0.707538180353    -0.271107309447    12.000000000000
         C            1.225323886559    -0.707539003137    -0.283438119017    12.000000000000
         C           -0.000006123424     1.414965805524    -0.283971742538    12.000000000000
         C            2.456448784457     1.418327778612    -0.268220452047    12.000000000000
         C            0.000010857787    -1.414976607201    -0.273772185213    12.000000000000
         C           -1.225300918401     0.707545265418    -0.268855789124    12.000000000000
         C            2.456437785828    -1.418323412447    -0.285683275874    12.000000000000
         C           -0.000001302470     2.836800922715    -0.286375292672    12.000000000000
         C            3.681826727978     0.709317847435    -0.285334486076    12.000000000000
         C            2.455120079373     2.834223552923    -0.285437043037    12.000000000000
         C            3.681821135726    -0.709333947995    -0.269262002058    12.000000000000
         C           -1.225313568180    -0.707527624110    -0.282365357590    12.000000000000
         C            1.226699611710     3.543469375428    -0.269077970127    12.000000000000
         C            0.000004815365    -2.836782247802    -0.268924017592    12.000000000000
         C           -2.456436002341     1.418316809719    -0.268820393278    12.000000000000
         C            2.455123448287    -2.834230137155    -0.269413910425    12.000000000000
         C           -1.226714334082     3.543468955184    -0.268974636908    12.000000000000
         C            4.914517325709     1.427172763923    -0.278853803046    12.000000000000
         C            3.693150221984     3.542795183979    -0.278804003410    12.000000000000
         C           -2.456437569560    -1.418313389406    -0.285708313999    12.000000000000
         C            1.226704872451    -3.543474350473    -0.285048100877    12.000000000000
         C           -2.455125368000     2.834216554068    -0.285430666690    12.000000000000
         C            4.914524411290    -1.427187018510    -0.275881060312    12.000000000000
         C            1.221424644206     4.970133956694    -0.275742626052    12.000000000000
         C            4.893008259828     2.825187891460    -0.277637134688    12.000000000000
         C           -1.226696977981    -3.543471105643    -0.284780896467    12.000000000000
         C           -3.681818946018     0.709324858166    -0.285321805596    12.000000000000
         C            3.693147131658    -3.542801449957    -0.275763169751    12.000000000000
         C           -1.221432221486     4.970128189296    -0.275559130680    12.000000000000
         C            6.134771003434     0.680547838539    -0.278084028497    12.000000000000
         C            3.656788911118     4.972953135001    -0.277895365628    12.000000000000
         C           -2.455126877226    -2.834215201627    -0.269658268223    12.000000000000
         C           -3.681819148553    -0.709325812035    -0.269144380479    12.000000000000
         C            4.893012648421    -2.825200214198    -0.277025982792    12.000000000000
         C           -0.000001042605     5.650447257466    -0.276790439386    12.000000000000
         C            6.134775142840    -0.680554962641    -0.276818707981    12.000000000000
         C            2.478131513363     5.653576642765    -0.276606585978    12.000000000000
         C            1.221422435245    -4.970127163499    -0.278542123075    12.000000000000
         C           -3.693162353457     3.542796845626    -0.278638495951    12.000000000000
         C           -1.221428490437    -4.970118412162    -0.278654884908    12.000000000000
         C           -4.914521777434     1.427175338429    -0.278776858039    12.000000000000
         C            3.656787050187    -4.972955334806    -0.276444865094    12.000000000000
         C           -2.478138499598     5.653574313962    -0.276322060969    12.000000000000
         C           -3.693141708056    -3.542790327545    -0.275879295907    12.000000000000
         C           -4.914512452545    -1.427181108594    -0.275846363138    12.000000000000
         C           -0.000005978418    -5.650438395580    -0.277185943508    12.000000000000
         C           -4.893020453593     2.825188490353    -0.277647216548    12.000000000000
         C            2.478126023806    -5.653573652455    -0.277535465886    12.000000000000
         C           -3.656798679750     4.972956073475    -0.277718685253    12.000000000000
         C           -4.892999448349    -2.825191875626    -0.277180018490    12.000000000000
         C           -2.478128467575    -5.653566278573    -0.277810653533    12.000000000000
         C           -6.134770472823     0.680548657690    -0.278109580199    12.000000000000
         C           -3.656788802681    -4.972944131537    -0.276659152910    12.000000000000
         C           -6.134765012405    -0.680554024048    -0.276839183776    12.000000000000
         H            5.835288526324     3.369275786388    -0.273277809025     1.007825032230
         H            7.073859203255     1.228217140333    -0.277622385103     1.007825032230
         H            4.600663294682     5.512380693887    -0.277390164876     1.007825032230
         H            5.835283417813    -3.369306165295    -0.281480450107     1.007825032230
         H           -0.000012120798     6.738530565570    -0.281139684394     1.007825032230
         H            7.073861202338    -1.228227051310    -0.277327446075     1.007825032230
         H            2.473313762307     6.740684182828    -0.277073306908     1.007825032230
         H            4.600668521889    -5.512376237742    -0.276854862262     1.007825032230
         H           -2.473318650030     6.740681611040    -0.276771960283     1.007825032230
         H           -0.000010237720    -6.738528285018    -0.272656258523     1.007825032230
         H           -5.835301883836     3.369270841730    -0.273141786877     1.007825032230
         H            2.473307954339    -6.740685482995    -0.276965135461     1.007825032230
         H           -4.600674810700     5.512377918037    -0.277224836552     1.007825032230
         H           -5.835279476327    -3.369289072346    -0.281759755988     1.007825032230
         H           -2.473300316932    -6.740679186706    -0.277414452005     1.007825032230
         H           -7.073857736260     1.228220364274    -0.277706376584     1.007825032230
         H           -4.600673755577    -5.512362778353    -0.277027170285     1.007825032230
         H           -7.073856903901    -1.228220740543    -0.277422302542     1.007825032230

  Charge       = 0
  Multiplicity = 1
  Basis Set: JUN-CC-PVDZ
    Blend: JUN-CC-PVDZ
  Basis Set: (JUN-CC-PVDZ AUX)
    Blend: JUN-CC-PVDZ-JKFIT

    Orbital Energies [Eh]
    ---------------------

    Doubly Occupied:

       1A    -11.260698     2A    -11.260322     3A    -11.260148
       4A    -11.259505     5A    -11.259383     6A    -11.259239
       7A    -11.258992     8A    -11.258950     9A    -11.258886
      10A    -11.258639    11A    -11.258577    12A    -11.258476
      13A    -11.258433    14A    -11.258430    15A    -11.258415
      16A    -11.258393    17A    -11.258365    18A    -11.258356
      19A    -11.258353    20A    -11.258349    21A    -11.258347
      22A    -11.258310    23A    -11.258271    24A    -11.258075
      25A    -11.257249    26A    -11.257203    27A    -11.257171
      28A    -11.257056    29A    -11.257053    30A    -11.256973
      31A    -11.256338    32A    -11.256282    33A    -11.256254
      34A    -11.256169    35A    -11.256150    36A    -11.256113
      37A    -11.252265    38A    -11.252264    39A    -11.252247
      40A    -11.252246    41A    -11.252244    42A    -11.252243
      43A    -11.251351    44A    -11.251350    45A    -11.251344
      46A    -11.251342    47A    -11.251306    48A    -11.251304
      49A    -11.250826    50A    -11.250825    51A    -11.250808
      52A    -11.250808    53A    -11.250805    54A    -11.250804
      55A     -1.243926    56A     -1.219729    57A     -1.219692
      58A     -1.189468    59A     -1.189448    60A     -1.180825
      61A     -1.157504    62A     -1.148903    63A     -1.135381
      64A     -1.135362    65A     -1.113138    66A     -1.113127
      67A     -1.082324    68A     -1.082322    69A     -1.078494
      70A     -1.065932    71A     -1.065926    72A     -1.039322
      73A     -1.024145    74A     -1.021629    75A     -1.021601
      76A     -1.017680    77A     -1.012749    78A     -0.986919
      79A     -0.986874    80A     -0.961812    81A     -0.961770
      82A     -0.894224    83A     -0.894202    84A     -0.887815
      85A     -0.886059    86A     -0.885997    87A     -0.881295
      88A     -0.881251    89A     -0.861828    90A     -0.837379
      91A     -0.818132    92A     -0.816490    93A     -0.812041
      94A     -0.812023    95A     -0.794626    96A     -0.794620
      97A     -0.746518    98A     -0.744755    99A     -0.733299
     100A     -0.733288   101A     -0.732120   102A     -0.732092
     103A     -0.716406   104A     -0.698906   105A     -0.698896
     106A     -0.693490   107A     -0.693488   108A     -0.661162
     109A     -0.652978   110A     -0.651027   111A     -0.650198
     112A     -0.650193   113A     -0.639302   114A     -0.639294
     115A     -0.629622   116A     -0.627429   117A     -0.627401
     118A     -0.606504   119A     -0.605786   120A     -0.601561
     121A     -0.599650   122A     -0.599634   123A     -0.593556
     124A     -0.591078   125A     -0.591065   126A     -0.585242
     127A     -0.576387   128A     -0.576359   129A     -0.567276
     130A     -0.567264   131A     -0.565855   132A     -0.565825
     133A     -0.558604   134A     -0.554775   135A     -0.554772
     136A     -0.538534   137A     -0.538532   138A     -0.538155
     139A     -0.538136   140A     -0.529647   141A     -0.528202
     142A     -0.522796   143A     -0.522794   144A     -0.500442
     145A     -0.495558   146A     -0.493170   147A     -0.487805
     148A     -0.484986   149A     -0.481669   150A     -0.481663
     151A     -0.470381   152A     -0.470315   153A     -0.450906
     154A     -0.450816   155A     -0.439034   156A     -0.439033
     157A     -0.404694   158A     -0.404653   159A     -0.403322
     160A     -0.375400   161A     -0.375391   162A     -0.349079
     163A     -0.337523   164A     -0.336529   165A     -0.336432
     166A     -0.311019   167A     -0.298090   168A     -0.284248
     169A     -0.284203   170A     -0.224853   171A     -0.224776

  @DF-RHF Final Energy: -2055.89509826118956

   => Energetics <=

    Nuclear Repulsion Energy =           6452.5568002797781446
    One-Electron Energy =              -15636.5075130613549845
    Two-Electron Energy =                7128.0556145203881897
    Total Energy =                      -2055.8950982611895597
 Dipole X            :          0.0000440            0.0000112            0.0000552
 Dipole Y            :          0.0001378           -0.0000531            0.0000847
 Dipole Z            :        179.1862807         -179.1810570            0.0052237
 Magnitude           :                                                    0.0052246

    SAPT Results
  --------------------------------------------------------------------------------------------------------
    Electrostatics               -366.65468872 [mEh]    -230.07929078 [kcal/mol]    -962.65175262 [kJ/mol]
      Elst10,r                   -366.65468872 [mEh]    -230.07929078 [kcal/mol]    -962.65175262 [kJ/mol]

    Exchange                      844.17719867 [mEh]     529.72918971 [kcal/mol]    2216.38692975 [kJ/mol]
      Exch10                      844.17719867 [mEh]     529.72918971 [kcal/mol]    2216.38692975 [kJ/mol]
      Exch10(S^2)                 758.89965788 [mEh]     476.21672497 [kcal/mol]    1992.49077726 [kJ/mol]

    Induction                    -119.25715899 [mEh]     -74.83499708 [kcal/mol]    -313.10962779 [kJ/mol]
      Ind20,r                    -600.90861819 [mEh]    -377.07585079 [kcal/mol]   -1577.68535970 [kJ/mol]
      Exch-Ind20,r                428.79678138 [mEh]     269.07404264 [kcal/mol]    1125.80579442 [kJ/mol]
      delta HF,r (2)               52.85467782 [mEh]      33.16681106 [kcal/mol]     138.76993749 [kJ/mol]

    Dispersion                    -78.29816810 [mEh]     -49.13284226 [kcal/mol]    -205.57181203 [kJ/mol]
      Disp20                     -126.06198351 [mEh]     -79.10508893 [kcal/mol]    -330.97569210 [kJ/mol]
      Exch-Disp20                  47.76381541 [mEh]      29.97224667 [kcal/mol]     125.40388007 [kJ/mol]
      Disp20 (SS)                 -63.03099175 [mEh]     -39.55254447 [kcal/mol]    -165.48784605 [kJ/mol]
      Disp20 (OS)                 -63.03099175 [mEh]     -39.55254447 [kcal/mol]    -165.48784605 [kJ/mol]
      Exch-Disp20 (SS)             22.41160340 [mEh]      14.06349346 [kcal/mol]      58.84165663 [kJ/mol]
      Exch-Disp20 (OS)             25.35221200 [mEh]      15.90875321 [kcal/mol]      66.56222344 [kJ/mol]

  Total HF                        358.26535095 [mEh]     224.81490185 [kcal/mol]     940.62554934 [kJ/mol]
  Total SAPT0                     279.96718285 [mEh]     175.68205959 [kcal/mol]     735.05373731 [kJ/mol]

  Special recipe for scaled SAPT0 (see Manual):
    Electrostatics sSAPT0        -366.65468872 [mEh]    -230.07929078 [kcal/mol]    -962.65175262 [kJ/mol]
    Exchange sSAPT0               844.17719867 [mEh]     529.72918971 [kcal/mol]    2216.38692975 [kJ/mol]
    Induction sSAPT0               42.14618657 [mEh]      26.44713136 [kcal/mol]     110.65479759 [kJ/mol]
    Dispersion sSAPT0             -60.31939602 [mEh]     -37.85099245 [kcal/mol]    -158.36855242 [kJ/mol]
  Total sSAPT0                    459.34930049 [mEh]     288.24603783 [kcal/mol]    1206.02142229 [kJ/mol]
  --------------------------------------------------------------------------------------------------------

*** Psi4 exiting successfully. Buy a developer a beer!
