                               Psi4 1.9 release

  ==> Input File <==

--------------------------------------------------------------------------
memory 47 GB # how much memory is available ! Depends on the nodes/cores !

molecule dimer {
# monomer A
-1 1    # Charge and multiplicity
B -1.977592e-04  2.742729e-04 6.200034
F  1.123153e-16  1.430594e-17 7.612819
F  1.147860e+00  6.757812e-01 5.728893
F  1.191806e-02 -1.332011e+00 5.729095
F -1.159666e+00  6.560735e-01 5.729174
--
# monomer B
0 1     # Charge and multiplicity
C   -3.66844126402057      7.80375217008252      0.00190004133558
C   -4.84759871934653      7.13124183134024     -0.00046653359696
C   -4.89495929917518      5.69633040353158     -0.00103944469517
C   -3.65374067877320      4.98073034095895      0.00662099703436
C   -2.40942512149445      7.11398103667468      0.00209438359570
C   -2.42547734410473      5.68112195090346     -0.00491050527438
C   -1.19474401643570      7.78614419430947      0.00356656413763
C   0.03795902893699      7.09942164575698      0.00139585983271
C   0.03033258741920      5.66948955970466     -0.00408752508301
C   -1.20098450790502      4.96927034791531      0.00488220885047
C   1.27795782581485      7.77285944319479      0.00277170839332
C   2.48535808472416      7.08769688523756      0.00049722048857
C   2.48612868491717      5.65477081024076     -0.00644052849921
C   1.25408291964399      4.95607811366431      0.00518741308898
C   3.75171459140595      7.76391215098033      0.00062407186893
C   4.92356605618520      7.07878077698995     -0.00143240883900
C   4.95560727132542      5.64344746336949     -0.00159282164606
C   3.70680153420475      4.94121020833308      0.00349873852374
H   -3.65852113775815      8.89082741913536      0.00358502958574
H   -1.18921332975660      8.87412108735996      0.00753844057883
H   1.28429423888630      8.86083343548850      0.00693053253426
H   3.75354208679975      8.85103527897216      0.00214659618464
H   5.86995870320703      7.61379483465560     -0.00235777588134
H   -5.78823170750226      7.67630221293400     -0.00202638095293
C   -6.09197395869619      4.99326001364347     -0.00291168518608
C   -6.12866148031747      3.58258016879823     -0.00171050815740
C   -3.66457974004527      3.56418217974434     -0.00463560277484
C   -4.89429820469869      2.86108077590057      0.00453338221034
C   -2.43733499489796      2.84761165708481      0.00719617576166
C   -1.20922785759670      3.54788693497833     -0.00648285103018
C   1.24714157216223      3.53468075142962     -0.00729145743546
C   0.01517603956900      2.83311183930540      0.00439272578912
C   2.46764517244071      2.82128997725533      0.00449278391269
C   3.70254947457969      3.52466015442405     -0.00899517692985
C   6.14498038638375      4.92757236613191     -0.00282626685777
C   6.16658835886151      3.51658447594213     -0.00065971342101
C   4.92460995845939      2.80840792535402      0.00587903281610
H   7.08990550964105      5.46688776622306     -0.00658814770723
H   -7.03104175110130      5.54268795285765     -0.00714490013730
C   -7.33969804112295      2.85841153457957     -0.00333767559888
C   -7.36488195805880      1.47032337158330     -0.00157213747140
C   -4.90350460894690      1.44442681216000     -0.00628840166334
C   -6.13225715261081      0.73993935705394      0.00600164231964
C   -3.67687480051673      0.72669714267312      0.00433931473643
C   -2.44565658606518      1.42964113326212     -0.00597039546461
C   -1.22360068130162      0.71532450163492      0.00545886906656
C   0.00763786931376      1.41738314923765      0.00392452278437
C   1.23121980774686      0.70211669058719     -0.01490206287210
C   2.46082110053113      1.40329203612573      0.00460244601878
C   3.68443025419614      0.68719842821222      0.00377365974158
C   4.91870890153864      1.39173456118907     -0.00862816189375
C   7.36980207796101      2.77948220318441     -0.00242013321349
C   7.38016266612146      1.39121750785509     -0.00087345036788
C   6.13979953912259      0.67411862320065      0.00545489144369
H   -8.27919079934664      3.40711804112415     -0.00763522772059
H   8.31511347147953      3.31811809662368     -0.00663070901292
C   -8.59175593758115      0.72483255304480     -0.00123170985383
C   -8.59902460370342     -0.63263980622873      0.00089141472904
C   -6.13981313911873     -0.67413663715361     -0.00609792660607
C   -7.38018411213749     -1.39126618958160      0.00131813493501
C   -4.91868448025621     -1.39175501803000      0.00624257154343
C   -3.68443829568458     -0.68723731573599     -0.00478966852105
C   -2.46081704024768     -1.40334517882457      0.00575341766833
C   -1.23116201232071     -0.70217386488055     -0.00636696112346
C   -0.00756962538737     -1.41741884941102      0.00108956317991
C   1.22364771588843     -0.71527537726392      0.01109518512883
C   2.44567064933149     -1.42964328900682     -0.00065482763106
C   3.67686670284649     -0.72670743155550     -0.00479541202602
C   6.13224884641929     -0.73997883984993     -0.00632338623858
C   4.90351914550401     -1.44445752054090      0.00751768830159
C   8.59901484869081      0.63260386666793     -0.00101133422380
C   8.59174548810050     -0.72485086719319      0.00072504603735
C   7.36486276438985     -1.47033266560598      0.00049486934466
H   -9.52830597181814      1.27684744919284     -0.00270163681798
H   9.54141097460619      1.17457248844457     -0.00206336648518
C   -7.36983790976868     -2.77954514593389      0.00312634335708
C   -4.92459910905015     -2.80843725734101     -0.00460528907921
C   -6.16662249566744     -3.51665219282533      0.00169655107992
C   -3.70251035970491     -3.52468154912026      0.00571878010666
C   -2.46764698511392     -2.82132596280400     -0.00632585824990
C   -0.01513347410770     -2.83314164539971     -0.00604426974092
C   -1.24712184122656     -3.53473217556300      0.00551968366725
C   1.20924506964357     -3.54791467864352      0.00805871345849
C   2.43733602215464     -2.84764173817541     -0.00608104485234
C   4.89430234377080     -2.86112296828604     -0.00526030478103
C   3.66461525504104     -3.56421984553201      0.00761911515957
C   6.12863901474565     -3.58258405771778      0.00096495711699
C   7.33967266469532     -2.85841330737039      0.00248018319869
H   -9.54144911125902     -1.17456346666430      0.00226083090216
H   9.52826186807155     -1.27691907390448      0.00197485379837
H   -8.31516504384864     -3.31814985321231      0.00729857188773
H   8.27915514249207     -3.40714078989363      0.00681973918158
C   -6.14499418870218     -4.92764727278338      0.00302254913999
C   -3.70678334799751     -4.94126171411716     -0.00679841894792
C   -4.95559005800169     -5.64349397349412      0.00116871569699
C   -2.48612132622665     -5.65478557440947      0.00614125209662
C   -1.25405833548005     -4.95612205000132     -0.00503435388927
C   1.20101257386816     -4.96928038819302     -0.00385322963129
C   -0.03033667441341     -5.66952030313900      0.00398997003238
C   3.65375010132847     -4.98074377541453     -0.00309522988330
C   2.42549269587528     -5.68117463552727      0.00628170066869
C   6.09196561781097     -4.99325796338655      0.00325918379042
C   4.89497644461045     -5.69634842095790      0.00202298796027
H   -7.08989238804069     -5.46699984223871      0.00742531082125
H   7.03105520920009     -5.54265853633254      0.00683896355417
C   -4.92354532219813     -7.07882109967734      0.00061394679214
C   -2.48534208823777     -7.08772807792913     -0.00189594564379
C   -3.75168589177895     -7.76394715763627     -0.00170126671874
C   -0.03794895698805     -7.09946487446944     -0.00168022049625
C   -1.27795610040136     -7.77290438466689     -0.00366491325785
C   2.40944432072629     -7.11402201200282     -0.00081701968533
C   1.19474993715296     -7.78618536556242     -0.00296931056689
C   4.84762105249800     -7.13126211057943      0.00168979497423
C   3.66847160587561     -7.80378799294376     -0.00065863938960
H   -5.86994035041618     -7.61383059804164      0.00215798365757
H   5.78824962538815     -7.67633218931421      0.00281691445618
H   -3.75352693944918     -8.85107156923607     -0.00353718114765
H   -1.28430440589466     -8.86087539249706     -0.00809229711623
H   1.18922157469537     -8.87416062058945     -0.00706194725726
H   3.65854661482387     -8.89086063405326     -0.00231318081200

    units angstrom      # Angstroms are the default
    no_reorient         # Geometry fixed, default
    symmetry c1         # C1 symmetry, default
}

set {
    scf_type DF         # Density fitting, faster than exact integrals
    freeze_core True    # Freeze core electrons
    basis jun-cc-pVDZ   # Jun-cc-pVDZ basis set, recommended for sSAPT0 in https://doi.org/10.1063/1.4867135
}

energy('ssapt0')        # Compute sSAPT0 energy, includes also SAPT0
--------------------------------------------------------------------------

  //              Dimer HF             //
    Molecular point group: c1
  Charge       = -1
  Multiplicity = 1
  Basis Set: JUN-CC-PVDZ
    Blend: JUN-CC-PVDZ
  Basis Set: (JUN-CC-PVDZ AUX)
    Blend: JUN-CC-PVDZ-JKFIT
  @DF-RHF Final Energy: -4073.10431846680649
    Total Energy =                      -4073.1043184668051254
 Dipole X            :         -0.0005078           -0.0000548           -0.0005626
 Dipole Y            :          0.0010366           -0.0002464            0.0007902
 Dipole Z            :         27.0587443          -36.8974848           -9.8387404
 Magnitude           :                                                    9.8387405
  //            Monomer A HF           //
    Molecular point group: c1
  Multiplicity = 1
  Basis Set: JUN-CC-PVDZ
    Blend: JUN-CC-PVDZ
  Basis Set: (JUN-CC-PVDZ AUX)
    Blend: JUN-CC-PVDZ-JKFIT
  @DF-RHF Final Energy:  -422.77154575130317
    Total Energy =                       -422.7715457513031652
  //            Monomer B HF           //
    Molecular point group: c1

    Geometry (in Angstrom), charge = 0, multiplicity = 1:

       Center              X                  Y                   Z               Mass
    ------------   -----------------  -----------------  -----------------  -----------------
      Gh(B)          -0.000201921932     0.000288800891     5.773002639647    11.009305360000
      Gh(F)          -0.000004162732     0.000014527991     7.185787639647    18.998403162730
      Gh(F)           1.147855837268     0.675795727991     5.301861639647    18.998403162730
      Gh(F)           0.011913897268    -1.331996472009     5.302063639647    18.998403162730
      Gh(F)          -1.159670162732     0.656088027991     5.302142639647    18.998403162730
         C           -3.668445426752     7.803766698073    -0.425131319018    12.000000000000
         C           -4.847602882078     7.131256359331    -0.427497893950    12.000000000000
         C           -4.894963461907     5.696344931522    -0.428070805049    12.000000000000
         C           -3.653744841505     4.980744868950    -0.420410363319    12.000000000000
         C           -2.409429284226     7.113995564665    -0.424936976758    12.000000000000
         C           -2.425481506836     5.681136478894    -0.431941865628    12.000000000000
         C           -1.194748179167     7.786158722300    -0.423464796216    12.000000000000
         C            0.037954866205     7.099436173748    -0.425635500521    12.000000000000
         C            0.030328424687     5.669504087695    -0.431118885436    12.000000000000
         C           -1.200988670637     4.969284875906    -0.422149151503    12.000000000000
         C            1.277953663083     7.772873971185    -0.424259651960    12.000000000000
         C            2.485353921992     7.087711413228    -0.426534139865    12.000000000000
         C            2.486124522185     5.654785338231    -0.433471888853    12.000000000000
         C            1.254078756912     4.956092641655    -0.421843947264    12.000000000000
         C            3.751710428674     7.763926678971    -0.426407288484    12.000000000000
         C            4.923561893453     7.078795304981    -0.428463769192    12.000000000000
         C            4.955603108594     5.643461991360    -0.428624181999    12.000000000000
         C            3.706797371473     4.941224736324    -0.423532621830    12.000000000000
         H           -3.658525300490     8.890841947126    -0.423446330768     1.007825032230
         H           -1.189217492488     8.874135615351    -0.419492919775     1.007825032230
         H            1.284290076155     8.860847963479    -0.420100827819     1.007825032230
         H            3.753537924068     8.851049806963    -0.424884764169     1.007825032230
         H            5.869954540475     7.613809362646    -0.429389136235     1.007825032230
         H           -5.788235870234     7.676316740925    -0.429057741306     1.007825032230
         C           -6.091978121428     4.993274541634    -0.429943045539    12.000000000000
         C           -6.128665643049     3.582594696789    -0.428741868511    12.000000000000
         C           -3.664583902777     3.564196707735    -0.431666963128    12.000000000000
         C           -4.894302367430     2.861095303891    -0.422497978143    12.000000000000
         C           -2.437339157630     2.847626185075    -0.419835184592    12.000000000000
         C           -1.209232020328     3.547901462969    -0.433514211384    12.000000000000
         C            1.247137409430     3.534695279420    -0.434322817789    12.000000000000
         C            0.015171876837     2.833126367296    -0.422638634564    12.000000000000
         C            2.467641009709     2.821304505246    -0.422538576441    12.000000000000
         C            3.702545311848     3.524674682415    -0.436026537283    12.000000000000
         C            6.144976223652     4.927586894122    -0.429857627211    12.000000000000
         C            6.166584196130     3.516599003933    -0.427691073774    12.000000000000
         C            4.924605795728     2.808422453345    -0.421152327537    12.000000000000
         H            7.089901346909     5.466902294214    -0.433619508061     1.007825032230
         H           -7.031045913833     5.542702480848    -0.434176260491     1.007825032230
         C           -7.339702203855     2.858426062570    -0.430369035952    12.000000000000
         C           -7.364886120791     1.470337899574    -0.428603497825    12.000000000000
         C           -4.903508771679     1.444441340151    -0.433319762017    12.000000000000
         C           -6.132261315343     0.739953885044    -0.421029718034    12.000000000000
         C           -3.676878963248     0.726711670664    -0.422692045617    12.000000000000
         C           -2.445660748797     1.429655661253    -0.433001755818    12.000000000000
         C           -1.223604844033     0.715339029625    -0.421572491287    12.000000000000
         C            0.007633706582     1.417397677228    -0.423106837569    12.000000000000
         C            1.231215645015     0.702131218578    -0.441933423226    12.000000000000
         C            2.460816937799     1.403306564116    -0.422428914335    12.000000000000
         C            3.684426091464     0.687212956203    -0.423257700612    12.000000000000
         C            4.918704738807     1.391749089180    -0.435659522247    12.000000000000
         C            7.369797915229     2.779496731175    -0.429451493567    12.000000000000
         C            7.380158503390     1.391232035846    -0.427904810721    12.000000000000
         C            6.139795376391     0.674133151191    -0.421576468910    12.000000000000
         H           -8.279194962078     3.407132569115    -0.434666588074     1.007825032230
         H            8.315109308748     3.318132624614    -0.433662069366     1.007825032230
         C           -8.591760100313     0.724847081035    -0.428263070207    12.000000000000
         C           -8.599028766435    -0.632625278238    -0.426139945624    12.000000000000
         C           -6.139817301850    -0.674122109163    -0.433129286959    12.000000000000
         C           -7.380188274869    -1.391251661591    -0.425713225418    12.000000000000
         C           -4.918688642988    -1.391740490039    -0.420788788810    12.000000000000
         C           -3.684442458416    -0.687222787745    -0.431821028874    12.000000000000
         C           -2.460821202979    -1.403330650834    -0.421277942685    12.000000000000
         C           -1.231166175052    -0.702159336890    -0.433398321477    12.000000000000
         C           -0.007573788119    -1.417404321420    -0.425941797174    12.000000000000
         C            1.223643553157    -0.715260849273    -0.415936175225    12.000000000000
         C            2.445666486600    -1.429628761016    -0.427686187984    12.000000000000
         C            3.676862540115    -0.726692903565    -0.431826772379    12.000000000000
         C            6.132244683688    -0.739964311859    -0.433354746592    12.000000000000
         C            4.903514982772    -1.444442992550    -0.419513672052    12.000000000000
         C            8.599010685959     0.632618394658    -0.428042694577    12.000000000000
         C            8.591741325369    -0.724836339203    -0.426306314316    12.000000000000
         C            7.364858601658    -1.470318137615    -0.426536491009    12.000000000000
         H           -9.528310134550     1.276861977183    -0.429732997171     1.007825032230
         H            9.541406811874     1.174587016435    -0.429094726839     1.007825032230
         C           -7.369842072500    -2.779530617943    -0.423905016996    12.000000000000
         C           -4.924603271782    -2.808422729350    -0.431636649433    12.000000000000
         C           -6.166626658399    -3.516637664835    -0.425334809273    12.000000000000
         C           -3.702514522437    -3.524667021130    -0.421312580247    12.000000000000
         C           -2.467651147846    -2.821311434813    -0.433357218603    12.000000000000
         C           -0.015137636839    -2.833127117409    -0.433075630094    12.000000000000
         C           -1.247126003958    -3.534717647572    -0.421511676686    12.000000000000
         C            1.209240906912    -3.547900150653    -0.418972646895    12.000000000000
         C            2.437331859423    -2.847627210185    -0.433112405206    12.000000000000
         C            4.894298181039    -2.861108440295    -0.432291665134    12.000000000000
         C            3.664611092309    -3.564205317541    -0.419412245194    12.000000000000
         C            6.128634852014    -3.582569529727    -0.426066403236    12.000000000000
         C            7.339668501964    -2.858398779380    -0.424551177155    12.000000000000
         H           -9.541453273991    -1.174548938674    -0.424770529451     1.007825032230
         H            9.528257705340    -1.276904545914    -0.425056506555     1.007825032230
         H           -8.315169206580    -3.318135325222    -0.419732788466     1.007825032230
         H            8.279150979760    -3.407126261903    -0.420211621172     1.007825032230
         C           -6.144998351434    -4.927632744793    -0.424008811213    12.000000000000
         C           -3.706787510729    -4.941247186127    -0.433829779301    12.000000000000
         C           -4.955594220733    -5.643479445504    -0.425862644656    12.000000000000
         C           -2.486125488958    -5.654771046419    -0.420890108257    12.000000000000
         C           -1.254062498212    -4.956107522011    -0.432065714243    12.000000000000
         C            1.201008411136    -4.969265860202    -0.430884589985    12.000000000000
         C           -0.030340837145    -5.669505775148    -0.423041390321    12.000000000000
         C            3.653745938597    -4.980729247424    -0.430126590237    12.000000000000
         C            2.425488533144    -5.681160107537    -0.420749659685    12.000000000000
         C            6.091961455079    -4.993243435396    -0.423772176563    12.000000000000
         C            4.894972281879    -5.696333892967    -0.425008372393    12.000000000000
         H           -7.089896550772    -5.466985314248    -0.419606049532     1.007825032230
         H            7.031051046468    -5.542644008342    -0.420192396799     1.007825032230
         C           -4.923549484930    -7.078806571687    -0.426417413561    12.000000000000
         C           -2.485346250970    -7.087713549939    -0.428927305997    12.000000000000
         C           -3.751690054511    -7.763932629646    -0.428732627072    12.000000000000
         C           -0.037953119720    -7.099450346479    -0.428711580850    12.000000000000
         C           -1.277960263133    -7.772889856676    -0.430696273611    12.000000000000
         C            2.409440157995    -7.114007484012    -0.427848380039    12.000000000000
         C            1.194745774421    -7.786170837572    -0.430000670920    12.000000000000
         C            4.847616889766    -7.131247582589    -0.425341565379    12.000000000000
         C            3.668467443144    -7.803773464953    -0.427689999743    12.000000000000
         H           -5.869944513148    -7.613816070051    -0.424873376696     1.007825032230
         H            5.788245462656    -7.676317661324    -0.424214445897     1.007825032230
         H           -3.753531102181    -8.851057041246    -0.430568541501     1.007825032230
         H           -1.284308568626    -8.860860864507    -0.435123657470     1.007825032230
         H            1.189217411964    -8.874146092599    -0.434093307611     1.007825032230
         H            3.658542452092    -8.890846106063    -0.429344541165     1.007825032230

  Charge       = 0
  Multiplicity = 1
  Basis Set: JUN-CC-PVDZ
    Blend: JUN-CC-PVDZ
  Basis Set: (JUN-CC-PVDZ AUX)
    Blend: JUN-CC-PVDZ-JKFIT

    Orbital Energies [Eh]
    ---------------------

    Doubly Occupied:

       1A    -11.264049     2A    -11.263734     3A    -11.263733
       4A    -11.263392     5A    -11.263389     6A    -11.263354
       7A    -11.263197     8A    -11.263171     9A    -11.263167
      10A    -11.263010    11A    -11.262851    12A    -11.262847
      13A    -11.262368    14A    -11.262366    15A    -11.262292
      16A    -11.262291    17A    -11.262240    18A    -11.262206
      19A    -11.262161    20A    -11.262123    21A    -11.262121
      22A    -11.261967    23A    -11.261963    24A    -11.261844
      25A    -11.261829    26A    -11.261815    27A    -11.261811
      28A    -11.261764    29A    -11.261756    30A    -11.261683
      31A    -11.261657    32A    -11.261654    33A    -11.261628
      34A    -11.261626    35A    -11.261605    36A    -11.261558
      37A    -11.261419    38A    -11.261408    39A    -11.261402
      40A    -11.261395    41A    -11.261390    42A    -11.261382
      43A    -11.261377    44A    -11.261362    45A    -11.261357
      46A    -11.261335    47A    -11.261331    48A    -11.261327
      49A    -11.261173    50A    -11.261141    51A    -11.261139
      52A    -11.261058    53A    -11.261057    54A    -11.260986
      55A    -11.260020    56A    -11.260007    57A    -11.260004
      58A    -11.259975    59A    -11.259973    60A    -11.259957
      61A    -11.259397    62A    -11.259372    63A    -11.259369
      64A    -11.259317    65A    -11.259315    66A    -11.259286
      67A    -11.259024    68A    -11.259007    69A    -11.259005
      70A    -11.258977    71A    -11.258975    72A    -11.258963
      73A    -11.254593    74A    -11.254592    75A    -11.254591
      76A    -11.254588    77A    -11.254583    78A    -11.254580
      79A    -11.253744    80A    -11.253743    81A    -11.253739
      82A    -11.253738    83A    -11.253736    84A    -11.253731
      85A    -11.253660    86A    -11.253658    87A    -11.253655
      88A    -11.253654    89A    -11.253651    90A    -11.253646
      91A    -11.253121    92A    -11.253120    93A    -11.253119
      94A    -11.253116    95A    -11.253110    96A    -11.253108
      97A     -1.254137    98A     -1.239145    99A     -1.239145
     100A     -1.220589   101A     -1.220584   102A     -1.215612
     103A     -1.201150   104A     -1.195720   105A     -1.188304
     106A     -1.188302   107A     -1.173870   108A     -1.173867
     109A     -1.155778   110A     -1.155775   111A     -1.152882
     112A     -1.144824   113A     -1.144821   114A     -1.128702
     115A     -1.114860   116A     -1.113265   117A     -1.112643
     118A     -1.112629   119A     -1.111714   120A     -1.088563
     121A     -1.088548   122A     -1.077061   123A     -1.077060
     124A     -1.067757   125A     -1.067727   126A     -1.065127
     127A     -1.046923   128A     -1.046915   129A     -1.040611
     130A     -1.038834   131A     -1.038833   132A     -1.025394
     133A     -1.021564   134A     -1.021514   135A     -1.007294
     136A     -1.006939   137A     -1.003913   138A     -1.000636
     139A     -1.000588   140A     -0.991169   141A     -0.971125
     142A     -0.971077   143A     -0.955993   144A     -0.955938
     145A     -0.905764   146A     -0.905723   147A     -0.905641
     148A     -0.905601   149A     -0.904520   150A     -0.892535
     151A     -0.892476   152A     -0.890520   153A     -0.890463
     154A     -0.889596   155A     -0.872323   156A     -0.869137
     157A     -0.851653   158A     -0.848016   159A     -0.847994
     160A     -0.845751   161A     -0.843157   162A     -0.834687
     163A     -0.834674   164A     -0.828215   165A     -0.828212
     166A     -0.784676   167A     -0.784665   168A     -0.783802
     169A     -0.783776   170A     -0.782422   171A     -0.782402
     172A     -0.782185   173A     -0.767112   174A     -0.760957
     175A     -0.750732   176A     -0.733589   177A     -0.727194
     178A     -0.727181   179A     -0.725218   180A     -0.724661
     181A     -0.724643   182A     -0.718659   183A     -0.713923
     184A     -0.713918   185A     -0.699696   186A     -0.699684
     187A     -0.686293   188A     -0.686063   189A     -0.686060
     190A     -0.682286   191A     -0.682275   192A     -0.678917
     193A     -0.653748   194A     -0.650996   195A     -0.650967
     196A     -0.649970   197A     -0.649954   198A     -0.649670
     199A     -0.641089   200A     -0.641062   201A     -0.640196
     202A     -0.639260   203A     -0.636162   204A     -0.636136
     205A     -0.629265   206A     -0.617678   207A     -0.615404
     208A     -0.615384   209A     -0.608916   210A     -0.608910
     211A     -0.599182   212A     -0.599143   213A     -0.598873
     214A     -0.598748   215A     -0.598721   216A     -0.598197
     217A     -0.595171   218A     -0.595159   219A     -0.594842
     220A     -0.594402   221A     -0.592089   222A     -0.592086
     223A     -0.587558   224A     -0.577878   225A     -0.577868
     226A     -0.575731   227A     -0.575728   228A     -0.573492
     229A     -0.569571   230A     -0.568296   231A     -0.568272
     232A     -0.566879   233A     -0.566869   234A     -0.560998
     235A     -0.558857   236A     -0.558838   237A     -0.558515
     238A     -0.554490   239A     -0.550628   240A     -0.547557
     241A     -0.544338   242A     -0.535035   243A     -0.534997
     244A     -0.533653   245A     -0.533630   246A     -0.528181
     247A     -0.528166   248A     -0.527956   249A     -0.517315
     250A     -0.517281   251A     -0.515424   252A     -0.515418
     253A     -0.509744   254A     -0.509728   255A     -0.498139
     256A     -0.496569   257A     -0.496544   258A     -0.493841
     259A     -0.493831   260A     -0.489474   261A     -0.481552
     262A     -0.477487   263A     -0.477484   264A     -0.474104
     265A     -0.469573   266A     -0.466650   267A     -0.466645
     268A     -0.458874   269A     -0.446858   270A     -0.446797
     271A     -0.441098   272A     -0.440824   273A     -0.440799
     274A     -0.434755   275A     -0.433972   276A     -0.407447
     277A     -0.407423   278A     -0.386483   279A     -0.386435
     280A     -0.385796   281A     -0.385795   282A     -0.383827
     283A     -0.354398   284A     -0.354382   285A     -0.350736
     286A     -0.338167   287A     -0.335666   288A     -0.335597
     289A     -0.332779   290A     -0.332772   291A     -0.307162
     292A     -0.302025   293A     -0.301962   294A     -0.300911
     295A     -0.286241   296A     -0.256526   297A     -0.253576
     298A     -0.253523   299A     -0.204335   300A     -0.204245

  @DF-RHF Final Energy: -3650.33771787267187

   => Energetics <=

    Nuclear Repulsion Energy =          15611.4211649754324753
    One-Electron Energy =              -36072.0791748693518457
    Two-Electron Energy =               16810.3202920212461322
    Total Energy =                      -3650.3377178726732382
 Dipole X            :         -0.0009108            0.0002304           -0.0006804
 Dipole Y            :          0.0010936           -0.0013052           -0.0002116
 Dipole Z            :        484.1763414         -484.1799989           -0.0036575
 Magnitude           :                                                    0.0037263

    SAPT Results
  --------------------------------------------------------------------------------------------------------
    Electrostatics                  9.46593763 [mEh]       5.93996554 [kcal/mol]      24.85281581 [kJ/mol]
      Elst10,r                      9.46593763 [mEh]       5.93996554 [kcal/mol]      24.85281581 [kJ/mol]

    Exchange                        0.00008720 [mEh]       0.00005472 [kcal/mol]       0.00022893 [kJ/mol]
      Exch10                        0.00008720 [mEh]       0.00005472 [kcal/mol]       0.00022893 [kJ/mol]
      Exch10(S^2)                   0.00008720 [mEh]       0.00005472 [kcal/mol]       0.00022894 [kJ/mol]

    Induction                      -4.52086765 [mEh]      -2.83688728 [kcal/mol]     -11.86953639 [kJ/mol]
      Ind20,r                      -4.54821657 [mEh]      -2.85404899 [kcal/mol]     -11.94134097 [kJ/mol]
      Exch-Ind20,r                  0.00055471 [mEh]       0.00034809 [kcal/mol]       0.00145640 [kJ/mol]
      delta HF,r (2)                0.02679421 [mEh]       0.01681362 [kcal/mol]       0.07034818 [kJ/mol]

    Dispersion                     -0.79853926 [mEh]      -0.50109095 [kcal/mol]      -2.09656453 [kJ/mol]
      Disp20                       -0.79911136 [mEh]      -0.50144995 [kcal/mol]      -2.09806658 [kJ/mol]
      Exch-Disp20                   0.00057210 [mEh]       0.00035900 [kcal/mol]       0.00150205 [kJ/mol]
      Disp20 (SS)                  -0.39955568 [mEh]      -0.25072497 [kcal/mol]      -1.04903329 [kJ/mol]
      Disp20 (OS)                  -0.39955568 [mEh]      -0.25072497 [kcal/mol]      -1.04903329 [kJ/mol]
      Exch-Disp20 (SS)              0.00044047 [mEh]       0.00027640 [kcal/mol]       0.00115645 [kJ/mol]
      Exch-Disp20 (OS)              0.00013163 [mEh]       0.00008260 [kcal/mol]       0.00034560 [kJ/mol]

  Total HF                          4.94515717 [mEh]       3.10313297 [kcal/mol]      12.98350836 [kJ/mol]
  Total SAPT0                       4.14661791 [mEh]       2.60204202 [kcal/mol]      10.88694383 [kJ/mol]

  Special recipe for scaled SAPT0 (see Manual):
    Electrostatics sSAPT0           9.46593763 [mEh]       5.93996554 [kcal/mol]      24.85281581 [kJ/mol]
    Exchange sSAPT0                 0.00008720 [mEh]       0.00005472 [kcal/mol]       0.00022893 [kJ/mol]
    Induction sSAPT0               -4.52086765 [mEh]      -2.83688728 [kcal/mol]     -11.86953639 [kJ/mol]
    Dispersion sSAPT0              -0.79853926 [mEh]      -0.50109095 [kcal/mol]      -2.09656453 [kJ/mol]
  Total sSAPT0                      4.14661791 [mEh]       2.60204202 [kcal/mol]      10.88694383 [kJ/mol]
  --------------------------------------------------------------------------------------------------------

*** Psi4 exiting successfully. Buy a developer a beer!
