                               Psi4 1.9 release

  ==> Input File <==

--------------------------------------------------------------------------
memory 80 GB # how much memory is available ! Depends on the nodes/cores !

molecule dimer {
# monomer A
+1 1    # Charge and multiplicity
C  0.680067 -1.215929 2.508042
C -0.680504 -1.215545 2.506014
N -1.085635  0.102779 2.505016
C  0.000108  0.884180 2.501740
C -2.477365  0.570758 2.455610
N  1.085222  0.102779 2.505016
H  1.385146 -2.033368 2.515870
H -1.385302 -2.033214 2.506204
H -0.000009  1.965269 2.499993
C  2.478117  0.567877 2.521908
H  2.490592  1.658130 2.494563
H  2.967028  0.220701 3.435354
H  3.001428  0.176405 1.646425
H -2.857359  0.490799 1.433539
H -3.082679 -0.042306 3.125694
H -2.518128  1.610706 2.782594
--
# monomer B
0 1     # Charge and multiplicity
C   -3.66844126402057      7.80375217008252      0.00190004133558
C   -4.84759871934653      7.13124183134024     -0.00046653359696
C   -4.89495929917518      5.69633040353158     -0.00103944469517
C   -3.65374067877320      4.98073034095895      0.00662099703436
C   -2.40942512149445      7.11398103667468      0.00209438359570
C   -2.42547734410473      5.68112195090346     -0.00491050527438
C   -1.19474401643570      7.78614419430947      0.00356656413763
C   0.03795902893699      7.09942164575698      0.00139585983271
C   0.03033258741920      5.66948955970466     -0.00408752508301
C   -1.20098450790502      4.96927034791531      0.00488220885047
C   1.27795782581485      7.77285944319479      0.00277170839332
C   2.48535808472416      7.08769688523756      0.00049722048857
C   2.48612868491717      5.65477081024076     -0.00644052849921
C   1.25408291964399      4.95607811366431      0.00518741308898
C   3.75171459140595      7.76391215098033      0.00062407186893
C   4.92356605618520      7.07878077698995     -0.00143240883900
C   4.95560727132542      5.64344746336949     -0.00159282164606
C   3.70680153420475      4.94121020833308      0.00349873852374
H   -3.65852113775815      8.89082741913536      0.00358502958574
H   -1.18921332975660      8.87412108735996      0.00753844057883
H   1.28429423888630      8.86083343548850      0.00693053253426
H   3.75354208679975      8.85103527897216      0.00214659618464
H   5.86995870320703      7.61379483465560     -0.00235777588134
H   -5.78823170750226      7.67630221293400     -0.00202638095293
C   -6.09197395869619      4.99326001364347     -0.00291168518608
C   -6.12866148031747      3.58258016879823     -0.00171050815740
C   -3.66457974004527      3.56418217974434     -0.00463560277484
C   -4.89429820469869      2.86108077590057      0.00453338221034
C   -2.43733499489796      2.84761165708481      0.00719617576166
C   -1.20922785759670      3.54788693497833     -0.00648285103018
C   1.24714157216223      3.53468075142962     -0.00729145743546
C   0.01517603956900      2.83311183930540      0.00439272578912
C   2.46764517244071      2.82128997725533      0.00449278391269
C   3.70254947457969      3.52466015442405     -0.00899517692985
C   6.14498038638375      4.92757236613191     -0.00282626685777
C   6.16658835886151      3.51658447594213     -0.00065971342101
C   4.92460995845939      2.80840792535402      0.00587903281610
H   7.08990550964105      5.46688776622306     -0.00658814770723
H   -7.03104175110130      5.54268795285765     -0.00714490013730
C   -7.33969804112295      2.85841153457957     -0.00333767559888
C   -7.36488195805880      1.47032337158330     -0.00157213747140
C   -4.90350460894690      1.44442681216000     -0.00628840166334
C   -6.13225715261081      0.73993935705394      0.00600164231964
C   -3.67687480051673      0.72669714267312      0.00433931473643
C   -2.44565658606518      1.42964113326212     -0.00597039546461
C   -1.22360068130162      0.71532450163492      0.00545886906656
C   0.00763786931376      1.41738314923765      0.00392452278437
C   1.23121980774686      0.70211669058719     -0.01490206287210
C   2.46082110053113      1.40329203612573      0.00460244601878
C   3.68443025419614      0.68719842821222      0.00377365974158
C   4.91870890153864      1.39173456118907     -0.00862816189375
C   7.36980207796101      2.77948220318441     -0.00242013321349
C   7.38016266612146      1.39121750785509     -0.00087345036788
C   6.13979953912259      0.67411862320065      0.00545489144369
H   -8.27919079934664      3.40711804112415     -0.00763522772059
H   8.31511347147953      3.31811809662368     -0.00663070901292
C   -8.59175593758115      0.72483255304480     -0.00123170985383
C   -8.59902460370342     -0.63263980622873      0.00089141472904
C   -6.13981313911873     -0.67413663715361     -0.00609792660607
C   -7.38018411213749     -1.39126618958160      0.00131813493501
C   -4.91868448025621     -1.39175501803000      0.00624257154343
C   -3.68443829568458     -0.68723731573599     -0.00478966852105
C   -2.46081704024768     -1.40334517882457      0.00575341766833
C   -1.23116201232071     -0.70217386488055     -0.00636696112346
C   -0.00756962538737     -1.41741884941102      0.00108956317991
C   1.22364771588843     -0.71527537726392      0.01109518512883
C   2.44567064933149     -1.42964328900682     -0.00065482763106
C   3.67686670284649     -0.72670743155550     -0.00479541202602
C   6.13224884641929     -0.73997883984993     -0.00632338623858
C   4.90351914550401     -1.44445752054090      0.00751768830159
C   8.59901484869081      0.63260386666793     -0.00101133422380
C   8.59174548810050     -0.72485086719319      0.00072504603735
C   7.36486276438985     -1.47033266560598      0.00049486934466
H   -9.52830597181814      1.27684744919284     -0.00270163681798
H   9.54141097460619      1.17457248844457     -0.00206336648518
C   -7.36983790976868     -2.77954514593389      0.00312634335708
C   -4.92459910905015     -2.80843725734101     -0.00460528907921
C   -6.16662249566744     -3.51665219282533      0.00169655107992
C   -3.70251035970491     -3.52468154912026      0.00571878010666
C   -2.46764698511392     -2.82132596280400     -0.00632585824990
C   -0.01513347410770     -2.83314164539971     -0.00604426974092
C   -1.24712184122656     -3.53473217556300      0.00551968366725
C   1.20924506964357     -3.54791467864352      0.00805871345849
C   2.43733602215464     -2.84764173817541     -0.00608104485234
C   4.89430234377080     -2.86112296828604     -0.00526030478103
C   3.66461525504104     -3.56421984553201      0.00761911515957
C   6.12863901474565     -3.58258405771778      0.00096495711699
C   7.33967266469532     -2.85841330737039      0.00248018319869
H   -9.54144911125902     -1.17456346666430      0.00226083090216
H   9.52826186807155     -1.27691907390448      0.00197485379837
H   -8.31516504384864     -3.31814985321231      0.00729857188773
H   8.27915514249207     -3.40714078989363      0.00681973918158
C   -6.14499418870218     -4.92764727278338      0.00302254913999
C   -3.70678334799751     -4.94126171411716     -0.00679841894792
C   -4.95559005800169     -5.64349397349412      0.00116871569699
C   -2.48612132622665     -5.65478557440947      0.00614125209662
C   -1.25405833548005     -4.95612205000132     -0.00503435388927
C   1.20101257386816     -4.96928038819302     -0.00385322963129
C   -0.03033667441341     -5.66952030313900      0.00398997003238
C   3.65375010132847     -4.98074377541453     -0.00309522988330
C   2.42549269587528     -5.68117463552727      0.00628170066869
C   6.09196561781097     -4.99325796338655      0.00325918379042
C   4.89497644461045     -5.69634842095790      0.00202298796027
H   -7.08989238804069     -5.46699984223871      0.00742531082125
H   7.03105520920009     -5.54265853633254      0.00683896355417
C   -4.92354532219813     -7.07882109967734      0.00061394679214
C   -2.48534208823777     -7.08772807792913     -0.00189594564379
C   -3.75168589177895     -7.76394715763627     -0.00170126671874
C   -0.03794895698805     -7.09946487446944     -0.00168022049625
C   -1.27795610040136     -7.77290438466689     -0.00366491325785
C   2.40944432072629     -7.11402201200282     -0.00081701968533
C   1.19474993715296     -7.78618536556242     -0.00296931056689
C   4.84762105249800     -7.13126211057943      0.00168979497423
C   3.66847160587561     -7.80378799294376     -0.00065863938960
H   -5.86994035041618     -7.61383059804164      0.00215798365757
H   5.78824962538815     -7.67633218931421      0.00281691445618
H   -3.75352693944918     -8.85107156923607     -0.00353718114765
H   -1.28430440589466     -8.86087539249706     -0.00809229711623
H   1.18922157469537     -8.87416062058945     -0.00706194725726
H   3.65854661482387     -8.89086063405326     -0.00231318081200

    units angstrom      # Angstroms are the default
    no_reorient         # Geometry fixed, default
    symmetry c1         # C1 symmetry, default
}

set {
    scf_type DF         # Density fitting, faster than exact integrals
    freeze_core True    # Freeze core electrons
    basis jun-cc-pVDZ   # Jun-cc-pVDZ basis set, recommended for sSAPT0 in https://doi.org/10.1063/1.4867135
}

energy('ssapt0')        # Compute sSAPT0 energy, includes also SAPT0
--------------------------------------------------------------------------

  //              Dimer HF             //
    Molecular point group: c1
  Charge       = 1
  Multiplicity = 1
  Basis Set: JUN-CC-PVDZ
    Blend: JUN-CC-PVDZ
  Basis Set: (JUN-CC-PVDZ AUX)
    Blend: JUN-CC-PVDZ-JKFIT
  @DF-RHF Final Energy: -3953.45861384082764
    Total Energy =                      -3953.4586138408267288
 Dipole X            :         -0.0151940            0.0004804           -0.0147136
 Dipole Y            :         -1.7057635            1.8866171            0.1808536
 Dipole Z            :        -12.7880029           15.1264876            2.3384847
 Magnitude           :                                                    2.3455138
  //            Monomer A HF           //
    Molecular point group: c1
  Multiplicity = 1
  Basis Set: JUN-CC-PVDZ
    Blend: JUN-CC-PVDZ
  Basis Set: (JUN-CC-PVDZ AUX)
    Blend: JUN-CC-PVDZ-JKFIT
  @DF-RHF Final Energy:  -303.30100231365952
    Total Energy =                       -303.3010023136595237
  //            Monomer B HF           //
    Molecular point group: c1

    Geometry (in Angstrom), charge = 0, multiplicity = 1:

       Center              X                  Y                   Z               Mass
    ------------   -----------------  -----------------  -----------------  -----------------
      Gh(C)           0.680062820275    -1.215917226251     2.317433199985    12.000000000000
      Gh(C)          -0.680508179725    -1.215533226251     2.315405199985    12.000000000000
      Gh(N)          -1.085639179725     0.102790773749     2.314407199985    14.003074004430
      Gh(C)           0.000103820275     0.884191773749     2.311131199985    12.000000000000
      Gh(C)          -2.477369179725     0.570769773749     2.265001199985    12.000000000000
      Gh(N)           1.085217820275     0.102790773749     2.314407199985    14.003074004430
      Gh(H)           1.385141820275    -2.033356226251     2.325261199985     1.007825032230
      Gh(H)          -1.385306179725    -2.033202226251     2.315595199985     1.007825032230
      Gh(H)          -0.000013179725     1.965280773749     2.309384199985     1.007825032230
      Gh(C)           2.478112820275     0.567888773749     2.331299199985    12.000000000000
      Gh(H)           2.490587820275     1.658141773750     2.303954199985     1.007825032230
      Gh(H)           2.967023820275     0.220712773749     3.244745199985     1.007825032230
      Gh(H)           3.001423820275     0.176416773749     1.455816199985     1.007825032230
      Gh(H)          -2.857363179725     0.490810773749     1.242930199985     1.007825032230
      Gh(H)          -3.082683179725    -0.042294226251     2.935085199985     1.007825032230
      Gh(H)          -2.518132179725     1.610717773749     2.591985199985     1.007825032230
         C           -3.668445443746     7.803763943832    -0.188708758680    12.000000000000
         C           -4.847602899072     7.131253605090    -0.191075333612    12.000000000000
         C           -4.894963478901     5.696342177281    -0.191648244711    12.000000000000
         C           -3.653744858499     4.980742114708    -0.183987802981    12.000000000000
         C           -2.409429301220     7.113992810424    -0.188514416420    12.000000000000
         C           -2.425481523830     5.681133724653    -0.195519305290    12.000000000000
         C           -1.194748196161     7.786155968059    -0.187042235878    12.000000000000
         C            0.037954849212     7.099433419506    -0.189212940183    12.000000000000
         C            0.030328407694     5.669501333454    -0.194696325098    12.000000000000
         C           -1.200988687630     4.969282121665    -0.185726591165    12.000000000000
         C            1.277953646089     7.772871216944    -0.187837091622    12.000000000000
         C            2.485353904999     7.087708658987    -0.190111579527    12.000000000000
         C            2.486124505192     5.654782583990    -0.197049328515    12.000000000000
         C            1.254078739919     4.956089887414    -0.185421386927    12.000000000000
         C            3.751710411681     7.763923924730    -0.189984728147    12.000000000000
         C            4.923561876460     7.078792550739    -0.192041208854    12.000000000000
         C            4.955603091600     5.643459237119    -0.192201621662    12.000000000000
         C            3.706797354479     4.941221982083    -0.187110061492    12.000000000000
         H           -3.658525317484     8.890839192885    -0.187023770430     1.007825032230
         H           -1.189217509482     8.874132861109    -0.183070359437     1.007825032230
         H            1.284290059161     8.860845209238    -0.183678267481     1.007825032230
         H            3.753537907074     8.851047052722    -0.188462203831     1.007825032230
         H            5.869954523482     7.613806608405    -0.192966575897     1.007825032230
         H           -5.788235887228     7.676313986684    -0.192635180968     1.007825032230
         C           -6.091978138422     4.993271787393    -0.193520485202    12.000000000000
         C           -6.128665660043     3.582591942548    -0.192319308173    12.000000000000
         C           -3.664583919771     3.564193953494    -0.195244402790    12.000000000000
         C           -4.894302384424     2.861092549650    -0.186075417805    12.000000000000
         C           -2.437339174623     2.847623430834    -0.183412624254    12.000000000000
         C           -1.209232037322     3.547898708728    -0.197091651046    12.000000000000
         C            1.247137392437     3.534692525179    -0.197900257451    12.000000000000
         C            0.015171859844     2.833123613055    -0.186216074226    12.000000000000
         C            2.467640992715     2.821301751005    -0.186116016103    12.000000000000
         C            3.702545294854     3.524671928174    -0.199603976945    12.000000000000
         C            6.144976206658     4.927584139881    -0.193435066873    12.000000000000
         C            6.166584179136     3.516596249692    -0.191268513436    12.000000000000
         C            4.924605778734     2.808419699104    -0.184729767199    12.000000000000
         H            7.089901329916     5.466899539973    -0.197196947723     1.007825032230
         H           -7.031045930827     5.542699726607    -0.197753700153     1.007825032230
         C           -7.339702220848     2.858423308329    -0.193946475614    12.000000000000
         C           -7.364886137784     1.470335145333    -0.192180937487    12.000000000000
         C           -4.903508788672     1.444438585909    -0.196897201679    12.000000000000
         C           -6.132261332336     0.739951130803    -0.184607157696    12.000000000000
         C           -3.676878980242     0.726708916423    -0.186269485279    12.000000000000
         C           -2.445660765791     1.429652907012    -0.196579195480    12.000000000000
         C           -1.223604861027     0.715336275384    -0.185149930949    12.000000000000
         C            0.007633689588     1.417394922987    -0.186684277231    12.000000000000
         C            1.231215628021     0.702128464337    -0.205510862888    12.000000000000
         C            2.460816920806     1.403303809875    -0.186006353997    12.000000000000
         C            3.684426074471     0.687210201962    -0.186835140274    12.000000000000
         C            4.918704721813     1.391746334939    -0.199236961909    12.000000000000
         C            7.369797898236     2.779493976934    -0.193028933229    12.000000000000
         C            7.380158486396     1.391229281605    -0.191482250383    12.000000000000
         C            6.139795359397     0.674130396950    -0.185153908572    12.000000000000
         H           -8.279194979072     3.407129814874    -0.198244027736     1.007825032230
         H            8.315109291754     3.318129870373    -0.197239509028     1.007825032230
         C           -8.591760117307     0.724844326794    -0.191840509869    12.000000000000
         C           -8.599028783429    -0.632628032479    -0.189717385286    12.000000000000
         C           -6.139817318844    -0.674124863404    -0.196706726622    12.000000000000
         C           -7.380188291863    -1.391254415832    -0.189290665080    12.000000000000
         C           -4.918688659982    -1.391743244281    -0.184366228472    12.000000000000
         C           -3.684442475410    -0.687225541986    -0.195398468537    12.000000000000
         C           -2.460821219973    -1.403333405075    -0.184855382347    12.000000000000
         C           -1.231166192046    -0.702162091131    -0.196975761139    12.000000000000
         C           -0.007573805113    -1.417407075662    -0.189519236836    12.000000000000
         C            1.223643536163    -0.715263603514    -0.179513614887    12.000000000000
         C            2.445666469606    -1.429631515257    -0.191263627647    12.000000000000
         C            3.676862523121    -0.726695657806    -0.195404212042    12.000000000000
         C            6.132244666694    -0.739967066100    -0.196932186254    12.000000000000
         C            4.903514965779    -1.444445746791    -0.183091111714    12.000000000000
         C            8.599010668965     0.632615640417    -0.191620134239    12.000000000000
         C            8.591741308375    -0.724839093444    -0.189883753978    12.000000000000
         C            7.364858584664    -1.470320891856    -0.190113930671    12.000000000000
         H           -9.528310151544     1.276859222942    -0.193310436833     1.007825032230
         H            9.541406794881     1.174584262194    -0.192672166501     1.007825032230
         C           -7.369842089494    -2.779533372184    -0.187482456658    12.000000000000
         C           -4.924603288776    -2.808425483592    -0.195214089095    12.000000000000
         C           -6.166626675393    -3.516640419076    -0.188912248936    12.000000000000
         C           -3.702514539430    -3.524669775371    -0.184890019909    12.000000000000
         C           -2.467651164839    -2.821314189055    -0.196934658265    12.000000000000
         C           -0.015137653833    -2.833129871650    -0.196653069756    12.000000000000
         C           -1.247126020952    -3.534720401814    -0.185089116348    12.000000000000
         C            1.209240889918    -3.547902904894    -0.182550086557    12.000000000000
         C            2.437331842429    -2.847629964426    -0.196689844868    12.000000000000
         C            4.894298164045    -2.861111194537    -0.195869104797    12.000000000000
         C            3.664611075316    -3.564208071783    -0.182989684856    12.000000000000
         C            6.128634835020    -3.582572283968    -0.189643842898    12.000000000000
         C            7.339668484970    -2.858401533621    -0.188128616817    12.000000000000
         H           -9.541453290984    -1.174551692915    -0.188347969113     1.007825032230
         H            9.528257688346    -1.276907300155    -0.188633946217     1.007825032230
         H           -8.315169223574    -3.318138079463    -0.183310228128     1.007825032230
         H            8.279150962767    -3.407129016144    -0.183789060834     1.007825032230
         C           -6.144998368428    -4.927635499034    -0.187586250875    12.000000000000
         C           -3.706787527723    -4.941249940368    -0.197407218963    12.000000000000
         C           -4.955594237727    -5.643482199745    -0.189440084318    12.000000000000
         C           -2.486125505952    -5.654773800660    -0.184467547919    12.000000000000
         C           -1.254062515205    -4.956110276252    -0.195643153905    12.000000000000
         C            1.201008394143    -4.969268614444    -0.194462029647    12.000000000000
         C           -0.030340854139    -5.669508529390    -0.186618829983    12.000000000000
         C            3.653745921603    -4.980732001665    -0.193704029899    12.000000000000
         C            2.425488516150    -5.681162861778    -0.184327099347    12.000000000000
         C            6.091961438086    -4.993246189637    -0.187349616225    12.000000000000
         C            4.894972264885    -5.696336647208    -0.188585812055    12.000000000000
         H           -7.089896567766    -5.466988068489    -0.183183489194     1.007825032230
         H            7.031051029475    -5.542646762583    -0.183769836461     1.007825032230
         C           -4.923549501924    -7.078809325928    -0.189994853223    12.000000000000
         C           -2.485346267963    -7.087716304180    -0.192504745659    12.000000000000
         C           -3.751690071504    -7.763935383887    -0.192310066734    12.000000000000
         C           -0.037953136713    -7.099453100720    -0.192289020512    12.000000000000
         C           -1.277960280127    -7.772892610917    -0.194273713273    12.000000000000
         C            2.409440141001    -7.114010238253    -0.191425819701    12.000000000000
         C            1.194745757428    -7.786173591813    -0.193578110582    12.000000000000
         C            4.847616872773    -7.131250336830    -0.188919005041    12.000000000000
         C            3.668467426150    -7.803776219194    -0.191267439405    12.000000000000
         H           -5.869944530142    -7.613818824292    -0.188450816358     1.007825032230
         H            5.788245445663    -7.676320415565    -0.187791885559     1.007825032230
         H           -3.753531119175    -8.851059795487    -0.194145981163     1.007825032230
         H           -1.284308585620    -8.860863618748    -0.198701097132     1.007825032230
         H            1.189217394970    -8.874148846840    -0.197670747273     1.007825032230
         H            3.658542435098    -8.890848860304    -0.192921980827     1.007825032230

  Charge       = 0
  Multiplicity = 1
  Basis Set: JUN-CC-PVDZ
    Blend: JUN-CC-PVDZ
  Basis Set: (JUN-CC-PVDZ AUX)
    Blend: JUN-CC-PVDZ-JKFIT

    Orbital Energies [Eh]
    ---------------------

    Doubly Occupied:

       1A    -11.264073     2A    -11.263701     3A    -11.263695
       4A    -11.263271     5A    -11.263254     6A    -11.263209
       7A    -11.263081     8A    -11.263062     9A    -11.263034
      10A    -11.262798    11A    -11.262689    12A    -11.262665
      13A    -11.262189    14A    -11.262183    15A    -11.262154
      16A    -11.262136    17A    -11.262005    18A    -11.262002
      19A    -11.261968    20A    -11.261912    21A    -11.261904
      22A    -11.261818    23A    -11.261815    24A    -11.261656
      25A    -11.261646    26A    -11.261613    27A    -11.261607
      28A    -11.261571    29A    -11.261559    30A    -11.261481
      31A    -11.261460    32A    -11.261436    33A    -11.261429
      34A    -11.261416    35A    -11.261403    36A    -11.261382
      37A    -11.261229    38A    -11.261221    39A    -11.261202
      40A    -11.261195    41A    -11.261187    42A    -11.261181
      43A    -11.261175    44A    -11.261156    45A    -11.261146
      46A    -11.261128    47A    -11.261112    48A    -11.261100
      49A    -11.260955    50A    -11.260924    51A    -11.260903
      52A    -11.260859    53A    -11.260852    54A    -11.260787
      55A    -11.259786    56A    -11.259760    57A    -11.259749
      58A    -11.259729    59A    -11.259717    60A    -11.259698
      61A    -11.259146    62A    -11.259114    63A    -11.259108
      64A    -11.259061    65A    -11.259052    66A    -11.259023
      67A    -11.258784    68A    -11.258757    69A    -11.258745
      70A    -11.258726    71A    -11.258714    72A    -11.258698
      73A    -11.254451    74A    -11.254444    75A    -11.254426
      76A    -11.254424    77A    -11.254423    78A    -11.254417
      79A    -11.253556    80A    -11.253530    81A    -11.253529
      82A    -11.253522    83A    -11.253515    84A    -11.253511
      85A    -11.253471    86A    -11.253442    87A    -11.253440
      88A    -11.253437    89A    -11.253430    90A    -11.253426
      91A    -11.252979    92A    -11.252971    93A    -11.252953
      94A    -11.252952    95A    -11.252950    96A    -11.252945
      97A     -1.253690    98A     -1.238785    99A     -1.238752
     100A     -1.220270   101A     -1.220256   102A     -1.215227
     103A     -1.200869   104A     -1.195421   105A     -1.187930
     106A     -1.187908   107A     -1.173600   108A     -1.173598
     109A     -1.155408   110A     -1.155401   111A     -1.152501
     112A     -1.144568   113A     -1.144566   114A     -1.128357
     115A     -1.114489   116A     -1.113010   117A     -1.112277
     118A     -1.112248   119A     -1.111472   120A     -1.088226
     121A     -1.088206   122A     -1.076814   123A     -1.076812
     124A     -1.067410   125A     -1.067371   126A     -1.064755
     127A     -1.046612   128A     -1.046599   129A     -1.040283
     130A     -1.038590   131A     -1.038583   132A     -1.025013
     133A     -1.021146   134A     -1.021081   135A     -1.007005
     136A     -1.006594   137A     -1.003617   138A     -1.000274
     139A     -1.000216   140A     -0.990937   141A     -0.970786
     142A     -0.970737   143A     -0.955722   144A     -0.955661
     145A     -0.905412   146A     -0.905367   147A     -0.905338
     148A     -0.905306   149A     -0.904070   150A     -0.892107
     151A     -0.892049   152A     -0.890131   153A     -0.890082
     154A     -0.889237   155A     -0.872062   156A     -0.868937
     157A     -0.851364   158A     -0.847634   159A     -0.847626
     160A     -0.845364   161A     -0.842791   162A     -0.834369
     163A     -0.834360   164A     -0.827974   165A     -0.827964
     166A     -0.784371   167A     -0.784360   168A     -0.783455
     169A     -0.783443   170A     -0.782081   171A     -0.782059
     172A     -0.781809   173A     -0.766794   174A     -0.760549
     175A     -0.750357   176A     -0.733327   177A     -0.726883
     178A     -0.726847   179A     -0.724871   180A     -0.724351
     181A     -0.724317   182A     -0.718252   183A     -0.713548
     184A     -0.713542   185A     -0.699396   186A     -0.699373
     187A     -0.685888   188A     -0.685782   189A     -0.685773
     190A     -0.681986   191A     -0.681978   192A     -0.678588
     193A     -0.653448   194A     -0.650685   195A     -0.650649
     196A     -0.649578   197A     -0.649574   198A     -0.649399
     199A     -0.640705   200A     -0.640660   201A     -0.639905
     202A     -0.638995   203A     -0.635814   204A     -0.635779
     205A     -0.628938   206A     -0.617719   207A     -0.615142
     208A     -0.615116   209A     -0.608615   210A     -0.608608
     211A     -0.599075   212A     -0.599041   213A     -0.598547
     214A     -0.598371   215A     -0.598355   216A     -0.597812
     217A     -0.594897   218A     -0.594882   219A     -0.594531
     220A     -0.593977   221A     -0.591749   222A     -0.591744
     223A     -0.587138   224A     -0.577662   225A     -0.577644
     226A     -0.575616   227A     -0.575609   228A     -0.573193
     229A     -0.569516   230A     -0.567922   231A     -0.567899
     232A     -0.566553   233A     -0.566545   234A     -0.560775
     235A     -0.558509   236A     -0.558463   237A     -0.558283
     238A     -0.554169   239A     -0.550474   240A     -0.547336
     241A     -0.544163   242A     -0.534933   243A     -0.534919
     244A     -0.533357   245A     -0.533342   246A     -0.527908
     247A     -0.527889   248A     -0.527543   249A     -0.516953
     250A     -0.516927   251A     -0.515244   252A     -0.515240
     253A     -0.509469   254A     -0.509457   255A     -0.497833
     256A     -0.496262   257A     -0.496217   258A     -0.493702
     259A     -0.493680   260A     -0.489367   261A     -0.481276
     262A     -0.477305   263A     -0.477299   264A     -0.473806
     265A     -0.469209   266A     -0.466312   267A     -0.466310
     268A     -0.458690   269A     -0.446420   270A     -0.446371
     271A     -0.440922   272A     -0.440683   273A     -0.440641
     274A     -0.434570   275A     -0.433791   276A     -0.407261
     277A     -0.407230   278A     -0.386240   279A     -0.386196
     280A     -0.385622   281A     -0.385617   282A     -0.383602
     283A     -0.354188   284A     -0.354165   285A     -0.350503
     286A     -0.337944   287A     -0.335440   288A     -0.335410
     289A     -0.332588   290A     -0.332579   291A     -0.306870
     292A     -0.301786   293A     -0.301731   294A     -0.300700
     295A     -0.286013   296A     -0.256370   297A     -0.253319
     298A     -0.253269   299A     -0.204106   300A     -0.204024

  @DF-RHF Final Energy: -3650.34400919424479

   => Energetics <=

    Nuclear Repulsion Energy =          15611.4211649754324753
    One-Electron Energy =              -36072.2487967819615733
    Two-Electron Energy =               16810.4836226122861262
    Total Energy =                      -3650.3440091942429717
 Dipole X            :         -0.0003585            0.0002112           -0.0001473
 Dipole Y            :          0.0005654           -0.0044281           -0.0038626
 Dipole Z            :        216.1179065         -216.1156656            0.0022409
 Magnitude           :                                                    0.0044680

    SAPT Results
  --------------------------------------------------------------------------------------------------------
    Electrostatics               -148.16042399 [mEh]     -92.97206969 [kcal/mol]    -388.99513960 [kJ/mol]
      Elst10,r                   -148.16042399 [mEh]     -92.97206969 [kcal/mol]    -388.99513960 [kJ/mol]

    Exchange                      394.97663233 [mEh]     247.85157871 [kcal/mol]    1037.01100531 [kJ/mol]
      Exch10                      394.97663233 [mEh]     247.85157871 [kcal/mol]    1037.01100531 [kJ/mol]
      Exch10(S^2)                 379.54893847 [mEh]     238.17055465 [kcal/mol]     996.50560066 [kJ/mol]

    Induction                     -60.41854126 [mEh]     -37.91320703 [kcal/mol]    -158.62885823 [kJ/mol]
      Ind20,r                    -212.64770399 [mEh]    -133.43844883 [kcal/mol]    -558.30646991 [kJ/mol]
      Exch-Ind20,r                164.22492406 [mEh]     103.05269568 [kcal/mol]     431.17247873 [kJ/mol]
      delta HF,r (2)              -11.99576133 [mEh]      -7.52745388 [kcal/mol]     -31.49486704 [kJ/mol]

    Dispersion                   -130.26671876 [mEh]     -81.74360014 [kcal/mol]    -342.01522298 [kJ/mol]
      Disp20                     -159.38969005 [mEh]    -100.01854053 [kcal/mol]    -418.47757356 [kJ/mol]
      Exch-Disp20                  29.12297129 [mEh]      18.27494039 [kcal/mol]      76.46235058 [kJ/mol]
      Disp20 (SS)                 -79.69484502 [mEh]     -50.00927026 [kcal/mol]    -209.23878678 [kJ/mol]
      Disp20 (OS)                 -79.69484502 [mEh]     -50.00927026 [kcal/mol]    -209.23878678 [kJ/mol]
      Exch-Disp20 (SS)             17.26782716 [mEh]      10.83572514 [kcal/mol]      45.33667397 [kJ/mol]
      Exch-Disp20 (OS)             11.85514412 [mEh]       7.43921525 [kcal/mol]      31.12567661 [kJ/mol]

  Total HF                        186.39766708 [mEh]     116.96630198 [kcal/mol]     489.38700749 [kJ/mol]
  Total SAPT0                      56.13094832 [mEh]      35.22270184 [kcal/mol]     147.37178451 [kJ/mol]

  Special recipe for scaled SAPT0 (see Manual):
    Electrostatics sSAPT0        -148.16042399 [mEh]     -92.97206969 [kcal/mol]    -388.99513960 [kJ/mol]
    Exchange sSAPT0               394.97663233 [mEh]     247.85157871 [kcal/mol]    1037.01100531 [kJ/mol]
    Induction sSAPT0              -39.56753799 [mEh]     -24.82900494 [kcal/mol]    -103.88455667 [kJ/mol]
    Dispersion sSAPT0            -126.56908776 [mEh]     -79.42330166 [kcal/mol]    -332.30709414 [kJ/mol]
  Total sSAPT0                     80.67958259 [mEh]      50.62720241 [kcal/mol]     211.82421490 [kJ/mol]
  --------------------------------------------------------------------------------------------------------

*** Psi4 exiting successfully. Buy a developer a beer!
