                               Psi4 1.9 release

  ==> Input File <==

--------------------------------------------------------------------------
memory 47 GB # how much memory is available ! Depends on the nodes/cores !

molecule dimer {
# monomer A
-1 1    # Charge and multiplicity
B -1.977592e-04  2.742729e-04 4.000034
F  1.123153e-16  1.430594e-17 5.412819
F  1.147860e+00  6.757812e-01 3.528893
F  1.191806e-02 -1.332011e+00 3.529095
F -1.159666e+00  6.560735e-01 3.529174
--
# monomer B
0 1     # Charge and multiplicity
C   -3.66844126402057      7.80375217008252      0.00190004133558
C   -4.84759871934653      7.13124183134024     -0.00046653359696
C   -4.89495929917518      5.69633040353158     -0.00103944469517
C   -3.65374067877320      4.98073034095895      0.00662099703436
C   -2.40942512149445      7.11398103667468      0.00209438359570
C   -2.42547734410473      5.68112195090346     -0.00491050527438
C   -1.19474401643570      7.78614419430947      0.00356656413763
C   0.03795902893699      7.09942164575698      0.00139585983271
C   0.03033258741920      5.66948955970466     -0.00408752508301
C   -1.20098450790502      4.96927034791531      0.00488220885047
C   1.27795782581485      7.77285944319479      0.00277170839332
C   2.48535808472416      7.08769688523756      0.00049722048857
C   2.48612868491717      5.65477081024076     -0.00644052849921
C   1.25408291964399      4.95607811366431      0.00518741308898
C   3.75171459140595      7.76391215098033      0.00062407186893
C   4.92356605618520      7.07878077698995     -0.00143240883900
C   4.95560727132542      5.64344746336949     -0.00159282164606
C   3.70680153420475      4.94121020833308      0.00349873852374
H   -3.65852113775815      8.89082741913536      0.00358502958574
H   -1.18921332975660      8.87412108735996      0.00753844057883
H   1.28429423888630      8.86083343548850      0.00693053253426
H   3.75354208679975      8.85103527897216      0.00214659618464
H   5.86995870320703      7.61379483465560     -0.00235777588134
H   -5.78823170750226      7.67630221293400     -0.00202638095293
C   -6.09197395869619      4.99326001364347     -0.00291168518608
C   -6.12866148031747      3.58258016879823     -0.00171050815740
C   -3.66457974004527      3.56418217974434     -0.00463560277484
C   -4.89429820469869      2.86108077590057      0.00453338221034
C   -2.43733499489796      2.84761165708481      0.00719617576166
C   -1.20922785759670      3.54788693497833     -0.00648285103018
C   1.24714157216223      3.53468075142962     -0.00729145743546
C   0.01517603956900      2.83311183930540      0.00439272578912
C   2.46764517244071      2.82128997725533      0.00449278391269
C   3.70254947457969      3.52466015442405     -0.00899517692985
C   6.14498038638375      4.92757236613191     -0.00282626685777
C   6.16658835886151      3.51658447594213     -0.00065971342101
C   4.92460995845939      2.80840792535402      0.00587903281610
H   7.08990550964105      5.46688776622306     -0.00658814770723
H   -7.03104175110130      5.54268795285765     -0.00714490013730
C   -7.33969804112295      2.85841153457957     -0.00333767559888
C   -7.36488195805880      1.47032337158330     -0.00157213747140
C   -4.90350460894690      1.44442681216000     -0.00628840166334
C   -6.13225715261081      0.73993935705394      0.00600164231964
C   -3.67687480051673      0.72669714267312      0.00433931473643
C   -2.44565658606518      1.42964113326212     -0.00597039546461
C   -1.22360068130162      0.71532450163492      0.00545886906656
C   0.00763786931376      1.41738314923765      0.00392452278437
C   1.23121980774686      0.70211669058719     -0.01490206287210
C   2.46082110053113      1.40329203612573      0.00460244601878
C   3.68443025419614      0.68719842821222      0.00377365974158
C   4.91870890153864      1.39173456118907     -0.00862816189375
C   7.36980207796101      2.77948220318441     -0.00242013321349
C   7.38016266612146      1.39121750785509     -0.00087345036788
C   6.13979953912259      0.67411862320065      0.00545489144369
H   -8.27919079934664      3.40711804112415     -0.00763522772059
H   8.31511347147953      3.31811809662368     -0.00663070901292
C   -8.59175593758115      0.72483255304480     -0.00123170985383
C   -8.59902460370342     -0.63263980622873      0.00089141472904
C   -6.13981313911873     -0.67413663715361     -0.00609792660607
C   -7.38018411213749     -1.39126618958160      0.00131813493501
C   -4.91868448025621     -1.39175501803000      0.00624257154343
C   -3.68443829568458     -0.68723731573599     -0.00478966852105
C   -2.46081704024768     -1.40334517882457      0.00575341766833
C   -1.23116201232071     -0.70217386488055     -0.00636696112346
C   -0.00756962538737     -1.41741884941102      0.00108956317991
C   1.22364771588843     -0.71527537726392      0.01109518512883
C   2.44567064933149     -1.42964328900682     -0.00065482763106
C   3.67686670284649     -0.72670743155550     -0.00479541202602
C   6.13224884641929     -0.73997883984993     -0.00632338623858
C   4.90351914550401     -1.44445752054090      0.00751768830159
C   8.59901484869081      0.63260386666793     -0.00101133422380
C   8.59174548810050     -0.72485086719319      0.00072504603735
C   7.36486276438985     -1.47033266560598      0.00049486934466
H   -9.52830597181814      1.27684744919284     -0.00270163681798
H   9.54141097460619      1.17457248844457     -0.00206336648518
C   -7.36983790976868     -2.77954514593389      0.00312634335708
C   -4.92459910905015     -2.80843725734101     -0.00460528907921
C   -6.16662249566744     -3.51665219282533      0.00169655107992
C   -3.70251035970491     -3.52468154912026      0.00571878010666
C   -2.46764698511392     -2.82132596280400     -0.00632585824990
C   -0.01513347410770     -2.83314164539971     -0.00604426974092
C   -1.24712184122656     -3.53473217556300      0.00551968366725
C   1.20924506964357     -3.54791467864352      0.00805871345849
C   2.43733602215464     -2.84764173817541     -0.00608104485234
C   4.89430234377080     -2.86112296828604     -0.00526030478103
C   3.66461525504104     -3.56421984553201      0.00761911515957
C   6.12863901474565     -3.58258405771778      0.00096495711699
C   7.33967266469532     -2.85841330737039      0.00248018319869
H   -9.54144911125902     -1.17456346666430      0.00226083090216
H   9.52826186807155     -1.27691907390448      0.00197485379837
H   -8.31516504384864     -3.31814985321231      0.00729857188773
H   8.27915514249207     -3.40714078989363      0.00681973918158
C   -6.14499418870218     -4.92764727278338      0.00302254913999
C   -3.70678334799751     -4.94126171411716     -0.00679841894792
C   -4.95559005800169     -5.64349397349412      0.00116871569699
C   -2.48612132622665     -5.65478557440947      0.00614125209662
C   -1.25405833548005     -4.95612205000132     -0.00503435388927
C   1.20101257386816     -4.96928038819302     -0.00385322963129
C   -0.03033667441341     -5.66952030313900      0.00398997003238
C   3.65375010132847     -4.98074377541453     -0.00309522988330
C   2.42549269587528     -5.68117463552727      0.00628170066869
C   6.09196561781097     -4.99325796338655      0.00325918379042
C   4.89497644461045     -5.69634842095790      0.00202298796027
H   -7.08989238804069     -5.46699984223871      0.00742531082125
H   7.03105520920009     -5.54265853633254      0.00683896355417
C   -4.92354532219813     -7.07882109967734      0.00061394679214
C   -2.48534208823777     -7.08772807792913     -0.00189594564379
C   -3.75168589177895     -7.76394715763627     -0.00170126671874
C   -0.03794895698805     -7.09946487446944     -0.00168022049625
C   -1.27795610040136     -7.77290438466689     -0.00366491325785
C   2.40944432072629     -7.11402201200282     -0.00081701968533
C   1.19474993715296     -7.78618536556242     -0.00296931056689
C   4.84762105249800     -7.13126211057943      0.00168979497423
C   3.66847160587561     -7.80378799294376     -0.00065863938960
H   -5.86994035041618     -7.61383059804164      0.00215798365757
H   5.78824962538815     -7.67633218931421      0.00281691445618
H   -3.75352693944918     -8.85107156923607     -0.00353718114765
H   -1.28430440589466     -8.86087539249706     -0.00809229711623
H   1.18922157469537     -8.87416062058945     -0.00706194725726
H   3.65854661482387     -8.89086063405326     -0.00231318081200

    units angstrom      # Angstroms are the default
    no_reorient         # Geometry fixed, default
    symmetry c1         # C1 symmetry, default
}

set {
    scf_type DF         # Density fitting, faster than exact integrals
    freeze_core True    # Freeze core electrons
    basis jun-cc-pVDZ   # Jun-cc-pVDZ basis set, recommended for sSAPT0 in https://doi.org/10.1063/1.4867135
}

energy('ssapt0')        # Compute sSAPT0 energy, includes also SAPT0
--------------------------------------------------------------------------

  //              Dimer HF             //
    Molecular point group: c1
  Charge       = -1
  Multiplicity = 1
  Basis Set: JUN-CC-PVDZ
    Blend: JUN-CC-PVDZ
  Basis Set: (JUN-CC-PVDZ AUX)
    Blend: JUN-CC-PVDZ-JKFIT
  @DF-RHF Final Energy: -4073.11349149172929
    Total Energy =                      -4073.1134914917311107
 Dipole X            :          0.0010077           -0.0000548            0.0009530
 Dipole Y            :          0.0013220           -0.0002464            0.0010757
 Dipole Z            :         18.2422494          -23.8049732           -5.5627238
 Magnitude           :                                                    5.5627240
  //            Monomer A HF           //
    Molecular point group: c1
  Multiplicity = 1
  Basis Set: JUN-CC-PVDZ
    Blend: JUN-CC-PVDZ
  Basis Set: (JUN-CC-PVDZ AUX)
    Blend: JUN-CC-PVDZ-JKFIT
  @DF-RHF Final Energy:  -422.77297823567312
    Total Energy =                       -422.7729782356731221
  //            Monomer B HF           //
    Molecular point group: c1

    Geometry (in Angstrom), charge = 0, multiplicity = 1:

       Center              X                  Y                   Z               Mass
    ------------   -----------------  -----------------  -----------------  -----------------
      Gh(B)          -0.000201921932     0.000288800891     3.724528784335    11.009305360000
      Gh(F)          -0.000004162732     0.000014527991     5.137313784335    18.998403162730
      Gh(F)           1.147855837268     0.675795727991     3.253387784335    18.998403162730
      Gh(F)           0.011913897268    -1.331996472009     3.253589784335    18.998403162730
      Gh(F)          -1.159670162732     0.656088027991     3.253668784335    18.998403162730
         C           -3.668445426752     7.803766698073    -0.273605174329    12.000000000000
         C           -4.847602882078     7.131256359331    -0.275971749262    12.000000000000
         C           -4.894963461907     5.696344931522    -0.276544660360    12.000000000000
         C           -3.653744841505     4.980744868950    -0.268884218630    12.000000000000
         C           -2.409429284226     7.113995564665    -0.273410832069    12.000000000000
         C           -2.425481506836     5.681136478894    -0.280415720939    12.000000000000
         C           -1.194748179167     7.786158722300    -0.271938651527    12.000000000000
         C            0.037954866205     7.099436173748    -0.274109355832    12.000000000000
         C            0.030328424687     5.669504087695    -0.279592740748    12.000000000000
         C           -1.200988670637     4.969284875906    -0.270623006814    12.000000000000
         C            1.277953663083     7.772873971185    -0.272733507271    12.000000000000
         C            2.485353921992     7.087711413228    -0.275007995176    12.000000000000
         C            2.486124522185     5.654785338231    -0.281945744164    12.000000000000
         C            1.254078756912     4.956092641655    -0.270317802576    12.000000000000
         C            3.751710428674     7.763926678971    -0.274881143796    12.000000000000
         C            4.923561893453     7.078795304981    -0.276937624504    12.000000000000
         C            4.955603108594     5.643461991360    -0.277098037311    12.000000000000
         C            3.706797371473     4.941224736324    -0.272006477141    12.000000000000
         H           -3.658525300490     8.890841947126    -0.271920186079     1.007825032230
         H           -1.189217492488     8.874135615351    -0.267966775086     1.007825032230
         H            1.284290076155     8.860847963479    -0.268574683130     1.007825032230
         H            3.753537924068     8.851049806963    -0.273358619480     1.007825032230
         H            5.869954540475     7.613809362646    -0.277862991546     1.007825032230
         H           -5.788235870234     7.676316740925    -0.277531596618     1.007825032230
         C           -6.091978121428     4.993274541634    -0.278416900851    12.000000000000
         C           -6.128665643049     3.582594696789    -0.277215723822    12.000000000000
         C           -3.664583902777     3.564196707735    -0.280140818440    12.000000000000
         C           -4.894302367430     2.861095303891    -0.270971833454    12.000000000000
         C           -2.437339157630     2.847626185075    -0.268309039903    12.000000000000
         C           -1.209232020328     3.547901462969    -0.281988066695    12.000000000000
         C            1.247137409430     3.534695279420    -0.282796673100    12.000000000000
         C            0.015171876837     2.833126367296    -0.271112489876    12.000000000000
         C            2.467641009709     2.821304505246    -0.271012431752    12.000000000000
         C            3.702545311848     3.524674682415    -0.284500392595    12.000000000000
         C            6.144976223652     4.927586894122    -0.278331482522    12.000000000000
         C            6.166584196130     3.516599003933    -0.276164929086    12.000000000000
         C            4.924605795728     2.808422453345    -0.269626182849    12.000000000000
         H            7.089901346909     5.466902294214    -0.282093363372     1.007825032230
         H           -7.031045913833     5.542702480848    -0.282650115802     1.007825032230
         C           -7.339702203855     2.858426062570    -0.278842891264    12.000000000000
         C           -7.364886120791     1.470337899574    -0.277077353136    12.000000000000
         C           -4.903508771679     1.444441340151    -0.281793617328    12.000000000000
         C           -6.132261315343     0.739953885044    -0.269503573345    12.000000000000
         C           -3.676878963248     0.726711670664    -0.271165900928    12.000000000000
         C           -2.445660748797     1.429655661253    -0.281475611129    12.000000000000
         C           -1.223604844033     0.715339029625    -0.270046346598    12.000000000000
         C            0.007633706582     1.417397677228    -0.271580692880    12.000000000000
         C            1.231215645015     0.702131218578    -0.290407278537    12.000000000000
         C            2.460816937799     1.403306564116    -0.270902769646    12.000000000000
         C            3.684426091464     0.687212956203    -0.271731555923    12.000000000000
         C            4.918704738807     1.391749089180    -0.284133377558    12.000000000000
         C            7.369797915229     2.779496731175    -0.277925348878    12.000000000000
         C            7.380158503390     1.391232035846    -0.276378666033    12.000000000000
         C            6.139795376391     0.674133151191    -0.270050324221    12.000000000000
         H           -8.279194962078     3.407132569115    -0.283140443385     1.007825032230
         H            8.315109308748     3.318132624614    -0.282135924678     1.007825032230
         C           -8.591760100313     0.724847081035    -0.276736925518    12.000000000000
         C           -8.599028766435    -0.632625278238    -0.274613800936    12.000000000000
         C           -6.139817301850    -0.674122109163    -0.281603142271    12.000000000000
         C           -7.380188274869    -1.391251661591    -0.274187080730    12.000000000000
         C           -4.918688642988    -1.391740490039    -0.269262644121    12.000000000000
         C           -3.684442458416    -0.687222787745    -0.280294884186    12.000000000000
         C           -2.460821202979    -1.403330650834    -0.269751797996    12.000000000000
         C           -1.231166175052    -0.702159336890    -0.281872176788    12.000000000000
         C           -0.007573788119    -1.417404321420    -0.274415652485    12.000000000000
         C            1.223643553157    -0.715260849273    -0.264410030536    12.000000000000
         C            2.445666486600    -1.429628761016    -0.276160043296    12.000000000000
         C            3.676862540115    -0.726692903565    -0.280300627691    12.000000000000
         C            6.132244683688    -0.739964311859    -0.281828601903    12.000000000000
         C            4.903514982772    -1.444442992550    -0.267987527363    12.000000000000
         C            8.599010685959     0.632618394658    -0.276516549888    12.000000000000
         C            8.591741325369    -0.724836339203    -0.274780169627    12.000000000000
         C            7.364858601658    -1.470318137615    -0.275010346320    12.000000000000
         H           -9.528310134550     1.276861977183    -0.278206852483     1.007825032230
         H            9.541406811874     1.174587016435    -0.277568582150     1.007825032230
         C           -7.369842072500    -2.779530617943    -0.272378872308    12.000000000000
         C           -4.924603271782    -2.808422729350    -0.280110504744    12.000000000000
         C           -6.166626658399    -3.516637664835    -0.273808664585    12.000000000000
         C           -3.702514522437    -3.524667021130    -0.269786435558    12.000000000000
         C           -2.467651147846    -2.821311434813    -0.281831073915    12.000000000000
         C           -0.015137636839    -2.833127117409    -0.281549485406    12.000000000000
         C           -1.247126003958    -3.534717647572    -0.269985531997    12.000000000000
         C            1.209240906912    -3.547900150653    -0.267446502206    12.000000000000
         C            2.437331859423    -2.847627210185    -0.281586260517    12.000000000000
         C            4.894298181039    -2.861108440295    -0.280765520446    12.000000000000
         C            3.664611092309    -3.564205317541    -0.267886100505    12.000000000000
         C            6.128634852014    -3.582569529727    -0.274540258548    12.000000000000
         C            7.339668501964    -2.858398779380    -0.273025032466    12.000000000000
         H           -9.541453273991    -1.174548938674    -0.273244384763     1.007825032230
         H            9.528257705340    -1.276904545914    -0.273530361866     1.007825032230
         H           -8.315169206580    -3.318135325222    -0.268206643777     1.007825032230
         H            8.279150979760    -3.407126261903    -0.268685476483     1.007825032230
         C           -6.144998351434    -4.927632744793    -0.272482666525    12.000000000000
         C           -3.706787510729    -4.941247186127    -0.282303634613    12.000000000000
         C           -4.955594220733    -5.643479445504    -0.274336499968    12.000000000000
         C           -2.486125488958    -5.654771046419    -0.269363963568    12.000000000000
         C           -1.254062498212    -4.956107522011    -0.280539569554    12.000000000000
         C            1.201008411136    -4.969265860202    -0.279358445296    12.000000000000
         C           -0.030340837145    -5.669505775148    -0.271515245632    12.000000000000
         C            3.653745938597    -4.980729247424    -0.278600445548    12.000000000000
         C            2.425488533144    -5.681160107537    -0.269223514996    12.000000000000
         C            6.091961455079    -4.993243435396    -0.272246031874    12.000000000000
         C            4.894972281879    -5.696333892967    -0.273482227704    12.000000000000
         H           -7.089896550772    -5.466985314248    -0.268079904843     1.007825032230
         H            7.031051046468    -5.542644008342    -0.268666252110     1.007825032230
         C           -4.923549484930    -7.078806571687    -0.274891268873    12.000000000000
         C           -2.485346250970    -7.087713549939    -0.277401161308    12.000000000000
         C           -3.751690054511    -7.763932629646    -0.277206482383    12.000000000000
         C           -0.037953119720    -7.099450346479    -0.277185436161    12.000000000000
         C           -1.277960263133    -7.772889856676    -0.279170128923    12.000000000000
         C            2.409440157995    -7.114007484012    -0.276322235350    12.000000000000
         C            1.194745774421    -7.786170837572    -0.278474526232    12.000000000000
         C            4.847616889766    -7.131247582589    -0.273815420690    12.000000000000
         C            3.668467443144    -7.803773464953    -0.276163855054    12.000000000000
         H           -5.869944513148    -7.613816070051    -0.273347232007     1.007825032230
         H            5.788245462656    -7.676317661324    -0.272688301208     1.007825032230
         H           -3.753531102181    -8.851057041246    -0.279042396812     1.007825032230
         H           -1.284308568626    -8.860860864507    -0.283597512781     1.007825032230
         H            1.189217411964    -8.874146092599    -0.282567162922     1.007825032230
         H            3.658542452092    -8.890846106063    -0.277818396477     1.007825032230

  Charge       = 0
  Multiplicity = 1
  Basis Set: JUN-CC-PVDZ
    Blend: JUN-CC-PVDZ
  Basis Set: (JUN-CC-PVDZ AUX)
    Blend: JUN-CC-PVDZ-JKFIT

    Orbital Energies [Eh]
    ---------------------

    Doubly Occupied:

       1A    -11.264088     2A    -11.263741     3A    -11.263739
       4A    -11.263338     5A    -11.263337     6A    -11.263298
       7A    -11.263151     8A    -11.263136     9A    -11.263129
      10A    -11.262907    11A    -11.262780    12A    -11.262775
      13A    -11.262285    14A    -11.262281    15A    -11.262242
      16A    -11.262237    17A    -11.262136    18A    -11.262126
      19A    -11.262085    20A    -11.262041    21A    -11.262038
      22A    -11.261925    23A    -11.261919    24A    -11.261770
      25A    -11.261760    26A    -11.261742    27A    -11.261735
      28A    -11.261694    29A    -11.261685    30A    -11.261588
      31A    -11.261571    32A    -11.261565    33A    -11.261558
      34A    -11.261541    35A    -11.261539    36A    -11.261522
      37A    -11.261341    38A    -11.261332    39A    -11.261326
      40A    -11.261321    41A    -11.261314    42A    -11.261310
      43A    -11.261297    44A    -11.261281    45A    -11.261277
      46A    -11.261251    47A    -11.261248    48A    -11.261241
      49A    -11.261072    50A    -11.261046    51A    -11.261039
      52A    -11.260971    53A    -11.260967    54A    -11.260911
      55A    -11.259924    56A    -11.259911    57A    -11.259907
      58A    -11.259879    59A    -11.259876    60A    -11.259860
      61A    -11.259295    62A    -11.259269    63A    -11.259267
      64A    -11.259214    65A    -11.259212    66A    -11.259182
      67A    -11.258926    68A    -11.258909    69A    -11.258906
      70A    -11.258878    71A    -11.258876    72A    -11.258864
      73A    -11.254533    74A    -11.254533    75A    -11.254528
      76A    -11.254526    77A    -11.254524    78A    -11.254522
      79A    -11.253663    80A    -11.253662    81A    -11.253657
      82A    -11.253655    83A    -11.253655    84A    -11.253653
      85A    -11.253579    86A    -11.253578    87A    -11.253573
      88A    -11.253571    89A    -11.253570    90A    -11.253568
      91A    -11.253061    92A    -11.253060    93A    -11.253056
      94A    -11.253054    95A    -11.253051    96A    -11.253050
      97A     -1.253933    98A     -1.238999    99A     -1.238996
     100A     -1.220469   101A     -1.220464   102A     -1.215430
     103A     -1.201047   104A     -1.195614   105A     -1.188136
     106A     -1.188132   107A     -1.173773   108A     -1.173770
     109A     -1.155625   110A     -1.155623   111A     -1.152705
     112A     -1.144732   113A     -1.144729   114A     -1.128568
     115A     -1.114714   116A     -1.113171   117A     -1.112475
     118A     -1.112459   119A     -1.111628   120A     -1.088429
     121A     -1.088415   122A     -1.076969   123A     -1.076967
     124A     -1.067615   125A     -1.067586   126A     -1.064965
     127A     -1.046805   128A     -1.046798   129A     -1.040481
     130A     -1.038742   131A     -1.038742   132A     -1.025239
     133A     -1.021376   134A     -1.021324   135A     -1.007187
     136A     -1.006815   137A     -1.003800   138A     -1.000487
     139A     -1.000439   140A     -0.991082   141A     -0.970990
     142A     -0.970942   143A     -0.955887   144A     -0.955832
     145A     -0.905584   146A     -0.905558   147A     -0.905541
     148A     -0.905517   149A     -0.904320   150A     -0.892361
     151A     -0.892302   152A     -0.890360   153A     -0.890303
     154A     -0.889455   155A     -0.872223   156A     -0.869063
     157A     -0.851546   158A     -0.847864   159A     -0.847842
     160A     -0.845594   161A     -0.843018   162A     -0.834568
     163A     -0.834555   164A     -0.828122   165A     -0.828118
     166A     -0.784550   167A     -0.784539   168A     -0.783658
     169A     -0.783632   170A     -0.782287   171A     -0.782267
     172A     -0.782028   173A     -0.766996   174A     -0.760785
     175A     -0.750565   176A     -0.733490   177A     -0.727073
     178A     -0.727059   179A     -0.725083   180A     -0.724545
     181A     -0.724526   182A     -0.718479   183A     -0.713766
     184A     -0.713759   185A     -0.699575   186A     -0.699563
     187A     -0.686109   188A     -0.685961   189A     -0.685958
     190A     -0.682177   191A     -0.682167   192A     -0.678765
     193A     -0.653622   194A     -0.650870   195A     -0.650840
     196A     -0.649804   197A     -0.649788   198A     -0.649569
     199A     -0.640917   200A     -0.640889   201A     -0.640092
     202A     -0.639167   203A     -0.636013   204A     -0.635986
     205A     -0.629141   206A     -0.617745   207A     -0.615307
     208A     -0.615287   209A     -0.608803   210A     -0.608796
     211A     -0.599125   212A     -0.599087   213A     -0.598738
     214A     -0.598604   215A     -0.598581   216A     -0.598022
     217A     -0.595070   218A     -0.595057   219A     -0.594720
     220A     -0.594222   221A     -0.591948   222A     -0.591945
     223A     -0.587377   224A     -0.577799   225A     -0.577790
     226A     -0.575670   227A     -0.575667   228A     -0.573383
     229A     -0.569582   230A     -0.568129   231A     -0.568105
     232A     -0.566749   233A     -0.566738   234A     -0.560916
     235A     -0.558708   236A     -0.558689   237A     -0.558430
     238A     -0.554365   239A     -0.550549   240A     -0.547477
     241A     -0.544261   242A     -0.535029   243A     -0.534992
     244A     -0.533533   245A     -0.533512   246A     -0.528077
     247A     -0.528062   248A     -0.527776   249A     -0.517150
     250A     -0.517116   251A     -0.515348   252A     -0.515342
     253A     -0.509642   254A     -0.509627   255A     -0.498026
     256A     -0.496446   257A     -0.496420   258A     -0.493801
     259A     -0.493787   260A     -0.489438   261A     -0.481451
     262A     -0.477414   263A     -0.477411   264A     -0.473992
     265A     -0.469434   266A     -0.466520   267A     -0.466515
     268A     -0.458795   269A     -0.446670   270A     -0.446609
     271A     -0.441031   272A     -0.440766   273A     -0.440743
     274A     -0.434681   275A     -0.433906   276A     -0.407367
     277A     -0.407344   278A     -0.386397   279A     -0.386349
     280A     -0.385726   281A     -0.385725   282A     -0.383739
     283A     -0.354306   284A     -0.354290   285A     -0.350649
     286A     -0.338102   287A     -0.335590   288A     -0.335516
     289A     -0.332706   290A     -0.332700   291A     -0.307045
     292A     -0.301931   293A     -0.301869   294A     -0.300843
     295A     -0.286168   296A     -0.256465   297A     -0.253487
     298A     -0.253433   299A     -0.204256   300A     -0.204167

  @DF-RHF Final Energy: -3650.33998525526113

   => Energetics <=

    Nuclear Repulsion Energy =          15611.4211649754324753
    One-Electron Energy =              -36072.1456444232317153
    Two-Electron Energy =               16810.3844941925381136
    Total Energy =                      -3650.3399852552611264
 Dipole X            :         -0.0003421            0.0002304           -0.0001117
 Dipole Y            :          0.0012345           -0.0013052           -0.0000707
 Dipole Z            :        312.3720385         -312.3742503           -0.0022119
 Magnitude           :                                                    0.0022158

    SAPT Results
  --------------------------------------------------------------------------------------------------------
    Electrostatics                 11.65853571 [mEh]       7.31584161 [kcal/mol]      30.60948129 [kJ/mol]
      Elst10,r                     11.65853571 [mEh]       7.31584161 [kcal/mol]      30.60948129 [kJ/mol]

    Exchange                        2.22406149 [mEh]       1.39561965 [kcal/mol]       5.83927263 [kJ/mol]
      Exch10                        2.22406149 [mEh]       1.39561965 [kcal/mol]       5.83927263 [kJ/mol]
      Exch10(S^2)                   2.22400024 [mEh]       1.39558122 [kcal/mol]       5.83911183 [kJ/mol]

    Induction                     -14.41059799 [mEh]      -9.04278676 [kcal/mol]     -37.83501982 [kJ/mol]
      Ind20,r                     -14.81826759 [mEh]      -9.29860330 [kcal/mol]     -38.90535621 [kJ/mol]
      Exch-Ind20,r                  0.53124165 [mEh]       0.33335917 [kcal/mol]       1.39477475 [kJ/mol]
      delta HF,r (2)               -0.12357205 [mEh]      -0.07754263 [kcal/mol]      -0.32443836 [kJ/mol]

    Dispersion                     -6.56570027 [mEh]      -4.12003912 [kcal/mol]     -17.23824368 [kJ/mol]
      Disp20                       -6.97507910 [mEh]      -4.37692821 [kcal/mol]     -18.31306764 [kJ/mol]
      Exch-Disp20                   0.40937883 [mEh]       0.25688909 [kcal/mol]       1.07482396 [kJ/mol]
      Disp20 (SS)                  -3.48753955 [mEh]      -2.18846411 [kcal/mol]      -9.15653382 [kJ/mol]
      Disp20 (OS)                  -3.48753955 [mEh]      -2.18846411 [kcal/mol]      -9.15653382 [kJ/mol]
      Exch-Disp20 (SS)              0.25614902 [mEh]       0.16073594 [kcal/mol]       0.67251915 [kJ/mol]
      Exch-Disp20 (OS)              0.15322981 [mEh]       0.09615316 [kcal/mol]       0.40230481 [kJ/mol]

  Total HF                         -0.52800079 [mEh]      -0.33132550 [kcal/mol]      -1.38626590 [kJ/mol]
  Total SAPT0                      -7.09370106 [mEh]      -4.45136462 [kcal/mol]     -18.62450958 [kJ/mol]

  Special recipe for scaled SAPT0 (see Manual):
    Electrostatics sSAPT0          11.65853571 [mEh]       7.31584161 [kcal/mol]      30.60948129 [kJ/mol]
    Exchange sSAPT0                 2.22406149 [mEh]       1.39561965 [kcal/mol]       5.83927263 [kJ/mol]
    Induction sSAPT0              -14.41055410 [mEh]      -9.04275922 [kcal/mol]     -37.83490458 [kJ/mol]
    Dispersion sSAPT0              -6.56566645 [mEh]      -4.12001790 [kcal/mol]     -17.23815488 [kJ/mol]
  Total sSAPT0                     -7.09362335 [mEh]      -4.45131586 [kcal/mol]     -18.62430555 [kJ/mol]
  --------------------------------------------------------------------------------------------------------

*** Psi4 exiting successfully. Buy a developer a beer!
