                               Psi4 1.9 release

  ==> Input File <==

--------------------------------------------------------------------------
memory 64 GB # how much memory is available ! Depends on the nodes/cores !

molecule dimer {
# monomer A
-1 1    # Charge and multiplicity
B -1.977592e-04  2.742729e-04 7.000034
F  1.123153e-16  1.430594e-17 8.412819
F  1.147860e+00  6.757812e-01 6.528893
F  1.191806e-02 -1.332011e+00 6.529095
F -1.159666e+00  6.560735e-01 6.529174
--
# monomer B
0 1     # Charge and multiplicity
C   -3.66844126402057      7.80375217008252      0.00190004133558
C   -4.84759871934653      7.13124183134024     -0.00046653359696
C   -4.89495929917518      5.69633040353158     -0.00103944469517
C   -3.65374067877320      4.98073034095895      0.00662099703436
C   -2.40942512149445      7.11398103667468      0.00209438359570
C   -2.42547734410473      5.68112195090346     -0.00491050527438
C   -1.19474401643570      7.78614419430947      0.00356656413763
C   0.03795902893699      7.09942164575698      0.00139585983271
C   0.03033258741920      5.66948955970466     -0.00408752508301
C   -1.20098450790502      4.96927034791531      0.00488220885047
C   1.27795782581485      7.77285944319479      0.00277170839332
C   2.48535808472416      7.08769688523756      0.00049722048857
C   2.48612868491717      5.65477081024076     -0.00644052849921
C   1.25408291964399      4.95607811366431      0.00518741308898
C   3.75171459140595      7.76391215098033      0.00062407186893
C   4.92356605618520      7.07878077698995     -0.00143240883900
C   4.95560727132542      5.64344746336949     -0.00159282164606
C   3.70680153420475      4.94121020833308      0.00349873852374
H   -3.65852113775815      8.89082741913536      0.00358502958574
H   -1.18921332975660      8.87412108735996      0.00753844057883
H   1.28429423888630      8.86083343548850      0.00693053253426
H   3.75354208679975      8.85103527897216      0.00214659618464
H   5.86995870320703      7.61379483465560     -0.00235777588134
H   -5.78823170750226      7.67630221293400     -0.00202638095293
C   -6.09197395869619      4.99326001364347     -0.00291168518608
C   -6.12866148031747      3.58258016879823     -0.00171050815740
C   -3.66457974004527      3.56418217974434     -0.00463560277484
C   -4.89429820469869      2.86108077590057      0.00453338221034
C   -2.43733499489796      2.84761165708481      0.00719617576166
C   -1.20922785759670      3.54788693497833     -0.00648285103018
C   1.24714157216223      3.53468075142962     -0.00729145743546
C   0.01517603956900      2.83311183930540      0.00439272578912
C   2.46764517244071      2.82128997725533      0.00449278391269
C   3.70254947457969      3.52466015442405     -0.00899517692985
C   6.14498038638375      4.92757236613191     -0.00282626685777
C   6.16658835886151      3.51658447594213     -0.00065971342101
C   4.92460995845939      2.80840792535402      0.00587903281610
H   7.08990550964105      5.46688776622306     -0.00658814770723
H   -7.03104175110130      5.54268795285765     -0.00714490013730
C   -7.33969804112295      2.85841153457957     -0.00333767559888
C   -7.36488195805880      1.47032337158330     -0.00157213747140
C   -4.90350460894690      1.44442681216000     -0.00628840166334
C   -6.13225715261081      0.73993935705394      0.00600164231964
C   -3.67687480051673      0.72669714267312      0.00433931473643
C   -2.44565658606518      1.42964113326212     -0.00597039546461
C   -1.22360068130162      0.71532450163492      0.00545886906656
C   0.00763786931376      1.41738314923765      0.00392452278437
C   1.23121980774686      0.70211669058719     -0.01490206287210
C   2.46082110053113      1.40329203612573      0.00460244601878
C   3.68443025419614      0.68719842821222      0.00377365974158
C   4.91870890153864      1.39173456118907     -0.00862816189375
C   7.36980207796101      2.77948220318441     -0.00242013321349
C   7.38016266612146      1.39121750785509     -0.00087345036788
C   6.13979953912259      0.67411862320065      0.00545489144369
H   -8.27919079934664      3.40711804112415     -0.00763522772059
H   8.31511347147953      3.31811809662368     -0.00663070901292
C   -8.59175593758115      0.72483255304480     -0.00123170985383
C   -8.59902460370342     -0.63263980622873      0.00089141472904
C   -6.13981313911873     -0.67413663715361     -0.00609792660607
C   -7.38018411213749     -1.39126618958160      0.00131813493501
C   -4.91868448025621     -1.39175501803000      0.00624257154343
C   -3.68443829568458     -0.68723731573599     -0.00478966852105
C   -2.46081704024768     -1.40334517882457      0.00575341766833
C   -1.23116201232071     -0.70217386488055     -0.00636696112346
C   -0.00756962538737     -1.41741884941102      0.00108956317991
C   1.22364771588843     -0.71527537726392      0.01109518512883
C   2.44567064933149     -1.42964328900682     -0.00065482763106
C   3.67686670284649     -0.72670743155550     -0.00479541202602
C   6.13224884641929     -0.73997883984993     -0.00632338623858
C   4.90351914550401     -1.44445752054090      0.00751768830159
C   8.59901484869081      0.63260386666793     -0.00101133422380
C   8.59174548810050     -0.72485086719319      0.00072504603735
C   7.36486276438985     -1.47033266560598      0.00049486934466
H   -9.52830597181814      1.27684744919284     -0.00270163681798
H   9.54141097460619      1.17457248844457     -0.00206336648518
C   -7.36983790976868     -2.77954514593389      0.00312634335708
C   -4.92459910905015     -2.80843725734101     -0.00460528907921
C   -6.16662249566744     -3.51665219282533      0.00169655107992
C   -3.70251035970491     -3.52468154912026      0.00571878010666
C   -2.46764698511392     -2.82132596280400     -0.00632585824990
C   -0.01513347410770     -2.83314164539971     -0.00604426974092
C   -1.24712184122656     -3.53473217556300      0.00551968366725
C   1.20924506964357     -3.54791467864352      0.00805871345849
C   2.43733602215464     -2.84764173817541     -0.00608104485234
C   4.89430234377080     -2.86112296828604     -0.00526030478103
C   3.66461525504104     -3.56421984553201      0.00761911515957
C   6.12863901474565     -3.58258405771778      0.00096495711699
C   7.33967266469532     -2.85841330737039      0.00248018319869
H   -9.54144911125902     -1.17456346666430      0.00226083090216
H   9.52826186807155     -1.27691907390448      0.00197485379837
H   -8.31516504384864     -3.31814985321231      0.00729857188773
H   8.27915514249207     -3.40714078989363      0.00681973918158
C   -6.14499418870218     -4.92764727278338      0.00302254913999
C   -3.70678334799751     -4.94126171411716     -0.00679841894792
C   -4.95559005800169     -5.64349397349412      0.00116871569699
C   -2.48612132622665     -5.65478557440947      0.00614125209662
C   -1.25405833548005     -4.95612205000132     -0.00503435388927
C   1.20101257386816     -4.96928038819302     -0.00385322963129
C   -0.03033667441341     -5.66952030313900      0.00398997003238
C   3.65375010132847     -4.98074377541453     -0.00309522988330
C   2.42549269587528     -5.68117463552727      0.00628170066869
C   6.09196561781097     -4.99325796338655      0.00325918379042
C   4.89497644461045     -5.69634842095790      0.00202298796027
H   -7.08989238804069     -5.46699984223871      0.00742531082125
H   7.03105520920009     -5.54265853633254      0.00683896355417
C   -4.92354532219813     -7.07882109967734      0.00061394679214
C   -2.48534208823777     -7.08772807792913     -0.00189594564379
C   -3.75168589177895     -7.76394715763627     -0.00170126671874
C   -0.03794895698805     -7.09946487446944     -0.00168022049625
C   -1.27795610040136     -7.77290438466689     -0.00366491325785
C   2.40944432072629     -7.11402201200282     -0.00081701968533
C   1.19474993715296     -7.78618536556242     -0.00296931056689
C   4.84762105249800     -7.13126211057943      0.00168979497423
C   3.66847160587561     -7.80378799294376     -0.00065863938960
H   -5.86994035041618     -7.61383059804164      0.00215798365757
H   5.78824962538815     -7.67633218931421      0.00281691445618
H   -3.75352693944918     -8.85107156923607     -0.00353718114765
H   -1.28430440589466     -8.86087539249706     -0.00809229711623
H   1.18922157469537     -8.87416062058945     -0.00706194725726
H   3.65854661482387     -8.89086063405326     -0.00231318081200

    units angstrom      # Angstroms are the default
    no_reorient         # Geometry fixed, default
    symmetry c1         # C1 symmetry, default
}

set {
    scf_type DF         # Density fitting, faster than exact integrals
    freeze_core True    # Freeze core electrons
    basis jun-cc-pVDZ   # Jun-cc-pVDZ basis set, recommended for sSAPT0 in https://doi.org/10.1063/1.4867135
}

energy('ssapt0')        # Compute sSAPT0 energy, includes also SAPT0
--------------------------------------------------------------------------

  //              Dimer HF             //
    Molecular point group: c1
  Charge       = -1
  Multiplicity = 1
  Basis Set: JUN-CC-PVDZ
    Blend: JUN-CC-PVDZ
  Basis Set: (JUN-CC-PVDZ AUX)
    Blend: JUN-CC-PVDZ-JKFIT
  @DF-RHF Final Energy: -4073.10381716060874
    Total Energy =                      -4073.1038171606087417
 Dipole X            :         -0.0006868           -0.0000548           -0.0007416
 Dipole Y            :          0.0010293           -0.0002464            0.0007829
 Dipole Z            :         30.3046170          -41.6583981          -11.3537811
 Magnitude           :                                                   11.3537811
  //            Monomer A HF           //
    Molecular point group: c1
  Multiplicity = 1
  Basis Set: JUN-CC-PVDZ
    Blend: JUN-CC-PVDZ
  Basis Set: (JUN-CC-PVDZ AUX)
    Blend: JUN-CC-PVDZ-JKFIT
  @DF-RHF Final Energy:  -422.77144166692494
    Total Energy =                       -422.7714416669249431
  //            Monomer B HF           //
    Molecular point group: c1

    Geometry (in Angstrom), charge = 0, multiplicity = 1:

       Center              X                  Y                   Z               Mass
    ------------   -----------------  -----------------  -----------------  -----------------
      Gh(B)          -0.000201921932     0.000288800891     6.517902223396    11.009305360000
      Gh(F)          -0.000004162732     0.000014527991     7.930687223396    18.998403162730
      Gh(F)           1.147855837268     0.675795727991     6.046761223396    18.998403162730
      Gh(F)           0.011913897268    -1.331996472009     6.046963223396    18.998403162730
      Gh(F)          -1.159670162732     0.656088027991     6.047042223396    18.998403162730
         C           -3.668445426752     7.803766698073    -0.480231735268    12.000000000000
         C           -4.847602882078     7.131256359331    -0.482598310201    12.000000000000
         C           -4.894963461907     5.696344931522    -0.483171221299    12.000000000000
         C           -3.653744841505     4.980744868950    -0.475510779570    12.000000000000
         C           -2.409429284226     7.113995564665    -0.480037393008    12.000000000000
         C           -2.425481506836     5.681136478894    -0.487042281878    12.000000000000
         C           -1.194748179167     7.786158722300    -0.478565212466    12.000000000000
         C            0.037954866205     7.099436173748    -0.480735916771    12.000000000000
         C            0.030328424687     5.669504087695    -0.486219301687    12.000000000000
         C           -1.200988670637     4.969284875906    -0.477249567753    12.000000000000
         C            1.277953663083     7.772873971185    -0.479360068211    12.000000000000
         C            2.485353921992     7.087711413228    -0.481634556115    12.000000000000
         C            2.486124522185     5.654785338231    -0.488572305103    12.000000000000
         C            1.254078756912     4.956092641655    -0.476944363515    12.000000000000
         C            3.751710428674     7.763926678971    -0.481507704735    12.000000000000
         C            4.923561893453     7.078795304981    -0.483564185443    12.000000000000
         C            4.955603108594     5.643461991360    -0.483724598250    12.000000000000
         C            3.706797371473     4.941224736324    -0.478633038080    12.000000000000
         H           -3.658525300490     8.890841947126    -0.478546747018     1.007825032230
         H           -1.189217492488     8.874135615351    -0.474593336025     1.007825032230
         H            1.284290076155     8.860847963479    -0.475201244070     1.007825032230
         H            3.753537924068     8.851049806963    -0.479985180419     1.007825032230
         H            5.869954540475     7.613809362646    -0.484489552485     1.007825032230
         H           -5.788235870234     7.676316740925    -0.484158157557     1.007825032230
         C           -6.091978121428     4.993274541634    -0.485043461790    12.000000000000
         C           -6.128665643049     3.582594696789    -0.483842284761    12.000000000000
         C           -3.664583902777     3.564196707735    -0.486767379379    12.000000000000
         C           -4.894302367430     2.861095303891    -0.477598394394    12.000000000000
         C           -2.437339157630     2.847626185075    -0.474935600842    12.000000000000
         C           -1.209232020328     3.547901462969    -0.488614627634    12.000000000000
         C            1.247137409430     3.534695279420    -0.489423234039    12.000000000000
         C            0.015171876837     2.833126367296    -0.477739050815    12.000000000000
         C            2.467641009709     2.821304505246    -0.477638992691    12.000000000000
         C            3.702545311848     3.524674682415    -0.491126953534    12.000000000000
         C            6.144976223652     4.927586894122    -0.484958043462    12.000000000000
         C            6.166584196130     3.516599003933    -0.482791490025    12.000000000000
         C            4.924605795728     2.808422453345    -0.476252743788    12.000000000000
         H            7.089901346909     5.466902294214    -0.488719924311     1.007825032230
         H           -7.031045913833     5.542702480848    -0.489276676741     1.007825032230
         C           -7.339702203855     2.858426062570    -0.485469452203    12.000000000000
         C           -7.364886120791     1.470337899574    -0.483703914075    12.000000000000
         C           -4.903508771679     1.444441340151    -0.488420178267    12.000000000000
         C           -6.132261315343     0.739953885044    -0.476130134284    12.000000000000
         C           -3.676878963248     0.726711670664    -0.477792461867    12.000000000000
         C           -2.445660748797     1.429655661253    -0.488102172068    12.000000000000
         C           -1.223604844033     0.715339029625    -0.476672907537    12.000000000000
         C            0.007633706582     1.417397677228    -0.478207253820    12.000000000000
         C            1.231215645015     0.702131218578    -0.497033839476    12.000000000000
         C            2.460816937799     1.403306564116    -0.477529330585    12.000000000000
         C            3.684426091464     0.687212956203    -0.478358116862    12.000000000000
         C            4.918704738807     1.391749089180    -0.490759938498    12.000000000000
         C            7.369797915229     2.779496731175    -0.484551909817    12.000000000000
         C            7.380158503390     1.391232035846    -0.483005226972    12.000000000000
         C            6.139795376391     0.674133151191    -0.476676885160    12.000000000000
         H           -8.279194962078     3.407132569115    -0.489767004324     1.007825032230
         H            8.315109308748     3.318132624614    -0.488762485617     1.007825032230
         C           -8.591760100313     0.724847081035    -0.483363486458    12.000000000000
         C           -8.599028766435    -0.632625278238    -0.481240361875    12.000000000000
         C           -6.139817301850    -0.674122109163    -0.488229703210    12.000000000000
         C           -7.380188274869    -1.391251661591    -0.480813641669    12.000000000000
         C           -4.918688642988    -1.391740490039    -0.475889205060    12.000000000000
         C           -3.684442458416    -0.687222787745    -0.486921445125    12.000000000000
         C           -2.460821202979    -1.403330650834    -0.476378358936    12.000000000000
         C           -1.231166175052    -0.702159336890    -0.488498737727    12.000000000000
         C           -0.007573788119    -1.417404321420    -0.481042213424    12.000000000000
         C            1.223643553157    -0.715260849273    -0.471036591475    12.000000000000
         C            2.445666486600    -1.429628761016    -0.482786604235    12.000000000000
         C            3.676862540115    -0.726692903565    -0.486927188630    12.000000000000
         C            6.132244683688    -0.739964311859    -0.488455162842    12.000000000000
         C            4.903514982772    -1.444442992550    -0.474614088302    12.000000000000
         C            8.599010685959     0.632618394658    -0.483143110828    12.000000000000
         C            8.591741325369    -0.724836339203    -0.481406730567    12.000000000000
         C            7.364858601658    -1.470318137615    -0.481636907259    12.000000000000
         H           -9.528310134550     1.276861977183    -0.484833413422     1.007825032230
         H            9.541406811874     1.174587016435    -0.484195143089     1.007825032230
         C           -7.369842072500    -2.779530617943    -0.479005433247    12.000000000000
         C           -4.924603271782    -2.808422729350    -0.486737065683    12.000000000000
         C           -6.166626658399    -3.516637664835    -0.480435225524    12.000000000000
         C           -3.702514522437    -3.524667021130    -0.476412996497    12.000000000000
         C           -2.467651147846    -2.821311434813    -0.488457634854    12.000000000000
         C           -0.015137636839    -2.833127117409    -0.488176046345    12.000000000000
         C           -1.247126003958    -3.534717647572    -0.476612092937    12.000000000000
         C            1.209240906912    -3.547900150653    -0.474073063145    12.000000000000
         C            2.437331859423    -2.847627210185    -0.488212821456    12.000000000000
         C            4.894298181039    -2.861108440295    -0.487392081385    12.000000000000
         C            3.664611092309    -3.564205317541    -0.474512661444    12.000000000000
         C            6.128634852014    -3.582569529727    -0.481166819487    12.000000000000
         C            7.339668501964    -2.858398779380    -0.479651593405    12.000000000000
         H           -9.541453273991    -1.174548938674    -0.479870945702     1.007825032230
         H            9.528257705340    -1.276904545914    -0.480156922806     1.007825032230
         H           -8.315169206580    -3.318135325222    -0.474833204716     1.007825032230
         H            8.279150979760    -3.407126261903    -0.475312037422     1.007825032230
         C           -6.144998351434    -4.927632744793    -0.479109227464    12.000000000000
         C           -3.706787510729    -4.941247186127    -0.488930195552    12.000000000000
         C           -4.955594220733    -5.643479445504    -0.480963060907    12.000000000000
         C           -2.486125488958    -5.654771046419    -0.475990524507    12.000000000000
         C           -1.254062498212    -4.956107522011    -0.487166130493    12.000000000000
         C            1.201008411136    -4.969265860202    -0.485985006235    12.000000000000
         C           -0.030340837145    -5.669505775148    -0.478141806571    12.000000000000
         C            3.653745938597    -4.980729247424    -0.485227006487    12.000000000000
         C            2.425488533144    -5.681160107537    -0.475850075935    12.000000000000
         C            6.091961455079    -4.993243435396    -0.478872592813    12.000000000000
         C            4.894972281879    -5.696333892967    -0.480108788644    12.000000000000
         H           -7.089896550772    -5.466985314248    -0.474706465783     1.007825032230
         H            7.031051046468    -5.542644008342    -0.475292813050     1.007825032230
         C           -4.923549484930    -7.078806571687    -0.481517829812    12.000000000000
         C           -2.485346250970    -7.087713549939    -0.484027722248    12.000000000000
         C           -3.751690054511    -7.763932629646    -0.483833043323    12.000000000000
         C           -0.037953119720    -7.099450346479    -0.483811997100    12.000000000000
         C           -1.277960263133    -7.772889856676    -0.485796689862    12.000000000000
         C            2.409440157995    -7.114007484012    -0.482948796289    12.000000000000
         C            1.194745774421    -7.786170837572    -0.485101087171    12.000000000000
         C            4.847616889766    -7.131247582589    -0.480441981630    12.000000000000
         C            3.668467443144    -7.803773464953    -0.482790415993    12.000000000000
         H           -5.869944513148    -7.613816070051    -0.479973792946     1.007825032230
         H            5.788245462656    -7.676317661324    -0.479314862148     1.007825032230
         H           -3.753531102181    -8.851057041246    -0.485668957752     1.007825032230
         H           -1.284308568626    -8.860860864507    -0.490224073720     1.007825032230
         H            1.189217411964    -8.874146092599    -0.489193723861     1.007825032230
         H            3.658542452092    -8.890846106063    -0.484444957416     1.007825032230

  Charge       = 0
  Multiplicity = 1
  Basis Set: JUN-CC-PVDZ
    Blend: JUN-CC-PVDZ
  Basis Set: (JUN-CC-PVDZ AUX)
    Blend: JUN-CC-PVDZ-JKFIT

    Orbital Energies [Eh]
    ---------------------

    Doubly Occupied:

       1A    -11.264062     2A    -11.263746     3A    -11.263746
       4A    -11.263404     5A    -11.263402     6A    -11.263366
       7A    -11.263210     8A    -11.263183     9A    -11.263180
      10A    -11.263023    11A    -11.262863    12A    -11.262859
      13A    -11.262380    14A    -11.262377    15A    -11.262303
      16A    -11.262302    17A    -11.262251    18A    -11.262216
      19A    -11.262171    20A    -11.262132    21A    -11.262131
      22A    -11.261977    23A    -11.261973    24A    -11.261853
      25A    -11.261838    26A    -11.261824    27A    -11.261820
      28A    -11.261773    29A    -11.261765    30A    -11.261692
      31A    -11.261666    32A    -11.261663    33A    -11.261637
      34A    -11.261636    35A    -11.261615    36A    -11.261570
      37A    -11.261427    38A    -11.261415    39A    -11.261409
      40A    -11.261402    41A    -11.261397    42A    -11.261388
      43A    -11.261385    44A    -11.261370    45A    -11.261365
      46A    -11.261343    47A    -11.261339    48A    -11.261335
      49A    -11.261183    50A    -11.261152    51A    -11.261149
      52A    -11.261070    53A    -11.261069    54A    -11.260998
      55A    -11.260028    56A    -11.260015    57A    -11.260012
      58A    -11.259984    59A    -11.259981    60A    -11.259966
      61A    -11.259406    62A    -11.259381    63A    -11.259378
      64A    -11.259326    65A    -11.259324    66A    -11.259295
      67A    -11.259033    68A    -11.259015    69A    -11.259013
      70A    -11.258986    71A    -11.258983    72A    -11.258972
      73A    -11.254599    74A    -11.254598    75A    -11.254596
      76A    -11.254594    77A    -11.254588    78A    -11.254586
      79A    -11.253752    80A    -11.253750    81A    -11.253747
      82A    -11.253746    83A    -11.253743    84A    -11.253738
      85A    -11.253667    86A    -11.253665    87A    -11.253662
      88A    -11.253662    89A    -11.253659    90A    -11.253653
      91A    -11.253127    92A    -11.253125    93A    -11.253124
      94A    -11.253122    95A    -11.253116    96A    -11.253114
      97A     -1.254157    98A     -1.239158    99A     -1.239158
     100A     -1.220599   101A     -1.220595   102A     -1.215629
     103A     -1.201159   104A     -1.195730   105A     -1.188319
     106A     -1.188318   107A     -1.173879   108A     -1.173876
     109A     -1.155792   110A     -1.155788   111A     -1.152898
     112A     -1.144832   113A     -1.144829   114A     -1.128713
     115A     -1.114873   116A     -1.113274   117A     -1.112659
     118A     -1.112645   119A     -1.111722   120A     -1.088575
     121A     -1.088560   122A     -1.077070   123A     -1.077068
     124A     -1.067770   125A     -1.067740   126A     -1.065142
     127A     -1.046933   128A     -1.046926   129A     -1.040623
     130A     -1.038842   131A     -1.038842   132A     -1.025409
     133A     -1.021583   134A     -1.021533   135A     -1.007304
     136A     -1.006950   137A     -1.003924   138A     -1.000651
     139A     -1.000603   140A     -0.991177   141A     -0.971139
     142A     -0.971090   143A     -0.956004   144A     -0.955948
     145A     -0.905781   146A     -0.905739   147A     -0.905649
     148A     -0.905609   149A     -0.904539   150A     -0.892552
     151A     -0.892493   152A     -0.890536   153A     -0.890478
     154A     -0.889609   155A     -0.872333   156A     -0.869144
     157A     -0.851663   158A     -0.848030   159A     -0.848008
     160A     -0.845767   161A     -0.843170   162A     -0.834698
     163A     -0.834685   164A     -0.828224   165A     -0.828221
     166A     -0.784688   167A     -0.784677   168A     -0.783816
     169A     -0.783790   170A     -0.782435   171A     -0.782415
     172A     -0.782201   173A     -0.767123   174A     -0.760974
     175A     -0.750749   176A     -0.733598   177A     -0.727205
     178A     -0.727192   179A     -0.725231   180A     -0.724672
     181A     -0.724653   182A     -0.718677   183A     -0.713939
     184A     -0.713933   185A     -0.699708   186A     -0.699696
     187A     -0.686310   188A     -0.686072   189A     -0.686070
     190A     -0.682296   191A     -0.682285   192A     -0.678932
     193A     -0.653760   194A     -0.651009   195A     -0.650979
     196A     -0.649986   197A     -0.649970   198A     -0.649680
     199A     -0.641105   200A     -0.641079   201A     -0.640205
     202A     -0.639269   203A     -0.636177   204A     -0.636150
     205A     -0.629277   206A     -0.617669   207A     -0.615413
     208A     -0.615394   209A     -0.608927   210A     -0.608920
     211A     -0.599191   212A     -0.599152   213A     -0.598886
     214A     -0.598761   215A     -0.598734   216A     -0.598215
     217A     -0.595181   218A     -0.595168   219A     -0.594854
     220A     -0.594420   221A     -0.592103   222A     -0.592100
     223A     -0.587576   224A     -0.577886   225A     -0.577876
     226A     -0.575738   227A     -0.575735   228A     -0.573502
     229A     -0.569572   230A     -0.568313   231A     -0.568289
     232A     -0.566892   233A     -0.566881   234A     -0.561006
     235A     -0.558871   236A     -0.558852   237A     -0.558522
     238A     -0.554502   239A     -0.550635   240A     -0.547564
     241A     -0.544345   242A     -0.535041   243A     -0.535002
     244A     -0.533665   245A     -0.533642   246A     -0.528191
     247A     -0.528176   248A     -0.527973   249A     -0.517332
     250A     -0.517298   251A     -0.515431   252A     -0.515425
     253A     -0.509753   254A     -0.509737   255A     -0.498149
     256A     -0.496581   257A     -0.496555   258A     -0.493849
     259A     -0.493838   260A     -0.489482   261A     -0.481562
     262A     -0.477493   263A     -0.477490   264A     -0.474115
     265A     -0.469585   266A     -0.466662   267A     -0.466658
     268A     -0.458882   269A     -0.446877   270A     -0.446816
     271A     -0.441107   272A     -0.440832   273A     -0.440807
     274A     -0.434762   275A     -0.433978   276A     -0.407455
     277A     -0.407431   278A     -0.386492   279A     -0.386444
     280A     -0.385803   281A     -0.385802   282A     -0.383836
     283A     -0.354406   284A     -0.354390   285A     -0.350744
     286A     -0.338177   287A     -0.335677   288A     -0.335608
     289A     -0.332786   290A     -0.332779   291A     -0.307172
     292A     -0.302035   293A     -0.301972   294A     -0.300919
     295A     -0.286249   296A     -0.256532   297A     -0.253586
     298A     -0.253533   299A     -0.204343   300A     -0.204254

  @DF-RHF Final Energy: -3650.33755183579160

   => Energetics <=

    Nuclear Repulsion Energy =          15611.4211649754324753
    One-Electron Energy =              -36072.0724953522440046
    Two-Electron Energy =               16810.3137785410181095
    Total Energy =                      -3650.3375518357934197
 Dipole X            :         -0.0009485            0.0002304           -0.0007181
 Dipole Y            :          0.0010761           -0.0013052           -0.0002291
 Dipole Z            :        546.6531391         -546.6548166           -0.0016774
 Magnitude           :                                                    0.0018390

    SAPT Results
  --------------------------------------------------------------------------------------------------------
    Electrostatics                  8.35260879 [mEh]       5.24134115 [kcal/mol]      21.92977137 [kJ/mol]
      Elst10,r                      8.35260879 [mEh]       5.24134115 [kcal/mol]      21.92977137 [kJ/mol]

    Exchange                       -0.00018580 [mEh]      -0.00011659 [kcal/mol]      -0.00048781 [kJ/mol]
      Exch10                       -0.00018580 [mEh]      -0.00011659 [kcal/mol]      -0.00048781 [kJ/mol]
      Exch10(S^2)                  -0.00018580 [mEh]      -0.00011659 [kcal/mol]      -0.00048781 [kJ/mol]

    Induction                      -3.17608089 [mEh]      -1.99302085 [kcal/mol]      -8.33879922 [kJ/mol]
      Ind20,r                      -3.19178723 [mEh]      -2.00287673 [kcal/mol]      -8.38003622 [kJ/mol]
      Exch-Ind20,r                  0.00012208 [mEh]       0.00007660 [kcal/mol]       0.00032051 [kJ/mol]
      delta HF,r (2)                0.01558427 [mEh]       0.00977927 [kcal/mol]       0.04091648 [kJ/mol]

    Dispersion                     -0.44975680 [mEh]      -0.28222665 [kcal/mol]      -1.18083631 [kJ/mol]
      Disp20                       -0.44983134 [mEh]      -0.28227343 [kcal/mol]      -1.18103202 [kJ/mol]
      Exch-Disp20                   0.00007454 [mEh]       0.00004677 [kcal/mol]       0.00019571 [kJ/mol]
      Disp20 (SS)                  -0.22491567 [mEh]      -0.14113671 [kcal/mol]      -0.59051601 [kJ/mol]
      Disp20 (OS)                  -0.22491567 [mEh]      -0.14113671 [kcal/mol]      -0.59051601 [kJ/mol]
      Exch-Disp20 (SS)              0.00005767 [mEh]       0.00003619 [kcal/mol]       0.00015142 [kJ/mol]
      Exch-Disp20 (OS)              0.00001687 [mEh]       0.00001059 [kcal/mol]       0.00004429 [kJ/mol]

  Total HF                          5.17634211 [mEh]       3.24820371 [kcal/mol]      13.59048433 [kJ/mol]
  Total SAPT0                       4.72658531 [mEh]       2.96597706 [kcal/mol]      12.40964802 [kJ/mol]

  Special recipe for scaled SAPT0 (see Manual):
    Electrostatics sSAPT0           8.35260879 [mEh]       5.24134115 [kcal/mol]      21.92977137 [kJ/mol]
    Exchange sSAPT0                -0.00018580 [mEh]      -0.00011659 [kcal/mol]      -0.00048781 [kJ/mol]
    Induction sSAPT0               -3.17608089 [mEh]      -1.99302085 [kcal/mol]      -8.33879922 [kJ/mol]
    Dispersion sSAPT0              -0.44975680 [mEh]      -0.28222665 [kcal/mol]      -1.18083631 [kJ/mol]
  Total sSAPT0                      4.72658531 [mEh]       2.96597706 [kcal/mol]      12.40964802 [kJ/mol]
  --------------------------------------------------------------------------------------------------------

*** Psi4 exiting successfully. Buy a developer a beer!
