                               Psi4 1.9 release

  ==> Input File <==

--------------------------------------------------------------------------
memory 64 GB # how much memory is available ! Depends on the nodes/cores !

molecule dimer {
# monomer A
-1 1    # Charge and multiplicity
B -1.977592e-04  2.742729e-04 3.800034
F  1.123153e-16  1.430594e-17 5.212819
F  1.147860e+00  6.757812e-01 3.328893
F  1.191806e-02 -1.332011e+00 3.329095
F -1.159666e+00  6.560735e-01 3.329174
--
# monomer B
0 1     # Charge and multiplicity
C   -3.66844126402057      7.80375217008252      0.00190004133558
C   -4.84759871934653      7.13124183134024     -0.00046653359696
C   -4.89495929917518      5.69633040353158     -0.00103944469517
C   -3.65374067877320      4.98073034095895      0.00662099703436
C   -2.40942512149445      7.11398103667468      0.00209438359570
C   -2.42547734410473      5.68112195090346     -0.00491050527438
C   -1.19474401643570      7.78614419430947      0.00356656413763
C   0.03795902893699      7.09942164575698      0.00139585983271
C   0.03033258741920      5.66948955970466     -0.00408752508301
C   -1.20098450790502      4.96927034791531      0.00488220885047
C   1.27795782581485      7.77285944319479      0.00277170839332
C   2.48535808472416      7.08769688523756      0.00049722048857
C   2.48612868491717      5.65477081024076     -0.00644052849921
C   1.25408291964399      4.95607811366431      0.00518741308898
C   3.75171459140595      7.76391215098033      0.00062407186893
C   4.92356605618520      7.07878077698995     -0.00143240883900
C   4.95560727132542      5.64344746336949     -0.00159282164606
C   3.70680153420475      4.94121020833308      0.00349873852374
H   -3.65852113775815      8.89082741913536      0.00358502958574
H   -1.18921332975660      8.87412108735996      0.00753844057883
H   1.28429423888630      8.86083343548850      0.00693053253426
H   3.75354208679975      8.85103527897216      0.00214659618464
H   5.86995870320703      7.61379483465560     -0.00235777588134
H   -5.78823170750226      7.67630221293400     -0.00202638095293
C   -6.09197395869619      4.99326001364347     -0.00291168518608
C   -6.12866148031747      3.58258016879823     -0.00171050815740
C   -3.66457974004527      3.56418217974434     -0.00463560277484
C   -4.89429820469869      2.86108077590057      0.00453338221034
C   -2.43733499489796      2.84761165708481      0.00719617576166
C   -1.20922785759670      3.54788693497833     -0.00648285103018
C   1.24714157216223      3.53468075142962     -0.00729145743546
C   0.01517603956900      2.83311183930540      0.00439272578912
C   2.46764517244071      2.82128997725533      0.00449278391269
C   3.70254947457969      3.52466015442405     -0.00899517692985
C   6.14498038638375      4.92757236613191     -0.00282626685777
C   6.16658835886151      3.51658447594213     -0.00065971342101
C   4.92460995845939      2.80840792535402      0.00587903281610
H   7.08990550964105      5.46688776622306     -0.00658814770723
H   -7.03104175110130      5.54268795285765     -0.00714490013730
C   -7.33969804112295      2.85841153457957     -0.00333767559888
C   -7.36488195805880      1.47032337158330     -0.00157213747140
C   -4.90350460894690      1.44442681216000     -0.00628840166334
C   -6.13225715261081      0.73993935705394      0.00600164231964
C   -3.67687480051673      0.72669714267312      0.00433931473643
C   -2.44565658606518      1.42964113326212     -0.00597039546461
C   -1.22360068130162      0.71532450163492      0.00545886906656
C   0.00763786931376      1.41738314923765      0.00392452278437
C   1.23121980774686      0.70211669058719     -0.01490206287210
C   2.46082110053113      1.40329203612573      0.00460244601878
C   3.68443025419614      0.68719842821222      0.00377365974158
C   4.91870890153864      1.39173456118907     -0.00862816189375
C   7.36980207796101      2.77948220318441     -0.00242013321349
C   7.38016266612146      1.39121750785509     -0.00087345036788
C   6.13979953912259      0.67411862320065      0.00545489144369
H   -8.27919079934664      3.40711804112415     -0.00763522772059
H   8.31511347147953      3.31811809662368     -0.00663070901292
C   -8.59175593758115      0.72483255304480     -0.00123170985383
C   -8.59902460370342     -0.63263980622873      0.00089141472904
C   -6.13981313911873     -0.67413663715361     -0.00609792660607
C   -7.38018411213749     -1.39126618958160      0.00131813493501
C   -4.91868448025621     -1.39175501803000      0.00624257154343
C   -3.68443829568458     -0.68723731573599     -0.00478966852105
C   -2.46081704024768     -1.40334517882457      0.00575341766833
C   -1.23116201232071     -0.70217386488055     -0.00636696112346
C   -0.00756962538737     -1.41741884941102      0.00108956317991
C   1.22364771588843     -0.71527537726392      0.01109518512883
C   2.44567064933149     -1.42964328900682     -0.00065482763106
C   3.67686670284649     -0.72670743155550     -0.00479541202602
C   6.13224884641929     -0.73997883984993     -0.00632338623858
C   4.90351914550401     -1.44445752054090      0.00751768830159
C   8.59901484869081      0.63260386666793     -0.00101133422380
C   8.59174548810050     -0.72485086719319      0.00072504603735
C   7.36486276438985     -1.47033266560598      0.00049486934466
H   -9.52830597181814      1.27684744919284     -0.00270163681798
H   9.54141097460619      1.17457248844457     -0.00206336648518
C   -7.36983790976868     -2.77954514593389      0.00312634335708
C   -4.92459910905015     -2.80843725734101     -0.00460528907921
C   -6.16662249566744     -3.51665219282533      0.00169655107992
C   -3.70251035970491     -3.52468154912026      0.00571878010666
C   -2.46764698511392     -2.82132596280400     -0.00632585824990
C   -0.01513347410770     -2.83314164539971     -0.00604426974092
C   -1.24712184122656     -3.53473217556300      0.00551968366725
C   1.20924506964357     -3.54791467864352      0.00805871345849
C   2.43733602215464     -2.84764173817541     -0.00608104485234
C   4.89430234377080     -2.86112296828604     -0.00526030478103
C   3.66461525504104     -3.56421984553201      0.00761911515957
C   6.12863901474565     -3.58258405771778      0.00096495711699
C   7.33967266469532     -2.85841330737039      0.00248018319869
H   -9.54144911125902     -1.17456346666430      0.00226083090216
H   9.52826186807155     -1.27691907390448      0.00197485379837
H   -8.31516504384864     -3.31814985321231      0.00729857188773
H   8.27915514249207     -3.40714078989363      0.00681973918158
C   -6.14499418870218     -4.92764727278338      0.00302254913999
C   -3.70678334799751     -4.94126171411716     -0.00679841894792
C   -4.95559005800169     -5.64349397349412      0.00116871569699
C   -2.48612132622665     -5.65478557440947      0.00614125209662
C   -1.25405833548005     -4.95612205000132     -0.00503435388927
C   1.20101257386816     -4.96928038819302     -0.00385322963129
C   -0.03033667441341     -5.66952030313900      0.00398997003238
C   3.65375010132847     -4.98074377541453     -0.00309522988330
C   2.42549269587528     -5.68117463552727      0.00628170066869
C   6.09196561781097     -4.99325796338655      0.00325918379042
C   4.89497644461045     -5.69634842095790      0.00202298796027
H   -7.08989238804069     -5.46699984223871      0.00742531082125
H   7.03105520920009     -5.54265853633254      0.00683896355417
C   -4.92354532219813     -7.07882109967734      0.00061394679214
C   -2.48534208823777     -7.08772807792913     -0.00189594564379
C   -3.75168589177895     -7.76394715763627     -0.00170126671874
C   -0.03794895698805     -7.09946487446944     -0.00168022049625
C   -1.27795610040136     -7.77290438466689     -0.00366491325785
C   2.40944432072629     -7.11402201200282     -0.00081701968533
C   1.19474993715296     -7.78618536556242     -0.00296931056689
C   4.84762105249800     -7.13126211057943      0.00168979497423
C   3.66847160587561     -7.80378799294376     -0.00065863938960
H   -5.86994035041618     -7.61383059804164      0.00215798365757
H   5.78824962538815     -7.67633218931421      0.00281691445618
H   -3.75352693944918     -8.85107156923607     -0.00353718114765
H   -1.28430440589466     -8.86087539249706     -0.00809229711623
H   1.18922157469537     -8.87416062058945     -0.00706194725726
H   3.65854661482387     -8.89086063405326     -0.00231318081200

    units angstrom      # Angstroms are the default
    no_reorient         # Geometry fixed, default
    symmetry c1         # C1 symmetry, default
}

set {
    scf_type DF         # Density fitting, faster than exact integrals
    freeze_core True    # Freeze core electrons
    basis jun-cc-pVDZ   # Jun-cc-pVDZ basis set, recommended for sSAPT0 in https://doi.org/10.1063/1.4867135
}

energy('ssapt0')        # Compute sSAPT0 energy, includes also SAPT0
--------------------------------------------------------------------------

  //              Dimer HF             //
    Molecular point group: c1
  Charge       = -1
  Multiplicity = 1
  Basis Set: JUN-CC-PVDZ
    Blend: JUN-CC-PVDZ
  Basis Set: (JUN-CC-PVDZ AUX)
    Blend: JUN-CC-PVDZ-JKFIT
  @DF-RHF Final Energy: -4073.11428896705957
    Total Energy =                      -4073.1142889670591103
 Dipole X            :          0.0012894           -0.0000548            0.0012346
 Dipole Y            :          0.0014115           -0.0002464            0.0011651
 Dipole Z            :         17.4507128          -22.6147449           -5.1640321
 Magnitude           :                                                    5.1640324
  //            Monomer A HF           //
    Molecular point group: c1
  Multiplicity = 1
  Basis Set: JUN-CC-PVDZ
    Blend: JUN-CC-PVDZ
  Basis Set: (JUN-CC-PVDZ AUX)
    Blend: JUN-CC-PVDZ-JKFIT
  @DF-RHF Final Energy:  -422.77326116542508
    Total Energy =                       -422.7732611654250832
  //            Monomer B HF           //
    Molecular point group: c1

    Geometry (in Angstrom), charge = 0, multiplicity = 1:

       Center              X                  Y                   Z               Mass
    ------------   -----------------  -----------------  -----------------  -----------------
      Gh(B)          -0.000201921932     0.000288800891     3.538303888398    11.009305360000
      Gh(F)          -0.000004162732     0.000014527991     4.951088888398    18.998403162730
      Gh(F)           1.147855837268     0.675795727991     3.067162888398    18.998403162730
      Gh(F)           0.011913897268    -1.331996472009     3.067364888398    18.998403162730
      Gh(F)          -1.159670162732     0.656088027991     3.067443888398    18.998403162730
         C           -3.668445426752     7.803766698073    -0.259830070266    12.000000000000
         C           -4.847602882078     7.131256359331    -0.262196645199    12.000000000000
         C           -4.894963461907     5.696344931522    -0.262769556297    12.000000000000
         C           -3.653744841505     4.980744868950    -0.255109114568    12.000000000000
         C           -2.409429284226     7.113995564665    -0.259635728006    12.000000000000
         C           -2.425481506836     5.681136478894    -0.266640616876    12.000000000000
         C           -1.194748179167     7.786158722300    -0.258163547464    12.000000000000
         C            0.037954866205     7.099436173748    -0.260334251769    12.000000000000
         C            0.030328424687     5.669504087695    -0.265817636685    12.000000000000
         C           -1.200988670637     4.969284875906    -0.256847902752    12.000000000000
         C            1.277953663083     7.772873971185    -0.258958403209    12.000000000000
         C            2.485353921992     7.087711413228    -0.261232891113    12.000000000000
         C            2.486124522185     5.654785338231    -0.268170640101    12.000000000000
         C            1.254078756912     4.956092641655    -0.256542698513    12.000000000000
         C            3.751710428674     7.763926678971    -0.261106039733    12.000000000000
         C            4.923561893453     7.078795304981    -0.263162520441    12.000000000000
         C            4.955603108594     5.643461991360    -0.263322933248    12.000000000000
         C            3.706797371473     4.941224736324    -0.258231373078    12.000000000000
         H           -3.658525300490     8.890841947126    -0.258145082016     1.007825032230
         H           -1.189217492488     8.874135615351    -0.254191671023     1.007825032230
         H            1.284290076155     8.860847963479    -0.254799579068     1.007825032230
         H            3.753537924068     8.851049806963    -0.259583515417     1.007825032230
         H            5.869954540475     7.613809362646    -0.264087887483     1.007825032230
         H           -5.788235870234     7.676316740925    -0.263756492555     1.007825032230
         C           -6.091978121428     4.993274541634    -0.264641796788    12.000000000000
         C           -6.128665643049     3.582594696789    -0.263440619759    12.000000000000
         C           -3.664583902777     3.564196707735    -0.266365714377    12.000000000000
         C           -4.894302367430     2.861095303891    -0.257196729392    12.000000000000
         C           -2.437339157630     2.847626185075    -0.254533935840    12.000000000000
         C           -1.209232020328     3.547901462969    -0.268212962632    12.000000000000
         C            1.247137409430     3.534695279420    -0.269021569038    12.000000000000
         C            0.015171876837     2.833126367296    -0.257337385813    12.000000000000
         C            2.467641009709     2.821304505246    -0.257237327689    12.000000000000
         C            3.702545311848     3.524674682415    -0.270725288532    12.000000000000
         C            6.144976223652     4.927586894122    -0.264556378460    12.000000000000
         C            6.166584196130     3.516599003933    -0.262389825023    12.000000000000
         C            4.924605795728     2.808422453345    -0.255851078786    12.000000000000
         H            7.089901346909     5.466902294214    -0.268318259309     1.007825032230
         H           -7.031045913833     5.542702480848    -0.268875011739     1.007825032230
         C           -7.339702203855     2.858426062570    -0.265067787201    12.000000000000
         C           -7.364886120791     1.470337899574    -0.263302249073    12.000000000000
         C           -4.903508771679     1.444441340151    -0.268018513265    12.000000000000
         C           -6.132261315343     0.739953885044    -0.255728469282    12.000000000000
         C           -3.676878963248     0.726711670664    -0.257390796866    12.000000000000
         C           -2.445660748797     1.429655661253    -0.267700507067    12.000000000000
         C           -1.223604844033     0.715339029625    -0.256271242535    12.000000000000
         C            0.007633706582     1.417397677228    -0.257805588818    12.000000000000
         C            1.231215645015     0.702131218578    -0.276632174474    12.000000000000
         C            2.460816937799     1.403306564116    -0.257127665583    12.000000000000
         C            3.684426091464     0.687212956203    -0.257956451860    12.000000000000
         C            4.918704738807     1.391749089180    -0.270358273496    12.000000000000
         C            7.369797915229     2.779496731175    -0.264150244816    12.000000000000
         C            7.380158503390     1.391232035846    -0.262603561970    12.000000000000
         C            6.139795376391     0.674133151191    -0.256275220158    12.000000000000
         H           -8.279194962078     3.407132569115    -0.269365339323     1.007825032230
         H            8.315109308748     3.318132624614    -0.268360820615     1.007825032230
         C           -8.591760100313     0.724847081035    -0.262961821456    12.000000000000
         C           -8.599028766435    -0.632625278238    -0.260838696873    12.000000000000
         C           -6.139817301850    -0.674122109163    -0.267828038208    12.000000000000
         C           -7.380188274869    -1.391251661591    -0.260411976667    12.000000000000
         C           -4.918688642988    -1.391740490039    -0.255487540059    12.000000000000
         C           -3.684442458416    -0.687222787745    -0.266519780123    12.000000000000
         C           -2.460821202979    -1.403330650834    -0.255976693934    12.000000000000
         C           -1.231166175052    -0.702159336890    -0.268097072726    12.000000000000
         C           -0.007573788119    -1.417404321420    -0.260640548422    12.000000000000
         C            1.223643553157    -0.715260849273    -0.250634926473    12.000000000000
         C            2.445666486600    -1.429628761016    -0.262384939233    12.000000000000
         C            3.676862540115    -0.726692903565    -0.266525523628    12.000000000000
         C            6.132244683688    -0.739964311859    -0.268053497841    12.000000000000
         C            4.903514982772    -1.444442992550    -0.254212423300    12.000000000000
         C            8.599010685959     0.632618394658    -0.262741445826    12.000000000000
         C            8.591741325369    -0.724836339203    -0.261005065565    12.000000000000
         C            7.364858601658    -1.470318137615    -0.261235242257    12.000000000000
         H           -9.528310134550     1.276861977183    -0.264431748420     1.007825032230
         H            9.541406811874     1.174587016435    -0.263793478087     1.007825032230
         C           -7.369842072500    -2.779530617943    -0.258603768245    12.000000000000
         C           -4.924603271782    -2.808422729350    -0.266335400681    12.000000000000
         C           -6.166626658399    -3.516637664835    -0.260033560522    12.000000000000
         C           -3.702514522437    -3.524667021130    -0.256011331495    12.000000000000
         C           -2.467651147846    -2.821311434813    -0.268055969852    12.000000000000
         C           -0.015137636839    -2.833127117409    -0.267774381343    12.000000000000
         C           -1.247126003958    -3.534717647572    -0.256210427935    12.000000000000
         C            1.209240906912    -3.547900150653    -0.253671398144    12.000000000000
         C            2.437331859423    -2.847627210185    -0.267811156454    12.000000000000
         C            4.894298181039    -2.861108440295    -0.266990416383    12.000000000000
         C            3.664611092309    -3.564205317541    -0.254110996442    12.000000000000
         C            6.128634852014    -3.582569529727    -0.260765154485    12.000000000000
         C            7.339668501964    -2.858398779380    -0.259249928403    12.000000000000
         H           -9.541453273991    -1.174548938674    -0.259469280700     1.007825032230
         H            9.528257705340    -1.276904545914    -0.259755257804     1.007825032230
         H           -8.315169206580    -3.318135325222    -0.254431539714     1.007825032230
         H            8.279150979760    -3.407126261903    -0.254910372420     1.007825032230
         C           -6.144998351434    -4.927632744793    -0.258707562462    12.000000000000
         C           -3.706787510729    -4.941247186127    -0.268528530550    12.000000000000
         C           -4.955594220733    -5.643479445504    -0.260561395905    12.000000000000
         C           -2.486125488958    -5.654771046419    -0.255588859505    12.000000000000
         C           -1.254062498212    -4.956107522011    -0.266764465491    12.000000000000
         C            1.201008411136    -4.969265860202    -0.265583341233    12.000000000000
         C           -0.030340837145    -5.669505775148    -0.257740141570    12.000000000000
         C            3.653745938597    -4.980729247424    -0.264825341485    12.000000000000
         C            2.425488533144    -5.681160107537    -0.255448410933    12.000000000000
         C            6.091961455079    -4.993243435396    -0.258470927812    12.000000000000
         C            4.894972281879    -5.696333892967    -0.259707123642    12.000000000000
         H           -7.089896550772    -5.466985314248    -0.254304800781     1.007825032230
         H            7.031051046468    -5.542644008342    -0.254891148048     1.007825032230
         C           -4.923549484930    -7.078806571687    -0.261116164810    12.000000000000
         C           -2.485346250970    -7.087713549939    -0.263626057246    12.000000000000
         C           -3.751690054511    -7.763932629646    -0.263431378321    12.000000000000
         C           -0.037953119720    -7.099450346479    -0.263410332098    12.000000000000
         C           -1.277960263133    -7.772889856676    -0.265395024860    12.000000000000
         C            2.409440157995    -7.114007484012    -0.262547131287    12.000000000000
         C            1.194745774421    -7.786170837572    -0.264699422169    12.000000000000
         C            4.847616889766    -7.131247582589    -0.260040316628    12.000000000000
         C            3.668467443144    -7.803773464953    -0.262388750992    12.000000000000
         H           -5.869944513148    -7.613816070051    -0.259572127944     1.007825032230
         H            5.788245462656    -7.676317661324    -0.258913197146     1.007825032230
         H           -3.753531102181    -8.851057041246    -0.265267292750     1.007825032230
         H           -1.284308568626    -8.860860864507    -0.269822408718     1.007825032230
         H            1.189217411964    -8.874146092599    -0.268792058859     1.007825032230
         H            3.658542452092    -8.890846106063    -0.264043292414     1.007825032230

  Charge       = 0
  Multiplicity = 1
  Basis Set: JUN-CC-PVDZ
    Blend: JUN-CC-PVDZ
  Basis Set: (JUN-CC-PVDZ AUX)
    Blend: JUN-CC-PVDZ-JKFIT

    Orbital Energies [Eh]
    ---------------------

    Doubly Occupied:

       1A    -11.264105     2A    -11.263755     3A    -11.263752
       4A    -11.263346     5A    -11.263344     6A    -11.263304
       7A    -11.263157     8A    -11.263143     9A    -11.263135
      10A    -11.262908    11A    -11.262783    12A    -11.262779
      13A    -11.262287    14A    -11.262282    15A    -11.262246
      16A    -11.262242    17A    -11.262133    18A    -11.262126
      19A    -11.262085    20A    -11.262040    21A    -11.262036
      22A    -11.261927    23A    -11.261921    24A    -11.261769
      25A    -11.261759    26A    -11.261740    27A    -11.261733
      28A    -11.261692    29A    -11.261683    30A    -11.261584
      31A    -11.261570    32A    -11.261563    33A    -11.261561
      34A    -11.261539    35A    -11.261536    36A    -11.261520
      37A    -11.261338    38A    -11.261329    39A    -11.261323
      40A    -11.261317    41A    -11.261310    42A    -11.261307
      43A    -11.261294    44A    -11.261277    45A    -11.261274
      46A    -11.261248    47A    -11.261244    48A    -11.261237
      49A    -11.261070    50A    -11.261044    51A    -11.261037
      52A    -11.260971    53A    -11.260968    54A    -11.260913
      55A    -11.259918    56A    -11.259905    57A    -11.259902
      58A    -11.259873    59A    -11.259870    60A    -11.259855
      61A    -11.259289    62A    -11.259263    63A    -11.259261
      64A    -11.259208    65A    -11.259206    66A    -11.259176
      67A    -11.258920    68A    -11.258903    69A    -11.258900
      70A    -11.258872    71A    -11.258870    72A    -11.258858
      73A    -11.254530    74A    -11.254529    75A    -11.254525
      76A    -11.254523    77A    -11.254521    78A    -11.254520
      79A    -11.253659    80A    -11.253658    81A    -11.253653
      82A    -11.253650    83A    -11.253649    84A    -11.253648
      85A    -11.253574    86A    -11.253573    87A    -11.253569
      88A    -11.253566    89A    -11.253564    90A    -11.253564
      91A    -11.253057    92A    -11.253057    93A    -11.253053
      94A    -11.253051    95A    -11.253049    96A    -11.253048
      97A     -1.253925    98A     -1.238991    99A     -1.238988
     100A     -1.220462   101A     -1.220456   102A     -1.215422
     103A     -1.201041   104A     -1.195608   105A     -1.188128
     106A     -1.188124   107A     -1.173767   108A     -1.173764
     109A     -1.155617   110A     -1.155616   111A     -1.152697
     112A     -1.144726   113A     -1.144723   114A     -1.128560
     115A     -1.114706   116A     -1.113165   117A     -1.112468
     118A     -1.112451   119A     -1.111623   120A     -1.088422
     121A     -1.088407   122A     -1.076964   123A     -1.076962
     124A     -1.067608   125A     -1.067579   126A     -1.064957
     127A     -1.046798   128A     -1.046791   129A     -1.040474
     130A     -1.038737   131A     -1.038736   132A     -1.025232
     133A     -1.021367   134A     -1.021315   135A     -1.007181
     136A     -1.006808   137A     -1.003794   138A     -1.000479
     139A     -1.000431   140A     -0.991077   141A     -0.970983
     142A     -0.970935   143A     -0.955882   144A     -0.955827
     145A     -0.905575   146A     -0.905553   147A     -0.905532
     148A     -0.905512   149A     -0.904310   150A     -0.892352
     151A     -0.892293   152A     -0.890352   153A     -0.890295
     154A     -0.889448   155A     -0.872217   156A     -0.869059
     157A     -0.851540   158A     -0.847856   159A     -0.847834
     160A     -0.845586   161A     -0.843010   162A     -0.834562
     163A     -0.834549   164A     -0.828117   165A     -0.828113
     166A     -0.784544   167A     -0.784533   168A     -0.783651
     169A     -0.783625   170A     -0.782280   171A     -0.782259
     172A     -0.782020   173A     -0.766989   174A     -0.760776
     175A     -0.750557   176A     -0.733484   177A     -0.727066
     178A     -0.727052   179A     -0.725076   180A     -0.724538
     181A     -0.724519   182A     -0.718470   183A     -0.713758
     184A     -0.713752   185A     -0.699569   186A     -0.699556
     187A     -0.686100   188A     -0.685955   189A     -0.685952
     190A     -0.682171   191A     -0.682161   192A     -0.678759
     193A     -0.653616   194A     -0.650863   195A     -0.650833
     196A     -0.649796   197A     -0.649780   198A     -0.649563
     199A     -0.640908   200A     -0.640881   201A     -0.640086
     202A     -0.639162   203A     -0.636005   204A     -0.635979
     205A     -0.629134   206A     -0.617736   207A     -0.615301
     208A     -0.615281   209A     -0.608797   210A     -0.608790
     211A     -0.599122   212A     -0.599084   213A     -0.598731
     214A     -0.598596   215A     -0.598573   216A     -0.598014
     217A     -0.595064   218A     -0.595052   219A     -0.594714
     220A     -0.594213   221A     -0.591941   222A     -0.591938
     223A     -0.587368   224A     -0.577795   225A     -0.577785
     226A     -0.575668   227A     -0.575665   228A     -0.573376
     229A     -0.569578   230A     -0.568121   231A     -0.568097
     232A     -0.566742   233A     -0.566731   234A     -0.560911
     235A     -0.558700   236A     -0.558681   237A     -0.558425
     238A     -0.554358   239A     -0.550544   240A     -0.547473
     241A     -0.544257   242A     -0.535029   243A     -0.534992
     244A     -0.533527   245A     -0.533506   246A     -0.528071
     247A     -0.528056   248A     -0.527767   249A     -0.517142
     250A     -0.517108   251A     -0.515344   252A     -0.515338
     253A     -0.509637   254A     -0.509621   255A     -0.498020
     256A     -0.496440   257A     -0.496413   258A     -0.493802
     259A     -0.493788   260A     -0.489434   261A     -0.481446
     262A     -0.477410   263A     -0.477407   264A     -0.473986
     265A     -0.469427   266A     -0.466513   267A     -0.466508
     268A     -0.458791   269A     -0.446660   270A     -0.446600
     271A     -0.441030   272A     -0.440762   273A     -0.440738
     274A     -0.434676   275A     -0.433903   276A     -0.407363
     277A     -0.407340   278A     -0.386392   279A     -0.386344
     280A     -0.385722   281A     -0.385721   282A     -0.383731
     283A     -0.354300   284A     -0.354284   285A     -0.350644
     286A     -0.338103   287A     -0.335583   288A     -0.335509
     289A     -0.332702   290A     -0.332695   291A     -0.307035
     292A     -0.301927   293A     -0.301865   294A     -0.300841
     295A     -0.286164   296A     -0.256463   297A     -0.253479
     298A     -0.253425   299A     -0.204254   300A     -0.204165

  @DF-RHF Final Energy: -3650.34014853470580

   => Energetics <=

    Nuclear Repulsion Energy =          15611.4211649754324753
    One-Electron Energy =              -36072.1488290030029020
    Two-Electron Energy =               16810.3875154928646225
    Total Energy =                      -3650.3401485347058042
 Dipole X            :         -0.0001810            0.0002304            0.0000494
 Dipole Y            :          0.0012838           -0.0013052           -0.0000214
 Dipole Z            :        296.7549387         -296.7555459           -0.0006072
 Magnitude           :                                                    0.0006096

    SAPT Results
  --------------------------------------------------------------------------------------------------------
    Electrostatics                 10.96648483 [mEh]       6.88157313 [kcal/mol]      28.79250196 [kJ/mol]
      Elst10,r                     10.96648483 [mEh]       6.88157313 [kcal/mol]      28.79250196 [kJ/mol]

    Exchange                        4.49004603 [mEh]       2.81754642 [kcal/mol]      11.78861421 [kJ/mol]
      Exch10                        4.49004603 [mEh]       2.81754642 [kcal/mol]      11.78861421 [kJ/mol]
      Exch10(S^2)                   4.48900579 [mEh]       2.81689366 [kcal/mol]      11.78588308 [kJ/mol]

    Induction                     -16.33579778 [mEh]     -10.25086787 [kcal/mol]     -42.88963117 [kJ/mol]
      Ind20,r                     -17.21515948 [mEh]     -10.80267567 [kcal/mol]     -45.19839499 [kJ/mol]
      Exch-Ind20,r                  1.20461343 [mEh]       0.75590634 [kcal/mol]       3.16271212 [kJ/mol]
      delta HF,r (2)               -0.32525173 [mEh]      -0.20409854 [kcal/mol]      -0.85394831 [kJ/mol]

    Dispersion                     -8.34327000 [mEh]      -5.23548097 [kcal/mol]     -21.90525237 [kJ/mol]
      Disp20                       -9.08194533 [mEh]      -5.69900673 [kcal/mol]     -23.84464417 [kJ/mol]
      Exch-Disp20                   0.73867533 [mEh]       0.46352577 [kcal/mol]       1.93939180 [kJ/mol]
      Disp20 (SS)                  -4.54097266 [mEh]      -2.84950337 [kcal/mol]     -11.92232209 [kJ/mol]
      Disp20 (OS)                  -4.54097266 [mEh]      -2.84950337 [kcal/mol]     -11.92232209 [kJ/mol]
      Exch-Disp20 (SS)              0.44997369 [mEh]       0.28236276 [kcal/mol]       1.18140577 [kJ/mol]
      Exch-Disp20 (OS)              0.28870163 [mEh]       0.18116301 [kcal/mol]       0.75798604 [kJ/mol]

  Total HF                         -0.87926693 [mEh]      -0.55174833 [kcal/mol]      -2.30851500 [kJ/mol]
  Total SAPT0                      -9.22253693 [mEh]      -5.78722930 [kcal/mol]     -24.21376737 [kJ/mol]

  Special recipe for scaled SAPT0 (see Manual):
    Electrostatics sSAPT0          10.96648483 [mEh]       6.88157313 [kcal/mol]      28.79250196 [kJ/mol]
    Exchange sSAPT0                 4.49004603 [mEh]       2.81754642 [kcal/mol]      11.78861421 [kJ/mol]
    Induction sSAPT0              -16.33496016 [mEh]     -10.25034225 [kcal/mol]     -42.88743199 [kJ/mol]
    Dispersion sSAPT0              -8.34275636 [mEh]      -5.23515866 [kcal/mol]     -21.90390382 [kJ/mol]
  Total sSAPT0                     -9.22118567 [mEh]      -5.78638137 [kcal/mol]     -24.21021963 [kJ/mol]
  --------------------------------------------------------------------------------------------------------

*** Psi4 exiting successfully. Buy a developer a beer!
