                               Psi4 1.9 release

  ==> Input File <==

--------------------------------------------------------------------------
memory 64 GB # how much memory is available ! Depends on the nodes/cores !

molecule dimer {
# monomer A
-1 1    # Charge and multiplicity
B -1.977592e-04  2.742729e-04 2.400034
F  1.123153e-16  1.430594e-17 3.812819
F  1.147860e+00  6.757812e-01 1.928893
F  1.191806e-02 -1.332011e+00 1.929095
F -1.159666e+00  6.560735e-01 1.929174
--
# monomer B
0 1     # Charge and multiplicity
C   -3.66844126402057      7.80375217008252      0.00190004133558
C   -4.84759871934653      7.13124183134024     -0.00046653359696
C   -4.89495929917518      5.69633040353158     -0.00103944469517
C   -3.65374067877320      4.98073034095895      0.00662099703436
C   -2.40942512149445      7.11398103667468      0.00209438359570
C   -2.42547734410473      5.68112195090346     -0.00491050527438
C   -1.19474401643570      7.78614419430947      0.00356656413763
C   0.03795902893699      7.09942164575698      0.00139585983271
C   0.03033258741920      5.66948955970466     -0.00408752508301
C   -1.20098450790502      4.96927034791531      0.00488220885047
C   1.27795782581485      7.77285944319479      0.00277170839332
C   2.48535808472416      7.08769688523756      0.00049722048857
C   2.48612868491717      5.65477081024076     -0.00644052849921
C   1.25408291964399      4.95607811366431      0.00518741308898
C   3.75171459140595      7.76391215098033      0.00062407186893
C   4.92356605618520      7.07878077698995     -0.00143240883900
C   4.95560727132542      5.64344746336949     -0.00159282164606
C   3.70680153420475      4.94121020833308      0.00349873852374
H   -3.65852113775815      8.89082741913536      0.00358502958574
H   -1.18921332975660      8.87412108735996      0.00753844057883
H   1.28429423888630      8.86083343548850      0.00693053253426
H   3.75354208679975      8.85103527897216      0.00214659618464
H   5.86995870320703      7.61379483465560     -0.00235777588134
H   -5.78823170750226      7.67630221293400     -0.00202638095293
C   -6.09197395869619      4.99326001364347     -0.00291168518608
C   -6.12866148031747      3.58258016879823     -0.00171050815740
C   -3.66457974004527      3.56418217974434     -0.00463560277484
C   -4.89429820469869      2.86108077590057      0.00453338221034
C   -2.43733499489796      2.84761165708481      0.00719617576166
C   -1.20922785759670      3.54788693497833     -0.00648285103018
C   1.24714157216223      3.53468075142962     -0.00729145743546
C   0.01517603956900      2.83311183930540      0.00439272578912
C   2.46764517244071      2.82128997725533      0.00449278391269
C   3.70254947457969      3.52466015442405     -0.00899517692985
C   6.14498038638375      4.92757236613191     -0.00282626685777
C   6.16658835886151      3.51658447594213     -0.00065971342101
C   4.92460995845939      2.80840792535402      0.00587903281610
H   7.08990550964105      5.46688776622306     -0.00658814770723
H   -7.03104175110130      5.54268795285765     -0.00714490013730
C   -7.33969804112295      2.85841153457957     -0.00333767559888
C   -7.36488195805880      1.47032337158330     -0.00157213747140
C   -4.90350460894690      1.44442681216000     -0.00628840166334
C   -6.13225715261081      0.73993935705394      0.00600164231964
C   -3.67687480051673      0.72669714267312      0.00433931473643
C   -2.44565658606518      1.42964113326212     -0.00597039546461
C   -1.22360068130162      0.71532450163492      0.00545886906656
C   0.00763786931376      1.41738314923765      0.00392452278437
C   1.23121980774686      0.70211669058719     -0.01490206287210
C   2.46082110053113      1.40329203612573      0.00460244601878
C   3.68443025419614      0.68719842821222      0.00377365974158
C   4.91870890153864      1.39173456118907     -0.00862816189375
C   7.36980207796101      2.77948220318441     -0.00242013321349
C   7.38016266612146      1.39121750785509     -0.00087345036788
C   6.13979953912259      0.67411862320065      0.00545489144369
H   -8.27919079934664      3.40711804112415     -0.00763522772059
H   8.31511347147953      3.31811809662368     -0.00663070901292
C   -8.59175593758115      0.72483255304480     -0.00123170985383
C   -8.59902460370342     -0.63263980622873      0.00089141472904
C   -6.13981313911873     -0.67413663715361     -0.00609792660607
C   -7.38018411213749     -1.39126618958160      0.00131813493501
C   -4.91868448025621     -1.39175501803000      0.00624257154343
C   -3.68443829568458     -0.68723731573599     -0.00478966852105
C   -2.46081704024768     -1.40334517882457      0.00575341766833
C   -1.23116201232071     -0.70217386488055     -0.00636696112346
C   -0.00756962538737     -1.41741884941102      0.00108956317991
C   1.22364771588843     -0.71527537726392      0.01109518512883
C   2.44567064933149     -1.42964328900682     -0.00065482763106
C   3.67686670284649     -0.72670743155550     -0.00479541202602
C   6.13224884641929     -0.73997883984993     -0.00632338623858
C   4.90351914550401     -1.44445752054090      0.00751768830159
C   8.59901484869081      0.63260386666793     -0.00101133422380
C   8.59174548810050     -0.72485086719319      0.00072504603735
C   7.36486276438985     -1.47033266560598      0.00049486934466
H   -9.52830597181814      1.27684744919284     -0.00270163681798
H   9.54141097460619      1.17457248844457     -0.00206336648518
C   -7.36983790976868     -2.77954514593389      0.00312634335708
C   -4.92459910905015     -2.80843725734101     -0.00460528907921
C   -6.16662249566744     -3.51665219282533      0.00169655107992
C   -3.70251035970491     -3.52468154912026      0.00571878010666
C   -2.46764698511392     -2.82132596280400     -0.00632585824990
C   -0.01513347410770     -2.83314164539971     -0.00604426974092
C   -1.24712184122656     -3.53473217556300      0.00551968366725
C   1.20924506964357     -3.54791467864352      0.00805871345849
C   2.43733602215464     -2.84764173817541     -0.00608104485234
C   4.89430234377080     -2.86112296828604     -0.00526030478103
C   3.66461525504104     -3.56421984553201      0.00761911515957
C   6.12863901474565     -3.58258405771778      0.00096495711699
C   7.33967266469532     -2.85841330737039      0.00248018319869
H   -9.54144911125902     -1.17456346666430      0.00226083090216
H   9.52826186807155     -1.27691907390448      0.00197485379837
H   -8.31516504384864     -3.31814985321231      0.00729857188773
H   8.27915514249207     -3.40714078989363      0.00681973918158
C   -6.14499418870218     -4.92764727278338      0.00302254913999
C   -3.70678334799751     -4.94126171411716     -0.00679841894792
C   -4.95559005800169     -5.64349397349412      0.00116871569699
C   -2.48612132622665     -5.65478557440947      0.00614125209662
C   -1.25405833548005     -4.95612205000132     -0.00503435388927
C   1.20101257386816     -4.96928038819302     -0.00385322963129
C   -0.03033667441341     -5.66952030313900      0.00398997003238
C   3.65375010132847     -4.98074377541453     -0.00309522988330
C   2.42549269587528     -5.68117463552727      0.00628170066869
C   6.09196561781097     -4.99325796338655      0.00325918379042
C   4.89497644461045     -5.69634842095790      0.00202298796027
H   -7.08989238804069     -5.46699984223871      0.00742531082125
H   7.03105520920009     -5.54265853633254      0.00683896355417
C   -4.92354532219813     -7.07882109967734      0.00061394679214
C   -2.48534208823777     -7.08772807792913     -0.00189594564379
C   -3.75168589177895     -7.76394715763627     -0.00170126671874
C   -0.03794895698805     -7.09946487446944     -0.00168022049625
C   -1.27795610040136     -7.77290438466689     -0.00366491325785
C   2.40944432072629     -7.11402201200282     -0.00081701968533
C   1.19474993715296     -7.78618536556242     -0.00296931056689
C   4.84762105249800     -7.13126211057943      0.00168979497423
C   3.66847160587561     -7.80378799294376     -0.00065863938960
H   -5.86994035041618     -7.61383059804164      0.00215798365757
H   5.78824962538815     -7.67633218931421      0.00281691445618
H   -3.75352693944918     -8.85107156923607     -0.00353718114765
H   -1.28430440589466     -8.86087539249706     -0.00809229711623
H   1.18922157469537     -8.87416062058945     -0.00706194725726
H   3.65854661482387     -8.89086063405326     -0.00231318081200

    units angstrom      # Angstroms are the default
    no_reorient         # Geometry fixed, default
    symmetry c1         # C1 symmetry, default
}

set {
    scf_type DF         # Density fitting, faster than exact integrals
    freeze_core True    # Freeze core electrons
    basis jun-cc-pVDZ   # Jun-cc-pVDZ basis set, recommended for sSAPT0 in https://doi.org/10.1063/1.4867135
}

energy('ssapt0')        # Compute sSAPT0 energy, includes also SAPT0
--------------------------------------------------------------------------

  //              Dimer HF             //
    Molecular point group: c1
  Charge       = -1
  Multiplicity = 1
  Basis Set: JUN-CC-PVDZ
    Blend: JUN-CC-PVDZ
  Basis Set: (JUN-CC-PVDZ AUX)
    Blend: JUN-CC-PVDZ-JKFIT
  @DF-RHF Final Energy: -4072.92202455980532
    Total Energy =                      -4072.9220245598044130
 Dipole X            :          0.0094828           -0.0000548            0.0094281
 Dipole Y            :          0.0057703           -0.0002464            0.0055239
 Dipole Z            :         12.2888588          -14.2831466           -1.9942878
 Magnitude           :                                                    1.9943177
  //            Monomer A HF           //
    Molecular point group: c1
  Multiplicity = 1
  Basis Set: JUN-CC-PVDZ
    Blend: JUN-CC-PVDZ
  Basis Set: (JUN-CC-PVDZ AUX)
    Blend: JUN-CC-PVDZ-JKFIT
  @DF-RHF Final Energy:  -422.77770341078008
    Total Energy =                       -422.7777034107800773
  //            Monomer B HF           //
    Molecular point group: c1

    Geometry (in Angstrom), charge = 0, multiplicity = 1:

       Center              X                  Y                   Z               Mass
    ------------   -----------------  -----------------  -----------------  -----------------
      Gh(B)          -0.000201921932     0.000288800891     2.234729616836    11.009305360000
      Gh(F)          -0.000004162732     0.000014527991     3.647514616836    18.998403162730
      Gh(F)           1.147855837268     0.675795727991     1.763588616836    18.998403162730
      Gh(F)           0.011913897268    -1.331996472009     1.763790616836    18.998403162730
      Gh(F)          -1.159670162732     0.656088027991     1.763869616836    18.998403162730
         C           -3.668445426752     7.803766698073    -0.163404341828    12.000000000000
         C           -4.847602882078     7.131256359331    -0.165770916761    12.000000000000
         C           -4.894963461907     5.696344931522    -0.166343827859    12.000000000000
         C           -3.653744841505     4.980744868950    -0.158683386129    12.000000000000
         C           -2.409429284226     7.113995564665    -0.163209999568    12.000000000000
         C           -2.425481506836     5.681136478894    -0.170214888438    12.000000000000
         C           -1.194748179167     7.786158722300    -0.161737819026    12.000000000000
         C            0.037954866205     7.099436173748    -0.163908523331    12.000000000000
         C            0.030328424687     5.669504087695    -0.169391908247    12.000000000000
         C           -1.200988670637     4.969284875906    -0.160422174313    12.000000000000
         C            1.277953663083     7.772873971185    -0.162532674770    12.000000000000
         C            2.485353921992     7.087711413228    -0.164807162675    12.000000000000
         C            2.486124522185     5.654785338231    -0.171744911663    12.000000000000
         C            1.254078756912     4.956092641655    -0.160116970075    12.000000000000
         C            3.751710428674     7.763926678971    -0.164680311295    12.000000000000
         C            4.923561893453     7.078795304981    -0.166736792003    12.000000000000
         C            4.955603108594     5.643461991360    -0.166897204810    12.000000000000
         C            3.706797371473     4.941224736324    -0.161805644640    12.000000000000
         H           -3.658525300490     8.890841947126    -0.161719353578     1.007825032230
         H           -1.189217492488     8.874135615351    -0.157765942585     1.007825032230
         H            1.284290076155     8.860847963479    -0.158373850629     1.007825032230
         H            3.753537924068     8.851049806963    -0.163157786979     1.007825032230
         H            5.869954540475     7.613809362646    -0.167662159045     1.007825032230
         H           -5.788235870234     7.676316740925    -0.167330764117     1.007825032230
         C           -6.091978121428     4.993274541634    -0.168216068350    12.000000000000
         C           -6.128665643049     3.582594696789    -0.167014891321    12.000000000000
         C           -3.664583902777     3.564196707735    -0.169939985939    12.000000000000
         C           -4.894302367430     2.861095303891    -0.160771000953    12.000000000000
         C           -2.437339157630     2.847626185075    -0.158108207402    12.000000000000
         C           -1.209232020328     3.547901462969    -0.171787234194    12.000000000000
         C            1.247137409430     3.534695279420    -0.172595840599    12.000000000000
         C            0.015171876837     2.833126367296    -0.160911657375    12.000000000000
         C            2.467641009709     2.821304505246    -0.160811599251    12.000000000000
         C            3.702545311848     3.524674682415    -0.174299560094    12.000000000000
         C            6.144976223652     4.927586894122    -0.168130650022    12.000000000000
         C            6.166584196130     3.516599003933    -0.165964096585    12.000000000000
         C            4.924605795728     2.808422453345    -0.159425350348    12.000000000000
         H            7.089901346909     5.466902294214    -0.171892530871     1.007825032230
         H           -7.031045913833     5.542702480848    -0.172449283301     1.007825032230
         C           -7.339702203855     2.858426062570    -0.168642058763    12.000000000000
         C           -7.364886120791     1.470337899574    -0.166876520635    12.000000000000
         C           -4.903508771679     1.444441340151    -0.171592784827    12.000000000000
         C           -6.132261315343     0.739953885044    -0.159302740844    12.000000000000
         C           -3.676878963248     0.726711670664    -0.160965068427    12.000000000000
         C           -2.445660748797     1.429655661253    -0.171274778628    12.000000000000
         C           -1.223604844033     0.715339029625    -0.159845514097    12.000000000000
         C            0.007633706582     1.417397677228    -0.161379860379    12.000000000000
         C            1.231215645015     0.702131218578    -0.180206446036    12.000000000000
         C            2.460816937799     1.403306564116    -0.160701937145    12.000000000000
         C            3.684426091464     0.687212956203    -0.161530723422    12.000000000000
         C            4.918704738807     1.391749089180    -0.173932545058    12.000000000000
         C            7.369797915229     2.779496731175    -0.167724516377    12.000000000000
         C            7.380158503390     1.391232035846    -0.166177833532    12.000000000000
         C            6.139795376391     0.674133151191    -0.159849491720    12.000000000000
         H           -8.279194962078     3.407132569115    -0.172939610884     1.007825032230
         H            8.315109308748     3.318132624614    -0.171935092177     1.007825032230
         C           -8.591760100313     0.724847081035    -0.166536093018    12.000000000000
         C           -8.599028766435    -0.632625278238    -0.164412968435    12.000000000000
         C           -6.139817301850    -0.674122109163    -0.171402309770    12.000000000000
         C           -7.380188274869    -1.391251661591    -0.163986248229    12.000000000000
         C           -4.918688642988    -1.391740490039    -0.159061811620    12.000000000000
         C           -3.684442458416    -0.687222787745    -0.170094051685    12.000000000000
         C           -2.460821202979    -1.403330650834    -0.159550965495    12.000000000000
         C           -1.231166175052    -0.702159336890    -0.171671344287    12.000000000000
         C           -0.007573788119    -1.417404321420    -0.164214819984    12.000000000000
         C            1.223643553157    -0.715260849273    -0.154209198035    12.000000000000
         C            2.445666486600    -1.429628761016    -0.165959210795    12.000000000000
         C            3.676862540115    -0.726692903565    -0.170099795190    12.000000000000
         C            6.132244683688    -0.739964311859    -0.171627769402    12.000000000000
         C            4.903514982772    -1.444442992550    -0.157786694862    12.000000000000
         C            8.599010685959     0.632618394658    -0.166315717388    12.000000000000
         C            8.591741325369    -0.724836339203    -0.164579337126    12.000000000000
         C            7.364858601658    -1.470318137615    -0.164809513819    12.000000000000
         H           -9.528310134550     1.276861977183    -0.168006019982     1.007825032230
         H            9.541406811874     1.174587016435    -0.167367749649     1.007825032230
         C           -7.369842072500    -2.779530617943    -0.162178039807    12.000000000000
         C           -4.924603271782    -2.808422729350    -0.169909672243    12.000000000000
         C           -6.166626658399    -3.516637664835    -0.163607832084    12.000000000000
         C           -3.702514522437    -3.524667021130    -0.159585603057    12.000000000000
         C           -2.467651147846    -2.821311434813    -0.171630241414    12.000000000000
         C           -0.015137636839    -2.833127117409    -0.171348652905    12.000000000000
         C           -1.247126003958    -3.534717647572    -0.159784699497    12.000000000000
         C            1.209240906912    -3.547900150653    -0.157245669705    12.000000000000
         C            2.437331859423    -2.847627210185    -0.171385428016    12.000000000000
         C            4.894298181039    -2.861108440295    -0.170564687945    12.000000000000
         C            3.664611092309    -3.564205317541    -0.157685268004    12.000000000000
         C            6.128634852014    -3.582569529727    -0.164339426047    12.000000000000
         C            7.339668501964    -2.858398779380    -0.162824199965    12.000000000000
         H           -9.541453273991    -1.174548938674    -0.163043552262     1.007825032230
         H            9.528257705340    -1.276904545914    -0.163329529365     1.007825032230
         H           -8.315169206580    -3.318135325222    -0.158005811276     1.007825032230
         H            8.279150979760    -3.407126261903    -0.158484643982     1.007825032230
         C           -6.144998351434    -4.927632744793    -0.162281834024    12.000000000000
         C           -3.706787510729    -4.941247186127    -0.172102802112    12.000000000000
         C           -4.955594220733    -5.643479445504    -0.164135667467    12.000000000000
         C           -2.486125488958    -5.654771046419    -0.159163131067    12.000000000000
         C           -1.254062498212    -4.956107522011    -0.170338737053    12.000000000000
         C            1.201008411136    -4.969265860202    -0.169157612795    12.000000000000
         C           -0.030340837145    -5.669505775148    -0.161314413131    12.000000000000
         C            3.653745938597    -4.980729247424    -0.168399613047    12.000000000000
         C            2.425488533144    -5.681160107537    -0.159022682495    12.000000000000
         C            6.091961455079    -4.993243435396    -0.162045199373    12.000000000000
         C            4.894972281879    -5.696333892967    -0.163281395203    12.000000000000
         H           -7.089896550772    -5.466985314248    -0.157879072343     1.007825032230
         H            7.031051046468    -5.542644008342    -0.158465419610     1.007825032230
         C           -4.923549484930    -7.078806571687    -0.164690436372    12.000000000000
         C           -2.485346250970    -7.087713549939    -0.167200328808    12.000000000000
         C           -3.751690054511    -7.763932629646    -0.167005649882    12.000000000000
         C           -0.037953119720    -7.099450346479    -0.166984603660    12.000000000000
         C           -1.277960263133    -7.772889856676    -0.168969296422    12.000000000000
         C            2.409440157995    -7.114007484012    -0.166121402849    12.000000000000
         C            1.194745774421    -7.786170837572    -0.168273693731    12.000000000000
         C            4.847616889766    -7.131247582589    -0.163614588190    12.000000000000
         C            3.668467443144    -7.803773464953    -0.165963022553    12.000000000000
         H           -5.869944513148    -7.613816070051    -0.163146399506     1.007825032230
         H            5.788245462656    -7.676317661324    -0.162487468708     1.007825032230
         H           -3.753531102181    -8.851057041246    -0.168841564311     1.007825032230
         H           -1.284308568626    -8.860860864507    -0.173396680280     1.007825032230
         H            1.189217411964    -8.874146092599    -0.172366330421     1.007825032230
         H            3.658542452092    -8.890846106063    -0.167617563976     1.007825032230

  Charge       = 0
  Multiplicity = 1
  Basis Set: JUN-CC-PVDZ
    Blend: JUN-CC-PVDZ
  Basis Set: (JUN-CC-PVDZ AUX)
    Blend: JUN-CC-PVDZ-JKFIT

    Orbital Energies [Eh]
    ---------------------

    Doubly Occupied:

       1A    -11.264167     2A    -11.263785     3A    -11.263778
       4A    -11.263270     5A    -11.263268     6A    -11.263233
       7A    -11.263106     8A    -11.263100     9A    -11.263080
      10A    -11.262820    11A    -11.262725    12A    -11.262722
      13A    -11.262253    14A    -11.262251    15A    -11.262206
      16A    -11.262204    17A    -11.262103    18A    -11.262074
      19A    -11.262040    20A    -11.262004    21A    -11.262003
      22A    -11.261918    23A    -11.261914    24A    -11.261765
      25A    -11.261739    26A    -11.261717    27A    -11.261709
      28A    -11.261676    29A    -11.261668    30A    -11.261589
      31A    -11.261562    32A    -11.261544    33A    -11.261540
      34A    -11.261504    35A    -11.261502    36A    -11.261479
      37A    -11.261327    38A    -11.261321    39A    -11.261314
      40A    -11.261310    41A    -11.261306    42A    -11.261302
      43A    -11.261274    44A    -11.261257    45A    -11.261253
      46A    -11.261230    47A    -11.261226    48A    -11.261223
      49A    -11.261015    50A    -11.260981    51A    -11.260976
      52A    -11.260896    53A    -11.260892    54A    -11.260842
      55A    -11.259907    56A    -11.259893    57A    -11.259890
      58A    -11.259861    59A    -11.259858    60A    -11.259842
      61A    -11.259276    62A    -11.259250    63A    -11.259249
      64A    -11.259192    65A    -11.259191    66A    -11.259161
      67A    -11.258908    68A    -11.258890    69A    -11.258888
      70A    -11.258859    71A    -11.258857    72A    -11.258845
      73A    -11.254530    74A    -11.254529    75A    -11.254524
      76A    -11.254524    77A    -11.254523    78A    -11.254522
      79A    -11.253651    80A    -11.253650    81A    -11.253647
      82A    -11.253645    83A    -11.253644    84A    -11.253641
      85A    -11.253566    86A    -11.253565    87A    -11.253563
      88A    -11.253561    89A    -11.253560    90A    -11.253557
      91A    -11.253058    92A    -11.253057    93A    -11.253052
      94A    -11.253052    95A    -11.253051    96A    -11.253050
      97A     -1.253864    98A     -1.238960    99A     -1.238960
     100A     -1.220446   101A     -1.220441   102A     -1.215361
     103A     -1.201034   104A     -1.195593   105A     -1.188077
     106A     -1.188075   107A     -1.173757   108A     -1.173755
     109A     -1.155587   110A     -1.155583   111A     -1.152643
     112A     -1.144717   113A     -1.144714   114A     -1.128543
     115A     -1.114675   116A     -1.113154   117A     -1.112418
     118A     -1.112403   119A     -1.111617   120A     -1.088400
     121A     -1.088384   122A     -1.076954   123A     -1.076952
     124A     -1.067577   125A     -1.067548   126A     -1.064913
     127A     -1.046782   128A     -1.046775   129A     -1.040454
     130A     -1.038728   131A     -1.038727   132A     -1.025187
     133A     -1.021308   134A     -1.021257   135A     -1.007163
     136A     -1.006795   137A     -1.003773   138A     -1.000444
     139A     -1.000396   140A     -0.991069   141A     -0.970952
     142A     -0.970904   143A     -0.955867   144A     -0.955811
     145A     -0.905547   146A     -0.905535   147A     -0.905506
     148A     -0.905493   149A     -0.904261   150A     -0.892317
     151A     -0.892258   152A     -0.890315   153A     -0.890257
     154A     -0.889423   155A     -0.872204   156A     -0.869056
     157A     -0.851524   158A     -0.847824   159A     -0.847803
     160A     -0.845551   161A     -0.842991   162A     -0.834540
     163A     -0.834532   164A     -0.828104   165A     -0.828100
     166A     -0.784525   167A     -0.784514   168A     -0.783616
     169A     -0.783589   170A     -0.782257   171A     -0.782236
     172A     -0.781989   173A     -0.766975   174A     -0.760742
     175A     -0.750514   176A     -0.733473   177A     -0.727049
     178A     -0.727036   179A     -0.725053   180A     -0.724525
     181A     -0.724506   182A     -0.718427   183A     -0.713722
     184A     -0.713716   185A     -0.699551   186A     -0.699539
     187A     -0.686058   188A     -0.685947   189A     -0.685943
     190A     -0.682160   191A     -0.682150   192A     -0.678720
     193A     -0.653593   194A     -0.650839   195A     -0.650809
     196A     -0.649759   197A     -0.649744   198A     -0.649553
     199A     -0.640868   200A     -0.640841   201A     -0.640077
     202A     -0.639155   203A     -0.635976   204A     -0.635949
     205A     -0.629120   206A     -0.617716   207A     -0.615293
     208A     -0.615273   209A     -0.608782   210A     -0.608775
     211A     -0.599096   212A     -0.599071   213A     -0.598708
     214A     -0.598575   215A     -0.598555   216A     -0.597969
     217A     -0.595054   218A     -0.595041   219A     -0.594693
     220A     -0.594171   221A     -0.591916   222A     -0.591913
     223A     -0.587335   224A     -0.577791   225A     -0.577781
     226A     -0.575634   227A     -0.575632   228A     -0.573366
     229A     -0.569615   230A     -0.568078   231A     -0.568055
     232A     -0.566719   233A     -0.566709   234A     -0.560906
     235A     -0.558678   236A     -0.558659   237A     -0.558419
     238A     -0.554339   239A     -0.550533   240A     -0.547470
     241A     -0.544243   242A     -0.535003   243A     -0.534967
     244A     -0.533504   245A     -0.533483   246A     -0.528059
     247A     -0.528044   248A     -0.527736   249A     -0.517104
     250A     -0.517070   251A     -0.515336   252A     -0.515331
     253A     -0.509627   254A     -0.509611   255A     -0.498008
     256A     -0.496421   257A     -0.496394   258A     -0.493740
     259A     -0.493728   260A     -0.489433   261A     -0.481435
     262A     -0.477404   263A     -0.477403   264A     -0.473976
     265A     -0.469411   266A     -0.466493   267A     -0.466488
     268A     -0.458755   269A     -0.446622   270A     -0.446562
     271A     -0.440992   272A     -0.440753   273A     -0.440730
     274A     -0.434675   275A     -0.433897   276A     -0.407349
     277A     -0.407325   278A     -0.386356   279A     -0.386307
     280A     -0.385724   281A     -0.385723   282A     -0.383703
     283A     -0.354309   284A     -0.354292   285A     -0.350616
     286A     -0.337988   287A     -0.335510   288A     -0.335439
     289A     -0.332705   290A     -0.332699   291A     -0.307007
     292A     -0.301861   293A     -0.301798   294A     -0.300823
     295A     -0.286132   296A     -0.256482   297A     -0.253419
     298A     -0.253367   299A     -0.204219   300A     -0.204130

  @DF-RHF Final Energy: -3650.34077639968336

   => Energetics <=

    Nuclear Repulsion Energy =          15611.4211649754324753
    One-Electron Energy =              -36072.1636878991703270
    Two-Electron Energy =               16810.4017465240540332
    Total Energy =                      -3650.3407763996838185
 Dipole X            :         -0.0001513            0.0002304            0.0000791
 Dipole Y            :          0.0012993           -0.0013052           -0.0000059
 Dipole Z            :        187.4276278         -187.4246150            0.0030128
 Magnitude           :                                                    0.0030139

    SAPT Results
  --------------------------------------------------------------------------------------------------------
    Electrostatics               -189.79293327 [mEh]    -119.09686369 [kcal/mol]    -498.30127766 [kJ/mol]
      Elst10,r                   -189.79293327 [mEh]    -119.09686369 [kcal/mol]    -498.30127766 [kJ/mol]

    Exchange                      458.00002728 [mEh]     287.39935611 [kcal/mol]    1202.47890597 [kJ/mol]
      Exch10                      458.00002728 [mEh]     287.39935611 [kcal/mol]    1202.47890597 [kJ/mol]
      Exch10(S^2)                 436.32792299 [mEh]     273.79990535 [kcal/mol]    1145.57880397 [kJ/mol]

    Induction                     -71.75184335 [mEh]     -45.02496146 [kcal/mol]    -188.38443877 [kJ/mol]
      Ind20,r                    -299.75151122 [mEh]    -188.09691307 [kcal/mol]    -786.99748428 [kJ/mol]
      Exch-Ind20,r                238.05566395 [mEh]     149.38218442 [kcal/mol]     625.01505960 [kJ/mol]
      delta HF,r (2)              -10.05599608 [mEh]      -6.31023281 [kcal/mol]     -26.40201408 [kJ/mol]

    Dispersion                    -61.63210269 [mEh]     -38.67472832 [kcal/mol]    -161.81506331 [kJ/mol]
      Disp20                      -93.98521798 [mEh]     -58.97661468 [kcal/mol]    -246.75815581 [kJ/mol]
      Exch-Disp20                  32.35311529 [mEh]      20.30188635 [kcal/mol]      84.94309250 [kJ/mol]
      Disp20 (SS)                 -46.99260899 [mEh]     -29.48830734 [kcal/mol]    -123.37907791 [kJ/mol]
      Disp20 (OS)                 -46.99260899 [mEh]     -29.48830734 [kcal/mol]    -123.37907791 [kJ/mol]
      Exch-Disp20 (SS)             16.36271913 [mEh]      10.26776127 [kcal/mol]      42.96031315 [kJ/mol]
      Exch-Disp20 (OS)             15.99039617 [mEh]      10.03412508 [kcal/mol]      41.98277935 [kJ/mol]

  Total HF                        196.45525066 [mEh]     123.27753096 [kcal/mol]     515.79318954 [kJ/mol]
  Total SAPT0                     134.82314797 [mEh]      84.60280264 [kcal/mol]     353.97812623 [kJ/mol]

  Special recipe for scaled SAPT0 (see Manual):
    Electrostatics sSAPT0        -189.79293327 [mEh]    -119.09686369 [kcal/mol]    -498.30127766 [kJ/mol]
    Exchange sSAPT0               458.00002728 [mEh]     287.39935611 [kcal/mol]    1202.47890597 [kJ/mol]
    Induction sSAPT0              -34.48861705 [mEh]     -21.64193394 [kcal/mol]     -90.54985159 [kJ/mol]
    Dispersion sSAPT0             -56.56781883 [mEh]     -35.49684222 [kcal/mol]    -148.51878787 [kJ/mol]
  Total sSAPT0                    177.15065813 [mEh]     111.16371626 [kcal/mol]     465.10898885 [kJ/mol]
  --------------------------------------------------------------------------------------------------------

*** Psi4 exiting successfully. Buy a developer a beer!
