                               Psi4 1.9 release

  ==> Input File <==

--------------------------------------------------------------------------
memory 64 GB # how much memory is available ! Depends on the nodes/cores !

molecule dimer {
# monomer A
+1 1    # Charge and multiplicity
C  0.680067 -1.215929 5.808042
C -0.680504 -1.215545 5.806014
N -1.085635  0.102779 5.805016
C  0.000108  0.884180 5.801740
C -2.477365  0.570758 5.755610
N  1.085222  0.102779 5.805016
H  1.385146 -2.033368 5.815870
H -1.385302 -2.033214 5.806204
H -0.000009  1.965269 5.799993
C  2.478117  0.567877 5.821908
H  2.490592  1.658130 5.794563
H  2.967028  0.220701 6.735354
H  3.001428  0.176405 4.946425
H -2.857359  0.490799 4.733539
H -3.082679 -0.042306 6.425694
H -2.518128  1.610706 6.082594
--
# monomer B
0 1     # Charge and multiplicity
C   -3.66844126402057      7.80375217008252      0.00190004133558
C   -4.84759871934653      7.13124183134024     -0.00046653359696
C   -4.89495929917518      5.69633040353158     -0.00103944469517
C   -3.65374067877320      4.98073034095895      0.00662099703436
C   -2.40942512149445      7.11398103667468      0.00209438359570
C   -2.42547734410473      5.68112195090346     -0.00491050527438
C   -1.19474401643570      7.78614419430947      0.00356656413763
C   0.03795902893699      7.09942164575698      0.00139585983271
C   0.03033258741920      5.66948955970466     -0.00408752508301
C   -1.20098450790502      4.96927034791531      0.00488220885047
C   1.27795782581485      7.77285944319479      0.00277170839332
C   2.48535808472416      7.08769688523756      0.00049722048857
C   2.48612868491717      5.65477081024076     -0.00644052849921
C   1.25408291964399      4.95607811366431      0.00518741308898
C   3.75171459140595      7.76391215098033      0.00062407186893
C   4.92356605618520      7.07878077698995     -0.00143240883900
C   4.95560727132542      5.64344746336949     -0.00159282164606
C   3.70680153420475      4.94121020833308      0.00349873852374
H   -3.65852113775815      8.89082741913536      0.00358502958574
H   -1.18921332975660      8.87412108735996      0.00753844057883
H   1.28429423888630      8.86083343548850      0.00693053253426
H   3.75354208679975      8.85103527897216      0.00214659618464
H   5.86995870320703      7.61379483465560     -0.00235777588134
H   -5.78823170750226      7.67630221293400     -0.00202638095293
C   -6.09197395869619      4.99326001364347     -0.00291168518608
C   -6.12866148031747      3.58258016879823     -0.00171050815740
C   -3.66457974004527      3.56418217974434     -0.00463560277484
C   -4.89429820469869      2.86108077590057      0.00453338221034
C   -2.43733499489796      2.84761165708481      0.00719617576166
C   -1.20922785759670      3.54788693497833     -0.00648285103018
C   1.24714157216223      3.53468075142962     -0.00729145743546
C   0.01517603956900      2.83311183930540      0.00439272578912
C   2.46764517244071      2.82128997725533      0.00449278391269
C   3.70254947457969      3.52466015442405     -0.00899517692985
C   6.14498038638375      4.92757236613191     -0.00282626685777
C   6.16658835886151      3.51658447594213     -0.00065971342101
C   4.92460995845939      2.80840792535402      0.00587903281610
H   7.08990550964105      5.46688776622306     -0.00658814770723
H   -7.03104175110130      5.54268795285765     -0.00714490013730
C   -7.33969804112295      2.85841153457957     -0.00333767559888
C   -7.36488195805880      1.47032337158330     -0.00157213747140
C   -4.90350460894690      1.44442681216000     -0.00628840166334
C   -6.13225715261081      0.73993935705394      0.00600164231964
C   -3.67687480051673      0.72669714267312      0.00433931473643
C   -2.44565658606518      1.42964113326212     -0.00597039546461
C   -1.22360068130162      0.71532450163492      0.00545886906656
C   0.00763786931376      1.41738314923765      0.00392452278437
C   1.23121980774686      0.70211669058719     -0.01490206287210
C   2.46082110053113      1.40329203612573      0.00460244601878
C   3.68443025419614      0.68719842821222      0.00377365974158
C   4.91870890153864      1.39173456118907     -0.00862816189375
C   7.36980207796101      2.77948220318441     -0.00242013321349
C   7.38016266612146      1.39121750785509     -0.00087345036788
C   6.13979953912259      0.67411862320065      0.00545489144369
H   -8.27919079934664      3.40711804112415     -0.00763522772059
H   8.31511347147953      3.31811809662368     -0.00663070901292
C   -8.59175593758115      0.72483255304480     -0.00123170985383
C   -8.59902460370342     -0.63263980622873      0.00089141472904
C   -6.13981313911873     -0.67413663715361     -0.00609792660607
C   -7.38018411213749     -1.39126618958160      0.00131813493501
C   -4.91868448025621     -1.39175501803000      0.00624257154343
C   -3.68443829568458     -0.68723731573599     -0.00478966852105
C   -2.46081704024768     -1.40334517882457      0.00575341766833
C   -1.23116201232071     -0.70217386488055     -0.00636696112346
C   -0.00756962538737     -1.41741884941102      0.00108956317991
C   1.22364771588843     -0.71527537726392      0.01109518512883
C   2.44567064933149     -1.42964328900682     -0.00065482763106
C   3.67686670284649     -0.72670743155550     -0.00479541202602
C   6.13224884641929     -0.73997883984993     -0.00632338623858
C   4.90351914550401     -1.44445752054090      0.00751768830159
C   8.59901484869081      0.63260386666793     -0.00101133422380
C   8.59174548810050     -0.72485086719319      0.00072504603735
C   7.36486276438985     -1.47033266560598      0.00049486934466
H   -9.52830597181814      1.27684744919284     -0.00270163681798
H   9.54141097460619      1.17457248844457     -0.00206336648518
C   -7.36983790976868     -2.77954514593389      0.00312634335708
C   -4.92459910905015     -2.80843725734101     -0.00460528907921
C   -6.16662249566744     -3.51665219282533      0.00169655107992
C   -3.70251035970491     -3.52468154912026      0.00571878010666
C   -2.46764698511392     -2.82132596280400     -0.00632585824990
C   -0.01513347410770     -2.83314164539971     -0.00604426974092
C   -1.24712184122656     -3.53473217556300      0.00551968366725
C   1.20924506964357     -3.54791467864352      0.00805871345849
C   2.43733602215464     -2.84764173817541     -0.00608104485234
C   4.89430234377080     -2.86112296828604     -0.00526030478103
C   3.66461525504104     -3.56421984553201      0.00761911515957
C   6.12863901474565     -3.58258405771778      0.00096495711699
C   7.33967266469532     -2.85841330737039      0.00248018319869
H   -9.54144911125902     -1.17456346666430      0.00226083090216
H   9.52826186807155     -1.27691907390448      0.00197485379837
H   -8.31516504384864     -3.31814985321231      0.00729857188773
H   8.27915514249207     -3.40714078989363      0.00681973918158
C   -6.14499418870218     -4.92764727278338      0.00302254913999
C   -3.70678334799751     -4.94126171411716     -0.00679841894792
C   -4.95559005800169     -5.64349397349412      0.00116871569699
C   -2.48612132622665     -5.65478557440947      0.00614125209662
C   -1.25405833548005     -4.95612205000132     -0.00503435388927
C   1.20101257386816     -4.96928038819302     -0.00385322963129
C   -0.03033667441341     -5.66952030313900      0.00398997003238
C   3.65375010132847     -4.98074377541453     -0.00309522988330
C   2.42549269587528     -5.68117463552727      0.00628170066869
C   6.09196561781097     -4.99325796338655      0.00325918379042
C   4.89497644461045     -5.69634842095790      0.00202298796027
H   -7.08989238804069     -5.46699984223871      0.00742531082125
H   7.03105520920009     -5.54265853633254      0.00683896355417
C   -4.92354532219813     -7.07882109967734      0.00061394679214
C   -2.48534208823777     -7.08772807792913     -0.00189594564379
C   -3.75168589177895     -7.76394715763627     -0.00170126671874
C   -0.03794895698805     -7.09946487446944     -0.00168022049625
C   -1.27795610040136     -7.77290438466689     -0.00366491325785
C   2.40944432072629     -7.11402201200282     -0.00081701968533
C   1.19474993715296     -7.78618536556242     -0.00296931056689
C   4.84762105249800     -7.13126211057943      0.00168979497423
C   3.66847160587561     -7.80378799294376     -0.00065863938960
H   -5.86994035041618     -7.61383059804164      0.00215798365757
H   5.78824962538815     -7.67633218931421      0.00281691445618
H   -3.75352693944918     -8.85107156923607     -0.00353718114765
H   -1.28430440589466     -8.86087539249706     -0.00809229711623
H   1.18922157469537     -8.87416062058945     -0.00706194725726
H   3.65854661482387     -8.89086063405326     -0.00231318081200

    units angstrom      # Angstroms are the default
    no_reorient         # Geometry fixed, default
    symmetry c1         # C1 symmetry, default
}

set {
    scf_type DF         # Density fitting, faster than exact integrals
    freeze_core True    # Freeze core electrons
    basis jun-cc-pVDZ   # Jun-cc-pVDZ basis set, recommended for sSAPT0 in https://doi.org/10.1063/1.4867135
}

energy('ssapt0')        # Compute sSAPT0 energy, includes also SAPT0
--------------------------------------------------------------------------

  //              Dimer HF             //
    Molecular point group: c1
  Charge       = 1
  Multiplicity = 1
  Basis Set: JUN-CC-PVDZ
    Blend: JUN-CC-PVDZ
  Basis Set: (JUN-CC-PVDZ AUX)
    Blend: JUN-CC-PVDZ-JKFIT
  @DF-RHF Final Energy: -3953.65019724913009
    Total Energy =                      -3953.6501972491314518
 Dipole X            :          0.0017885            0.0004804            0.0022689
 Dipole Y            :         -1.5642306            1.8866171            0.3223865
 Dipole Z            :        -26.2562988           35.1680165            8.9117177
 Magnitude           :                                                    8.9175473
  //            Monomer A HF           //
    Molecular point group: c1
  Multiplicity = 1
  Basis Set: JUN-CC-PVDZ
    Blend: JUN-CC-PVDZ
  Basis Set: (JUN-CC-PVDZ AUX)
    Blend: JUN-CC-PVDZ-JKFIT
  @DF-RHF Final Energy:  -303.29749936290165
    Total Energy =                       -303.2974993629016467
  //            Monomer B HF           //
    Molecular point group: c1

    Geometry (in Angstrom), charge = 0, multiplicity = 1:

       Center              X                  Y                   Z               Mass
    ------------   -----------------  -----------------  -----------------  -----------------
      Gh(C)           0.680062820275    -1.215917226251     5.365833690558    12.000000000000
      Gh(C)          -0.680508179725    -1.215533226251     5.363805690558    12.000000000000
      Gh(N)          -1.085639179725     0.102790773749     5.362807690558    14.003074004430
      Gh(C)           0.000103820275     0.884191773749     5.359531690558    12.000000000000
      Gh(C)          -2.477369179725     0.570769773749     5.313401690558    12.000000000000
      Gh(N)           1.085217820275     0.102790773749     5.362807690558    14.003074004430
      Gh(H)           1.385141820275    -2.033356226251     5.373661690558     1.007825032230
      Gh(H)          -1.385306179725    -2.033202226251     5.363995690558     1.007825032230
      Gh(H)          -0.000013179725     1.965280773749     5.357784690558     1.007825032230
      Gh(C)           2.478112820275     0.567888773749     5.379699690558    12.000000000000
      Gh(H)           2.490587820275     1.658141773750     5.352354690558     1.007825032230
      Gh(H)           2.967023820275     0.220712773749     6.293145690558     1.007825032230
      Gh(H)           3.001423820275     0.176416773749     4.504216690558     1.007825032230
      Gh(H)          -2.857363179725     0.490810773749     4.291330690558     1.007825032230
      Gh(H)          -3.082683179725    -0.042294226251     5.983485690558     1.007825032230
      Gh(H)          -2.518132179725     1.610717773749     5.640385690558     1.007825032230
         C           -3.668445443746     7.803763943832    -0.440308268106    12.000000000000
         C           -4.847602899072     7.131253605090    -0.442674843039    12.000000000000
         C           -4.894963478901     5.696342177281    -0.443247754137    12.000000000000
         C           -3.653744858499     4.980742114708    -0.435587312407    12.000000000000
         C           -2.409429301220     7.113992810424    -0.440113925846    12.000000000000
         C           -2.425481523830     5.681133724653    -0.447118814716    12.000000000000
         C           -1.194748196161     7.786155968059    -0.438641745304    12.000000000000
         C            0.037954849212     7.099433419506    -0.440812449609    12.000000000000
         C            0.030328407694     5.669501333454    -0.446295834525    12.000000000000
         C           -1.200988687630     4.969282121665    -0.437326100591    12.000000000000
         C            1.277953646089     7.772871216944    -0.439436601048    12.000000000000
         C            2.485353904999     7.087708658987    -0.441711088953    12.000000000000
         C            2.486124505192     5.654782583990    -0.448648837941    12.000000000000
         C            1.254078739919     4.956089887414    -0.437020896353    12.000000000000
         C            3.751710411681     7.763923924730    -0.441584237573    12.000000000000
         C            4.923561876460     7.078792550739    -0.443640718281    12.000000000000
         C            4.955603091600     5.643459237119    -0.443801131088    12.000000000000
         C            3.706797354479     4.941221982083    -0.438709570918    12.000000000000
         H           -3.658525317484     8.890839192885    -0.438623279856     1.007825032230
         H           -1.189217509482     8.874132861109    -0.434669868863     1.007825032230
         H            1.284290059161     8.860845209238    -0.435277776907     1.007825032230
         H            3.753537907074     8.851047052722    -0.440061713257     1.007825032230
         H            5.869954523482     7.613806608405    -0.444566085323     1.007825032230
         H           -5.788235887228     7.676313986684    -0.444234690395     1.007825032230
         C           -6.091978138422     4.993271787393    -0.445119994628    12.000000000000
         C           -6.128665660043     3.582591942548    -0.443918817599    12.000000000000
         C           -3.664583919771     3.564193953494    -0.446843912217    12.000000000000
         C           -4.894302384424     2.861092549650    -0.437674927231    12.000000000000
         C           -2.437339174623     2.847623430834    -0.435012133680    12.000000000000
         C           -1.209232037322     3.547898708728    -0.448691160472    12.000000000000
         C            1.247137392437     3.534692525179    -0.449499766877    12.000000000000
         C            0.015171859844     2.833123613055    -0.437815583653    12.000000000000
         C            2.467640992715     2.821301751005    -0.437715525529    12.000000000000
         C            3.702545294854     3.524671928174    -0.451203486372    12.000000000000
         C            6.144976206658     4.927584139881    -0.445034576299    12.000000000000
         C            6.166584179136     3.516596249692    -0.442868022863    12.000000000000
         C            4.924605778734     2.808419699104    -0.436329276626    12.000000000000
         H            7.089901329916     5.466899539973    -0.448796457149     1.007825032230
         H           -7.031045930827     5.542699726607    -0.449353209579     1.007825032230
         C           -7.339702220848     2.858423308329    -0.445545985041    12.000000000000
         C           -7.364886137784     1.470335145333    -0.443780446913    12.000000000000
         C           -4.903508788672     1.444438585909    -0.448496711105    12.000000000000
         C           -6.132261332336     0.739951130803    -0.436206667122    12.000000000000
         C           -3.676878980242     0.726708916423    -0.437868994705    12.000000000000
         C           -2.445660765791     1.429652907012    -0.448178704906    12.000000000000
         C           -1.223604861027     0.715336275384    -0.436749440375    12.000000000000
         C            0.007633689588     1.417394922987    -0.438283786657    12.000000000000
         C            1.231215628021     0.702128464337    -0.457110372314    12.000000000000
         C            2.460816920806     1.403303809875    -0.437605863423    12.000000000000
         C            3.684426074471     0.687210201962    -0.438434649700    12.000000000000
         C            4.918704721813     1.391746334939    -0.450836471335    12.000000000000
         C            7.369797898236     2.779493976934    -0.444628442655    12.000000000000
         C            7.380158486396     1.391229281605    -0.443081759810    12.000000000000
         C            6.139795359397     0.674130396950    -0.436753417998    12.000000000000
         H           -8.279194979072     3.407129814874    -0.449843537162     1.007825032230
         H            8.315109291754     3.318129870373    -0.448839018455     1.007825032230
         C           -8.591760117307     0.724844326794    -0.443440019296    12.000000000000
         C           -8.599028783429    -0.632628032479    -0.441316894713    12.000000000000
         C           -6.139817318844    -0.674124863404    -0.448306236048    12.000000000000
         C           -7.380188291863    -1.391254415832    -0.440890174507    12.000000000000
         C           -4.918688659982    -1.391743244281    -0.435965737898    12.000000000000
         C           -3.684442475410    -0.687225541986    -0.446997977963    12.000000000000
         C           -2.460821219973    -1.403333405075    -0.436454891773    12.000000000000
         C           -1.231166192046    -0.702162091131    -0.448575270565    12.000000000000
         C           -0.007573805113    -1.417407075662    -0.441118746262    12.000000000000
         C            1.223643536163    -0.715263603514    -0.431113124313    12.000000000000
         C            2.445666469606    -1.429631515257    -0.442863137073    12.000000000000
         C            3.676862523121    -0.726695657806    -0.447003721468    12.000000000000
         C            6.132244666694    -0.739967066100    -0.448531695680    12.000000000000
         C            4.903514965779    -1.444445746791    -0.434690621140    12.000000000000
         C            8.599010668965     0.632615640417    -0.443219643665    12.000000000000
         C            8.591741308375    -0.724839093444    -0.441483263404    12.000000000000
         C            7.364858584664    -1.470320891856    -0.441713440097    12.000000000000
         H           -9.528310151544     1.276859222942    -0.444909946260     1.007825032230
         H            9.541406794881     1.174584262194    -0.444271675927     1.007825032230
         C           -7.369842089494    -2.779533372184    -0.439081966085    12.000000000000
         C           -4.924603288776    -2.808425483592    -0.446813598521    12.000000000000
         C           -6.166626675393    -3.516640419076    -0.440511758362    12.000000000000
         C           -3.702514539430    -3.524669775371    -0.436489529335    12.000000000000
         C           -2.467651164839    -2.821314189055    -0.448534167692    12.000000000000
         C           -0.015137653833    -2.833129871650    -0.448252579183    12.000000000000
         C           -1.247126020952    -3.534720401814    -0.436688625774    12.000000000000
         C            1.209240889918    -3.547902904894    -0.434149595983    12.000000000000
         C            2.437331842429    -2.847629964426    -0.448289354294    12.000000000000
         C            4.894298164045    -2.861111194537    -0.447468614223    12.000000000000
         C            3.664611075316    -3.564208071783    -0.434589194282    12.000000000000
         C            6.128634835020    -3.582572283968    -0.441243352325    12.000000000000
         C            7.339668484970    -2.858401533621    -0.439728126243    12.000000000000
         H           -9.541453290984    -1.174551692915    -0.439947478540     1.007825032230
         H            9.528257688346    -1.276907300155    -0.440233455643     1.007825032230
         H           -8.315169223574    -3.318138079463    -0.434909737554     1.007825032230
         H            8.279150962767    -3.407129016144    -0.435388570260     1.007825032230
         C           -6.144998368428    -4.927635499034    -0.439185760302    12.000000000000
         C           -3.706787527723    -4.941249940368    -0.449006728390    12.000000000000
         C           -4.955594237727    -5.643482199745    -0.441039593745    12.000000000000
         C           -2.486125505952    -5.654773800660    -0.436067057345    12.000000000000
         C           -1.254062515205    -4.956110276252    -0.447242663331    12.000000000000
         C            1.201008394143    -4.969268614444    -0.446061539073    12.000000000000
         C           -0.030340854139    -5.669508529390    -0.438218339409    12.000000000000
         C            3.653745921603    -4.980732001665    -0.445303539325    12.000000000000
         C            2.425488516150    -5.681162861778    -0.435926608773    12.000000000000
         C            6.091961438086    -4.993246189637    -0.438949125651    12.000000000000
         C            4.894972264885    -5.696336647208    -0.440185321481    12.000000000000
         H           -7.089896567766    -5.466988068489    -0.434782998620     1.007825032230
         H            7.031051029475    -5.542646762583    -0.435369345888     1.007825032230
         C           -4.923549501924    -7.078809325928    -0.441594362650    12.000000000000
         C           -2.485346267963    -7.087716304180    -0.444104255085    12.000000000000
         C           -3.751690071504    -7.763935383887    -0.443909576160    12.000000000000
         C           -0.037953136713    -7.099453100720    -0.443888529938    12.000000000000
         C           -1.277960280127    -7.772892610917    -0.445873222700    12.000000000000
         C            2.409440141001    -7.114010238253    -0.443025329127    12.000000000000
         C            1.194745757428    -7.786173591813    -0.445177620009    12.000000000000
         C            4.847616872773    -7.131250336830    -0.440518514467    12.000000000000
         C            3.668467426150    -7.803776219194    -0.442866948831    12.000000000000
         H           -5.869944530142    -7.613818824292    -0.440050325784     1.007825032230
         H            5.788245445663    -7.676320415565    -0.439391394985     1.007825032230
         H           -3.753531119175    -8.851059795487    -0.445745490589     1.007825032230
         H           -1.284308585620    -8.860863618748    -0.450300606558     1.007825032230
         H            1.189217394970    -8.874148846840    -0.449270256699     1.007825032230
         H            3.658542435098    -8.890848860304    -0.444521490254     1.007825032230

  Charge       = 0
  Multiplicity = 1
  Basis Set: JUN-CC-PVDZ
    Blend: JUN-CC-PVDZ
  Basis Set: (JUN-CC-PVDZ AUX)
    Blend: JUN-CC-PVDZ-JKFIT

    Orbital Energies [Eh]
    ---------------------

    Doubly Occupied:

       1A    -11.264001     2A    -11.263685     3A    -11.263685
       4A    -11.263342     5A    -11.263339     6A    -11.263305
       7A    -11.263147     8A    -11.263122     9A    -11.263119
      10A    -11.262961    11A    -11.262801    12A    -11.262798
      13A    -11.262319    14A    -11.262318    15A    -11.262245
      16A    -11.262245    17A    -11.262193    18A    -11.262161
      19A    -11.262116    20A    -11.262079    21A    -11.262076
      22A    -11.261924    23A    -11.261920    24A    -11.261805
      25A    -11.261792    26A    -11.261777    27A    -11.261773
      28A    -11.261725    29A    -11.261717    30A    -11.261642
      31A    -11.261615    32A    -11.261612    33A    -11.261586
      34A    -11.261584    35A    -11.261563    36A    -11.261512
      37A    -11.261384    38A    -11.261374    39A    -11.261368
      40A    -11.261361    41A    -11.261356    42A    -11.261348
      43A    -11.261340    44A    -11.261325    45A    -11.261320
      46A    -11.261298    47A    -11.261293    48A    -11.261290
      49A    -11.261127    50A    -11.261094    51A    -11.261092
      52A    -11.261009    53A    -11.261009    54A    -11.260937
      55A    -11.259979    56A    -11.259965    57A    -11.259963
      58A    -11.259934    59A    -11.259932    60A    -11.259916
      61A    -11.259355    62A    -11.259330    63A    -11.259326
      64A    -11.259275    65A    -11.259272    66A    -11.259243
      67A    -11.258982    68A    -11.258964    69A    -11.258963
      70A    -11.258935    71A    -11.258933    72A    -11.258921
      73A    -11.254567    74A    -11.254565    75A    -11.254563
      76A    -11.254561    77A    -11.254556    78A    -11.254553
      79A    -11.253709    80A    -11.253708    81A    -11.253705
      82A    -11.253703    83A    -11.253701    84A    -11.253696
      85A    -11.253625    86A    -11.253623    87A    -11.253620
      88A    -11.253618    89A    -11.253616    90A    -11.253612
      91A    -11.253094    92A    -11.253093    93A    -11.253091
      94A    -11.253089    95A    -11.253084    96A    -11.253081
      97A     -1.254055    98A     -1.239084    99A     -1.239081
     100A     -1.220538   101A     -1.220533   102A     -1.215541
     103A     -1.201106   104A     -1.195673   105A     -1.188236
     106A     -1.188232   107A     -1.173827   108A     -1.173824
     109A     -1.155715   110A     -1.155711   111A     -1.152813
     112A     -1.144782   113A     -1.144779   114A     -1.128644
     115A     -1.114797   116A     -1.113223   117A     -1.112577
     118A     -1.112562   119A     -1.111675   120A     -1.088506
     121A     -1.088491   122A     -1.077020   123A     -1.077019
     124A     -1.067697   125A     -1.067666   126A     -1.065060
     127A     -1.046871   128A     -1.046863   129A     -1.040555
     130A     -1.038793   131A     -1.038792   132A     -1.025327
     133A     -1.021488   134A     -1.021436   135A     -1.007245
     136A     -1.006882   137A     -1.003863   138A     -1.000573
     139A     -1.000524   140A     -0.991130   141A     -0.971067
     142A     -0.971018   143A     -0.955947   144A     -0.955891
     145A     -0.905690   146A     -0.905649   147A     -0.905603
     148A     -0.905563   149A     -0.904439   150A     -0.892461
     151A     -0.892402   152A     -0.890453   153A     -0.890396
     154A     -0.889534   155A     -0.872279   156A     -0.869104
     157A     -0.851604   158A     -0.847950   159A     -0.847929
     160A     -0.845684   161A     -0.843094   162A     -0.834634
     163A     -0.834621   164A     -0.828174   165A     -0.828170
     166A     -0.784622   167A     -0.784611   168A     -0.783742
     169A     -0.783717   170A     -0.782362   171A     -0.782342
     172A     -0.782118   173A     -0.767059   174A     -0.760885
     175A     -0.750663   176A     -0.733544   177A     -0.727140
     178A     -0.727125   179A     -0.725157   180A     -0.724609
     181A     -0.724589   182A     -0.718587   183A     -0.713857
     184A     -0.713851   185A     -0.699643   186A     -0.699630
     187A     -0.686218   188A     -0.686016   189A     -0.686013
     190A     -0.682235   191A     -0.682226   192A     -0.678857
     193A     -0.653695   194A     -0.650942   195A     -0.650911
     196A     -0.649900   197A     -0.649885   198A     -0.649625
     199A     -0.641019   200A     -0.640990   201A     -0.640147
     202A     -0.639216   203A     -0.636100   204A     -0.636073
     205A     -0.629208   206A     -0.617698   207A     -0.615360
     208A     -0.615339   209A     -0.608865   210A     -0.608858
     211A     -0.599151   212A     -0.599126   213A     -0.598815
     214A     -0.598681   215A     -0.598660   216A     -0.598128
     217A     -0.595125   218A     -0.595112   219A     -0.594788
     220A     -0.594326   221A     -0.592029   222A     -0.592026
     223A     -0.587482   224A     -0.577842   225A     -0.577831
     226A     -0.575713   227A     -0.575706   228A     -0.573441
     229A     -0.569568   230A     -0.568228   231A     -0.568204
     232A     -0.566822   233A     -0.566812   234A     -0.560961
     235A     -0.558794   236A     -0.558773   237A     -0.558476
     238A     -0.554434   239A     -0.550598   240A     -0.547520
     241A     -0.544306   242A     -0.535022   243A     -0.534995
     244A     -0.533601   245A     -0.533580   246A     -0.528135
     247A     -0.528119   248A     -0.527881   249A     -0.517249
     250A     -0.517215   251A     -0.515393   252A     -0.515387
     253A     -0.509697   254A     -0.509681   255A     -0.498086
     256A     -0.496516   257A     -0.496488   258A     -0.493816
     259A     -0.493810   260A     -0.489452   261A     -0.481506
     262A     -0.477455   263A     -0.477453   264A     -0.474053
     265A     -0.469510   266A     -0.466591   267A     -0.466586
     268A     -0.458841   269A     -0.446779   270A     -0.446719
     271A     -0.441061   272A     -0.440795   273A     -0.440766
     274A     -0.434724   275A     -0.433941   276A     -0.407410
     277A     -0.407388   278A     -0.386446   279A     -0.386398
     280A     -0.385765   281A     -0.385764   282A     -0.383790
     283A     -0.354361   284A     -0.354344   285A     -0.350699
     286A     -0.338123   287A     -0.335619   288A     -0.335557
     289A     -0.332747   290A     -0.332742   291A     -0.307118
     292A     -0.301980   293A     -0.301921   294A     -0.300876
     295A     -0.286206   296A     -0.256498   297A     -0.253532
     298A     -0.253483   299A     -0.204296   300A     -0.204209

  @DF-RHF Final Energy: -3650.33850078157820

   => Energetics <=

    Nuclear Repulsion Energy =          15611.4211649754324753
    One-Electron Energy =              -36072.1091306383896153
    Two-Electron Energy =               16810.3494648813793901
    Total Energy =                      -3650.3385007815777499
 Dipole X            :         -0.0009654            0.0002112           -0.0007543
 Dipole Y            :          0.0042147           -0.0044281           -0.0002133
 Dipole Z            :        501.3773761         -501.3881652           -0.0107892
 Magnitude           :                                                    0.0108176

    SAPT Results
  --------------------------------------------------------------------------------------------------------
    Electrostatics                 -9.76787720 [mEh]      -6.12943548 [kcal/mol]     -25.64555805 [kJ/mol]
      Elst10,r                     -9.76787720 [mEh]      -6.12943548 [kcal/mol]     -25.64555805 [kJ/mol]

    Exchange                        0.00243679 [mEh]       0.00152911 [kcal/mol]       0.00639780 [kJ/mol]
      Exch10                        0.00243679 [mEh]       0.00152911 [kcal/mol]       0.00639780 [kJ/mol]
      Exch10(S^2)                   0.00243679 [mEh]       0.00152911 [kcal/mol]       0.00639780 [kJ/mol]

    Induction                      -4.43166424 [mEh]      -2.78091130 [kcal/mol]     -11.63533287 [kJ/mol]
      Ind20,r                      -4.34546670 [mEh]      -2.72682152 [kcal/mol]     -11.40902124 [kJ/mol]
      Exch-Ind20,r                  0.00270456 [mEh]       0.00169714 [kcal/mol]       0.00710083 [kJ/mol]
      delta HF,r (2)               -0.08890211 [mEh]      -0.05578692 [kcal/mol]      -0.23341246 [kJ/mol]

    Dispersion                     -3.47584884 [mEh]      -2.18112808 [kcal/mol]      -9.12583988 [kJ/mol]
      Disp20                       -3.47806898 [mEh]      -2.18252124 [kcal/mol]      -9.13166886 [kJ/mol]
      Exch-Disp20                   0.00222014 [mEh]       0.00139316 [kcal/mol]       0.00582897 [kJ/mol]
      Disp20 (SS)                  -1.73903449 [mEh]      -1.09126062 [kcal/mol]      -4.56583443 [kJ/mol]
      Disp20 (OS)                  -1.73903449 [mEh]      -1.09126062 [kcal/mol]      -4.56583443 [kJ/mol]
      Exch-Disp20 (SS)              0.00162536 [mEh]       0.00101993 [kcal/mol]       0.00426738 [kJ/mol]
      Exch-Disp20 (OS)              0.00059478 [mEh]       0.00037323 [kcal/mol]       0.00156160 [kJ/mol]

  Total HF                        -14.19710465 [mEh]      -8.90881767 [kcal/mol]     -37.27449312 [kJ/mol]
  Total SAPT0                     -17.67295349 [mEh]     -11.08994575 [kcal/mol]     -46.40033301 [kJ/mol]

  Special recipe for scaled SAPT0 (see Manual):
    Electrostatics sSAPT0          -9.76787720 [mEh]      -6.12943548 [kcal/mol]     -25.64555805 [kJ/mol]
    Exchange sSAPT0                 0.00243679 [mEh]       0.00152911 [kcal/mol]       0.00639780 [kJ/mol]
    Induction sSAPT0               -4.43166424 [mEh]      -2.78091130 [kcal/mol]     -11.63533287 [kJ/mol]
    Dispersion sSAPT0              -3.47584884 [mEh]      -2.18112808 [kcal/mol]      -9.12583988 [kJ/mol]
  Total sSAPT0                    -17.67295349 [mEh]     -11.08994575 [kcal/mol]     -46.40033301 [kJ/mol]
  --------------------------------------------------------------------------------------------------------

*** Psi4 exiting successfully. Buy a developer a beer!
