                               Psi4 1.9 release

  ==> Input File <==

--------------------------------------------------------------------------
memory 32 GB # how much memory is available ! Depends on the nodes/cores !

molecule dimer {
# monomer A
-1 1    # Charge and multiplicity
B -1.977592e-04  2.742729e-04 -3.999966
F  1.123153e-16  1.430594e-17 -2.587181
F  1.147860e+00  6.757812e-01 -4.471107
F  1.191806e-02 -1.332011e+00 -4.470905
F -1.159666e+00  6.560735e-01 -4.470826
--
# monomer B
0 1     # Charge and multiplicity
C   1.22531237526482      0.70753866091955      0.00613762728373
C   1.22532433589282     -0.70753852257020     -0.00619318228664
C   -0.00000567409046      1.41496628609039     -0.00672680580738
C   2.45644923379077      1.41832825917820      0.00902448468363
C   0.00001130712078     -1.41497612663474      0.00347275151708
C   -1.22530046906674      0.70754574598412      0.00838914760619
C   2.45643823516184     -1.41832293188077     -0.00843833914343
C   -0.00000085313587      2.83680140328112     -0.00913035594137
C   3.68182717731192      0.70931832800114     -0.00808954934571
C   2.45512052870677      2.83422403348893     -0.00819210630633
C   3.68182158506039     -0.70933346742900      0.00798293467272
C   -1.22531311884624     -0.70752714354401     -0.00512042085974
C   1.22670006104402      3.54346985599427      0.00816696660346
C   0.00000526469929     -2.83678176723568      0.00832091913869
C   -2.45643555300670      1.41831729028492      0.00842454345199
C   2.45512389762097     -2.83422965658853      0.00783102630520
C   -1.22671388474763      3.54346943575023      0.00827029982280
C   4.91451777504333      1.42717324448953     -0.00160886631602
C   3.69315067131765      3.54279566454522     -0.00155906667985
C   -2.45643712022637     -1.41831290883911     -0.00846337726810
C   1.22670532178455     -3.54347386990643     -0.00780316414624
C   -2.45512491866593      2.83421703463423     -0.00818572995999
C   4.91452486062398     -1.42718653794377      0.00136387641845
C   1.22142509354026      4.97013443726031      0.00150231067809
C   4.89300870916237      2.82518837202648     -0.00039219795739
C   -1.22669652864725     -3.54347062507680     -0.00753595973677
C   -3.68181849668397      0.70932533873199     -0.00807686886569
C   3.69314758099218     -3.54280096939050      0.00148176697923
C   -1.22143177215231      4.97012866986289      0.00168580605083
C   6.13477145276790      0.68054831910577     -0.00083909176631
C   3.65678936045204      4.97295361556775     -0.00065042889723
C   -2.45512642789169     -2.83421472106065      0.00758666850712
C   -3.68181869921921     -0.70932533146830      0.00810055625144
C   4.89301309775526     -2.82519973363176      0.00021895393805
C   -0.00000059327114      5.65044773803267      0.00045449734393
C   6.13477559217374     -0.68055448207492      0.00042622874941
C   2.47813196269732      5.65357712333155      0.00063835075260
C   1.22142288457925     -4.97012668293268     -0.00129718634452
C   -3.69316190412301      3.54279732619245     -0.00139355922051
C   -1.22142804110313     -4.97011793159564     -0.00140994817719
C   -4.91452132810043      1.42717581899491     -0.00153192130862
C   3.65678749952045     -4.97295485423912      0.00080007163680
C   -2.47813805026426      5.65357479452875      0.00092287576113
C   -3.69314125872231     -3.54278984697859      0.00136564082345
C   -4.91451200321153     -1.42718062802730      0.00139857359209
C   -0.00000552908399     -5.65043791501335      0.00005899322272
C   -4.89302000425900      2.82518897091939     -0.00040227981744
C   2.47812647313991     -5.65357317188818     -0.00029052915548
C   -3.65679823041642      4.97295655404175     -0.00047374852278
C   -4.89299899901461     -2.82519139505969      0.00006491824035
C   -2.47812801824129     -5.65356579800621     -0.00056571680280
C   -6.13477002348955      0.68054913825639     -0.00086464346868
C   -3.65678835334731     -4.97294365097028      0.00058578382008
C   -6.13476456307132     -0.68055354348201      0.00040575295444
H   5.83528897565761      3.36927626695423      0.00396712770529
H   7.07385965258860      1.22821762089947     -0.00037744837300
H   4.60066374401555      5.51238117445323     -0.00014522814529
H   5.83528386714679     -3.36930568472863     -0.00423551337640
H   -0.00001167146422      6.73853104613662     -0.00389474766392
H   7.07386165167227     -1.22822657074368     -0.00008250934481
H   2.47331421164041      6.74068466339473      0.00017162982210
H   4.60066897122302     -5.51237575717576      0.00039007446835
H   -2.47331820069565      6.74068209160650      0.00047297644710
H   -0.00000978838621     -6.73852780445195      0.00458867820736
H   -5.83530143450167      3.36927132229595      0.00410314985360
H   2.47330840367253     -6.74068500242887      0.00027980126949
H   -4.60067436136587      5.51237839860371      0.00002010017831
H   -5.83527902699321     -3.36928859177951     -0.00451481925734
H   -2.47329986759855     -6.74067870613986     -0.00016951527498
H   -7.07385728692578      1.22822084484047     -0.00046143985387
H   -4.60067330624313     -5.51236229778631      0.00021776644566
H   -7.07385645456741     -1.22822025997701     -0.00017736581114

    units angstrom      # Angstroms are the default
    no_reorient         # Geometry fixed, default
    symmetry c1         # C1 symmetry, default
}

set {
    scf_type DF         # Density fitting, faster than exact integrals
    freeze_core True    # Freeze core electrons
    basis jun-cc-pVDZ   # Jun-cc-pVDZ basis set, recommended for sSAPT0 in https://doi.org/10.1063/1.4867135
}

energy('ssapt0')        # Compute sSAPT0 energy, includes also SAPT0
--------------------------------------------------------------------------

  //              Dimer HF             //
    Molecular point group: c1
  Charge       = -1
  Multiplicity = 1
  Basis Set: JUN-CC-PVDZ
    Blend: JUN-CC-PVDZ
  Basis Set: (JUN-CC-PVDZ AUX)
    Blend: JUN-CC-PVDZ-JKFIT
  @DF-RHF Final Energy: -2478.65914002341378
    Total Energy =                      -2478.6591400234137836
 Dipole X            :         -0.0004218            0.0000481           -0.0003737
 Dipole Y            :          0.0008613           -0.0001453            0.0007160
 Dipole Z            :        -19.1561893           24.5214896            5.3653003
 Magnitude           :                                                    5.3653004
  //            Monomer A HF           //
    Molecular point group: c1
  Multiplicity = 1
  Basis Set: JUN-CC-PVDZ
    Blend: JUN-CC-PVDZ
  Basis Set: (JUN-CC-PVDZ AUX)
    Blend: JUN-CC-PVDZ-JKFIT
  @DF-RHF Final Energy:  -422.77285044481096
    Total Energy =                       -422.7728504448109561
  //            Monomer B HF           //
    Molecular point group: c1

    Geometry (in Angstrom), charge = 0, multiplicity = 1:

       Center              X                  Y                   Z               Mass
    ------------   -----------------  -----------------  -----------------  -----------------
      Gh(B)          -0.000198161052     0.000273808717    -3.537885117298    11.009305360000
      Gh(F)          -0.000000401852    -0.000000464183    -2.125100117298    18.998403162730
      Gh(F)           1.147859598148     0.675780735817    -4.009026117298    18.998403162730
      Gh(F)           0.011917658148    -1.332011464183    -4.008824117298    18.998403162730
      Gh(F)          -1.159666401852     0.656073035817    -4.008745117298    18.998403162730
         C            1.225311973413     0.707538196736     0.468218509986    12.000000000000
         C            1.225323934041    -0.707538986754     0.455887700416    12.000000000000
         C           -0.000006075942     1.414965821907     0.455354076895    12.000000000000
         C            2.456448831939     1.418327794995     0.471105367386    12.000000000000
         C            0.000010905269    -1.414976590818     0.465553634219    12.000000000000
         C           -1.225300870919     0.707545281801     0.470470030308    12.000000000000
         C            2.456437833310    -1.418323396064     0.453642543559    12.000000000000
         C           -0.000001254988     2.836800939098     0.452950526761    12.000000000000
         C            3.681826775460     0.709317863818     0.453991333356    12.000000000000
         C            2.455120126855     2.834223569306     0.453888776396    12.000000000000
         C            3.681821183209    -0.709333931612     0.470063817375    12.000000000000
         C           -1.225313520698    -0.707527607727     0.456960461842    12.000000000000
         C            1.226699659192     3.543469391811     0.470247849306    12.000000000000
         C            0.000004862847    -2.836782231419     0.470401801841    12.000000000000
         C           -2.456435954859     1.418316826102     0.470505426154    12.000000000000
         C            2.455123495769    -2.834230120772     0.469911909007    12.000000000000
         C           -1.226714286599     3.543468971567     0.470351182525    12.000000000000
         C            4.914517373191     1.427172780306     0.460472016386    12.000000000000
         C            3.693150269466     3.542795200362     0.460521816022    12.000000000000
         C           -2.456437522078    -1.418313373022     0.453617505434    12.000000000000
         C            1.226704919933    -3.543474334090     0.454277718556    12.000000000000
         C           -2.455125320518     2.834216570451     0.453895152742    12.000000000000
         C            4.914524458772    -1.427187002127     0.463444759121    12.000000000000
         C            1.221424691688     4.970133973077     0.463583193380    12.000000000000
         C            4.893008307311     2.825187907843     0.461688684745    12.000000000000
         C           -1.226696930499    -3.543471089260     0.454544922965    12.000000000000
         C           -3.681818898536     0.709324874549     0.454004013836    12.000000000000
         C            3.693147179140    -3.542801433574     0.463562649681    12.000000000000
         C           -1.221432174004     4.970128205680     0.463766688753    12.000000000000
         C            6.134771050916     0.680547854922     0.461241790936    12.000000000000
         C            3.656788958600     4.972953151384     0.461430453805    12.000000000000
         C           -2.455126829744    -2.834215185244     0.469667551209    12.000000000000
         C           -3.681819101071    -0.709325795652     0.470181438954    12.000000000000
         C            4.893012695903    -2.825200197815     0.462299836640    12.000000000000
         C           -0.000000995123     5.650447273849     0.462535380046    12.000000000000
         C            6.134775190322    -0.680554946258     0.462507111452    12.000000000000
         C            2.478131560845     5.653576659148     0.462719233455    12.000000000000
         C            1.221422482727    -4.970127147116     0.460783696358    12.000000000000
         C           -3.693162305975     3.542796862009     0.460687323482    12.000000000000
         C           -1.221428442955    -4.970118395779     0.460670934525    12.000000000000
         C           -4.914521729952     1.427175354812     0.460548961394    12.000000000000
         C            3.656787097669    -4.972955318422     0.462880954339    12.000000000000
         C           -2.478138452116     5.653574330345     0.463003758463    12.000000000000
         C           -3.693141660574    -3.542790311162     0.463446523526    12.000000000000
         C           -4.914512405063    -1.427181092211     0.463479456294    12.000000000000
         C           -0.000005930936    -5.650438379197     0.462139875925    12.000000000000
         C           -4.893020406111     2.825188506736     0.461678602885    12.000000000000
         C            2.478126071288    -5.653573636072     0.461790353547    12.000000000000
         C           -3.656798632268     4.972956089858     0.461607134179    12.000000000000
         C           -4.892999400866    -2.825191859243     0.462145800943    12.000000000000
         C           -2.478128420093    -5.653566262190     0.461515165899    12.000000000000
         C           -6.134770425341     0.680548674073     0.461216239233    12.000000000000
         C           -3.656788755199    -4.972944115154     0.462666666522    12.000000000000
         C           -6.134764964923    -0.680554007665     0.462486635657    12.000000000000
         H            5.835288573806     3.369275802771     0.466048010407     1.007825032230
         H            7.073859250737     1.228217156716     0.461703434329     1.007825032230
         H            4.600663342164     5.512380710270     0.461935654557     1.007825032230
         H            5.835283465295    -3.369306148912     0.457845369326     1.007825032230
         H           -0.000012073316     6.738530581953     0.458186135038     1.007825032230
         H            7.073861249820    -1.228227034927     0.461998373357     1.007825032230
         H            2.473313809789     6.740684199211     0.462252512524     1.007825032230
         H            4.600668569371    -5.512376221359     0.462470957171     1.007825032230
         H           -2.473318602548     6.740681627423     0.462553859149     1.007825032230
         H           -0.000010190238    -6.738528268635     0.466669560910     1.007825032230
         H           -5.835301836354     3.369270858113     0.466184032556     1.007825032230
         H            2.473308001821    -6.740685466612     0.462360683972     1.007825032230
         H           -4.600674763218     5.512377934420     0.462100982880     1.007825032230
         H           -5.835279428845    -3.369289055963     0.457566063445     1.007825032230
         H           -2.473300269450    -6.740679170323     0.461911367427     1.007825032230
         H           -7.073857688778     1.228220380657     0.461619442848     1.007825032230
         H           -4.600673708095    -5.512362761970     0.462298649148     1.007825032230
         H           -7.073856856419    -1.228220724160     0.461903516891     1.007825032230

  Charge       = 0
  Multiplicity = 1
  Basis Set: JUN-CC-PVDZ
    Blend: JUN-CC-PVDZ
  Basis Set: (JUN-CC-PVDZ AUX)
    Blend: JUN-CC-PVDZ-JKFIT

    Orbital Energies [Eh]
    ---------------------

    Doubly Occupied:

       1A    -11.260715     2A    -11.260261     3A    -11.260258
       4A    -11.259486     5A    -11.259484     6A    -11.259284
       7A    -11.259041     8A    -11.258972     9A    -11.258970
      10A    -11.258669    11A    -11.258665    12A    -11.258554
      13A    -11.258501    14A    -11.258500    15A    -11.258494
      16A    -11.258460    17A    -11.258453    18A    -11.258437
      19A    -11.258429    20A    -11.258425    21A    -11.258419
      22A    -11.258358    23A    -11.258354    24A    -11.258121
      25A    -11.257332    26A    -11.257272    27A    -11.257270
      28A    -11.257137    29A    -11.257137    30A    -11.257053
      31A    -11.256423    32A    -11.256353    33A    -11.256353
      34A    -11.256245    35A    -11.256244    36A    -11.256198
      37A    -11.252314    38A    -11.252314    39A    -11.252312
      40A    -11.252311    41A    -11.252309    42A    -11.252307
      43A    -11.251422    44A    -11.251419    45A    -11.251418
      46A    -11.251412    47A    -11.251411    48A    -11.251407
      49A    -11.250876    50A    -11.250875    51A    -11.250873
      52A    -11.250871    53A    -11.250870    54A    -11.250868
      55A     -1.244091    56A     -1.219844    57A     -1.219843
      58A     -1.189575    59A     -1.189567    60A     -1.180989
      61A     -1.157598    62A     -1.149012    63A     -1.135521
      64A     -1.135514    65A     -1.113229    66A     -1.113225
      67A     -1.082457    68A     -1.082450    69A     -1.078645
      70A     -1.066019    71A     -1.066015    72A     -1.039434
      73A     -1.024296    74A     -1.021803    75A     -1.021760
      76A     -1.017766    77A     -1.012835    78A     -0.987050
      79A     -0.987004    80A     -0.961918    81A     -0.961868
      82A     -0.894326    83A     -0.894299    84A     -0.887974
      85A     -0.886208    86A     -0.886150    87A     -0.881433
      88A     -0.881385    89A     -0.861933    90A     -0.837451
      91A     -0.818244    92A     -0.816634    93A     -0.812174
      94A     -0.812165    95A     -0.794725    96A     -0.794715
      97A     -0.746662    98A     -0.744886    99A     -0.733444
     100A     -0.733435   101A     -0.732220   102A     -0.732197
     103A     -0.716539   104A     -0.699009   105A     -0.698998
     106A     -0.693621   107A     -0.693605   108A     -0.661266
     109A     -0.653128   110A     -0.651176   111A     -0.650294
     112A     -0.650288   113A     -0.639397   114A     -0.639394
     115A     -0.629752   116A     -0.627559   117A     -0.627543
     118A     -0.606519   119A     -0.605848   120A     -0.601691
     121A     -0.599771   122A     -0.599740   123A     -0.593672
     124A     -0.591249   125A     -0.591238   126A     -0.585317
     127A     -0.576382   128A     -0.576376   129A     -0.567363
     130A     -0.567349   131A     -0.565984   132A     -0.565965
     133A     -0.558749   134A     -0.554882   135A     -0.554875
     136A     -0.538632   137A     -0.538630   138A     -0.538196
     139A     -0.538190   140A     -0.529756   141A     -0.528235
     142A     -0.522906   143A     -0.522899   144A     -0.500540
     145A     -0.495623   146A     -0.493271   147A     -0.487860
     148A     -0.485106   149A     -0.481793   150A     -0.481785
     151A     -0.470381   152A     -0.470363   153A     -0.451047
     154A     -0.450969   155A     -0.439099   156A     -0.439090
     157A     -0.404750   158A     -0.404726   159A     -0.403398
     160A     -0.375455   161A     -0.375452   162A     -0.349142
     163A     -0.337586   164A     -0.336620   165A     -0.336562
     166A     -0.311102   167A     -0.298141   168A     -0.284354
     169A     -0.284300   170A     -0.224938   171A     -0.224872

  @DF-RHF Final Energy: -2055.89327396802128

   => Energetics <=

    Nuclear Repulsion Energy =           6452.5568002797772351
    One-Electron Energy =              -15636.4716831827081478
    Two-Electron Energy =                7128.0216089349096364
    Total Energy =                      -2055.8932739680212762
 Dipole X            :          0.0000293            0.0000419            0.0000712
 Dipole Y            :          0.0000542           -0.0000426            0.0000117
 Dipole Z            :       -298.6329871          298.6351171            0.0021300
 Magnitude           :                                                    0.0021312

    SAPT Results
  --------------------------------------------------------------------------------------------------------
    Electrostatics                  7.54747944 [mEh]       4.73611485 [kcal/mol]      19.81590455 [kJ/mol]
      Elst10,r                      7.54747944 [mEh]       4.73611485 [kcal/mol]      19.81590455 [kJ/mol]

    Exchange                       13.46641559 [mEh]       8.45030336 [kcal/mol]      35.35606925 [kJ/mol]
      Exch10                       13.46641559 [mEh]       8.45030336 [kcal/mol]      35.35606925 [kJ/mol]
      Exch10(S^2)                  13.45396667 [mEh]       8.44249155 [kcal/mol]      35.32338463 [kJ/mol]

    Induction                     -14.02950561 [mEh]      -8.80364768 [kcal/mol]     -36.83446191 [kJ/mol]
      Ind20,r                     -16.89009377 [mEh]     -10.59869386 [kcal/mol]     -44.34493509 [kJ/mol]
      Exch-Ind20,r                  3.66580330 [mEh]       2.30032630 [kcal/mol]       9.62456524 [kJ/mol]
      delta HF,r (2)               -0.80521514 [mEh]      -0.50528013 [kcal/mol]      -2.11409205 [kJ/mol]

    Dispersion                     -8.69804461 [mEh]      -5.45810540 [kcal/mol]     -22.83671298 [kJ/mol]
      Disp20                      -10.22802594 [mEh]      -6.41818317 [kcal/mol]     -26.85367840 [kJ/mol]
      Exch-Disp20                   1.52998133 [mEh]       0.96007778 [kcal/mol]       4.01696542 [kJ/mol]
      Disp20 (SS)                  -5.11401297 [mEh]      -3.20909159 [kcal/mol]     -13.42683920 [kJ/mol]
      Disp20 (OS)                  -5.11401297 [mEh]      -3.20909159 [kcal/mol]     -13.42683920 [kJ/mol]
      Exch-Disp20 (SS)              0.86581308 [mEh]       0.54330591 [kcal/mol]       2.27319192 [kJ/mol]
      Exch-Disp20 (OS)              0.66416825 [mEh]       0.41677187 [kcal/mol]       1.74377350 [kJ/mol]

  Total HF                          6.98438942 [mEh]       4.38277053 [kcal/mol]      18.33751189 [kJ/mol]
  Total SAPT0                      -1.71365519 [mEh]      -1.07533487 [kcal/mol]      -4.49920109 [kJ/mol]

  Special recipe for scaled SAPT0 (see Manual):
    Electrostatics sSAPT0           7.54747944 [mEh]       4.73611485 [kcal/mol]      19.81590455 [kJ/mol]
    Exchange sSAPT0                13.46641559 [mEh]       8.45030336 [kcal/mol]      35.35606925 [kJ/mol]
    Induction sSAPT0              -14.01932032 [mEh]      -8.79725632 [kcal/mol]     -36.80772044 [kJ/mol]
    Dispersion sSAPT0              -8.69379362 [mEh]      -5.45543786 [kcal/mol]     -22.82555200 [kJ/mol]
  Total sSAPT0                     -1.69921891 [mEh]      -1.06627597 [kcal/mol]      -4.46129864 [kJ/mol]
  --------------------------------------------------------------------------------------------------------

*** Psi4 exiting successfully. Buy a developer a beer!
