                               Psi4 1.9 release

  ==> Input File <==

--------------------------------------------------------------------------
memory 64 GB # how much memory is available ! Depends on the nodes/cores !

molecule dimer {
# monomer A
-1 1    # Charge and multiplicity
B -0.000046  0.000337 3.799994
F -1.153597  0.000048 4.615641
F  1.153661 -0.000581 4.615641
F -0.000019 -1.153637 2.984360
F -0.000019  1.153978 2.984360
--
# monomer B
0 1     # Charge and multiplicity
C   -3.66844126402057      7.80375217008252      0.00190004133558
C   -4.84759871934653      7.13124183134024     -0.00046653359696
C   -4.89495929917518      5.69633040353158     -0.00103944469517
C   -3.65374067877320      4.98073034095895      0.00662099703436
C   -2.40942512149445      7.11398103667468      0.00209438359570
C   -2.42547734410473      5.68112195090346     -0.00491050527438
C   -1.19474401643570      7.78614419430947      0.00356656413763
C   0.03795902893699      7.09942164575698      0.00139585983271
C   0.03033258741920      5.66948955970466     -0.00408752508301
C   -1.20098450790502      4.96927034791531      0.00488220885047
C   1.27795782581485      7.77285944319479      0.00277170839332
C   2.48535808472416      7.08769688523756      0.00049722048857
C   2.48612868491717      5.65477081024076     -0.00644052849921
C   1.25408291964399      4.95607811366431      0.00518741308898
C   3.75171459140595      7.76391215098033      0.00062407186893
C   4.92356605618520      7.07878077698995     -0.00143240883900
C   4.95560727132542      5.64344746336949     -0.00159282164606
C   3.70680153420475      4.94121020833308      0.00349873852374
H   -3.65852113775815      8.89082741913536      0.00358502958574
H   -1.18921332975660      8.87412108735996      0.00753844057883
H   1.28429423888630      8.86083343548850      0.00693053253426
H   3.75354208679975      8.85103527897216      0.00214659618464
H   5.86995870320703      7.61379483465560     -0.00235777588134
H   -5.78823170750226      7.67630221293400     -0.00202638095293
C   -6.09197395869619      4.99326001364347     -0.00291168518608
C   -6.12866148031747      3.58258016879823     -0.00171050815740
C   -3.66457974004527      3.56418217974434     -0.00463560277484
C   -4.89429820469869      2.86108077590057      0.00453338221034
C   -2.43733499489796      2.84761165708481      0.00719617576166
C   -1.20922785759670      3.54788693497833     -0.00648285103018
C   1.24714157216223      3.53468075142962     -0.00729145743546
C   0.01517603956900      2.83311183930540      0.00439272578912
C   2.46764517244071      2.82128997725533      0.00449278391269
C   3.70254947457969      3.52466015442405     -0.00899517692985
C   6.14498038638375      4.92757236613191     -0.00282626685777
C   6.16658835886151      3.51658447594213     -0.00065971342101
C   4.92460995845939      2.80840792535402      0.00587903281610
H   7.08990550964105      5.46688776622306     -0.00658814770723
H   -7.03104175110130      5.54268795285765     -0.00714490013730
C   -7.33969804112295      2.85841153457957     -0.00333767559888
C   -7.36488195805880      1.47032337158330     -0.00157213747140
C   -4.90350460894690      1.44442681216000     -0.00628840166334
C   -6.13225715261081      0.73993935705394      0.00600164231964
C   -3.67687480051673      0.72669714267312      0.00433931473643
C   -2.44565658606518      1.42964113326212     -0.00597039546461
C   -1.22360068130162      0.71532450163492      0.00545886906656
C   0.00763786931376      1.41738314923765      0.00392452278437
C   1.23121980774686      0.70211669058719     -0.01490206287210
C   2.46082110053113      1.40329203612573      0.00460244601878
C   3.68443025419614      0.68719842821222      0.00377365974158
C   4.91870890153864      1.39173456118907     -0.00862816189375
C   7.36980207796101      2.77948220318441     -0.00242013321349
C   7.38016266612146      1.39121750785509     -0.00087345036788
C   6.13979953912259      0.67411862320065      0.00545489144369
H   -8.27919079934664      3.40711804112415     -0.00763522772059
H   8.31511347147953      3.31811809662368     -0.00663070901292
C   -8.59175593758115      0.72483255304480     -0.00123170985383
C   -8.59902460370342     -0.63263980622873      0.00089141472904
C   -6.13981313911873     -0.67413663715361     -0.00609792660607
C   -7.38018411213749     -1.39126618958160      0.00131813493501
C   -4.91868448025621     -1.39175501803000      0.00624257154343
C   -3.68443829568458     -0.68723731573599     -0.00478966852105
C   -2.46081704024768     -1.40334517882457      0.00575341766833
C   -1.23116201232071     -0.70217386488055     -0.00636696112346
C   -0.00756962538737     -1.41741884941102      0.00108956317991
C   1.22364771588843     -0.71527537726392      0.01109518512883
C   2.44567064933149     -1.42964328900682     -0.00065482763106
C   3.67686670284649     -0.72670743155550     -0.00479541202602
C   6.13224884641929     -0.73997883984993     -0.00632338623858
C   4.90351914550401     -1.44445752054090      0.00751768830159
C   8.59901484869081      0.63260386666793     -0.00101133422380
C   8.59174548810050     -0.72485086719319      0.00072504603735
C   7.36486276438985     -1.47033266560598      0.00049486934466
H   -9.52830597181814      1.27684744919284     -0.00270163681798
H   9.54141097460619      1.17457248844457     -0.00206336648518
C   -7.36983790976868     -2.77954514593389      0.00312634335708
C   -4.92459910905015     -2.80843725734101     -0.00460528907921
C   -6.16662249566744     -3.51665219282533      0.00169655107992
C   -3.70251035970491     -3.52468154912026      0.00571878010666
C   -2.46764698511392     -2.82132596280400     -0.00632585824990
C   -0.01513347410770     -2.83314164539971     -0.00604426974092
C   -1.24712184122656     -3.53473217556300      0.00551968366725
C   1.20924506964357     -3.54791467864352      0.00805871345849
C   2.43733602215464     -2.84764173817541     -0.00608104485234
C   4.89430234377080     -2.86112296828604     -0.00526030478103
C   3.66461525504104     -3.56421984553201      0.00761911515957
C   6.12863901474565     -3.58258405771778      0.00096495711699
C   7.33967266469532     -2.85841330737039      0.00248018319869
H   -9.54144911125902     -1.17456346666430      0.00226083090216
H   9.52826186807155     -1.27691907390448      0.00197485379837
H   -8.31516504384864     -3.31814985321231      0.00729857188773
H   8.27915514249207     -3.40714078989363      0.00681973918158
C   -6.14499418870218     -4.92764727278338      0.00302254913999
C   -3.70678334799751     -4.94126171411716     -0.00679841894792
C   -4.95559005800169     -5.64349397349412      0.00116871569699
C   -2.48612132622665     -5.65478557440947      0.00614125209662
C   -1.25405833548005     -4.95612205000132     -0.00503435388927
C   1.20101257386816     -4.96928038819302     -0.00385322963129
C   -0.03033667441341     -5.66952030313900      0.00398997003238
C   3.65375010132847     -4.98074377541453     -0.00309522988330
C   2.42549269587528     -5.68117463552727      0.00628170066869
C   6.09196561781097     -4.99325796338655      0.00325918379042
C   4.89497644461045     -5.69634842095790      0.00202298796027
H   -7.08989238804069     -5.46699984223871      0.00742531082125
H   7.03105520920009     -5.54265853633254      0.00683896355417
C   -4.92354532219813     -7.07882109967734      0.00061394679214
C   -2.48534208823777     -7.08772807792913     -0.00189594564379
C   -3.75168589177895     -7.76394715763627     -0.00170126671874
C   -0.03794895698805     -7.09946487446944     -0.00168022049625
C   -1.27795610040136     -7.77290438466689     -0.00366491325785
C   2.40944432072629     -7.11402201200282     -0.00081701968533
C   1.19474993715296     -7.78618536556242     -0.00296931056689
C   4.84762105249800     -7.13126211057943      0.00168979497423
C   3.66847160587561     -7.80378799294376     -0.00065863938960
H   -5.86994035041618     -7.61383059804164      0.00215798365757
H   5.78824962538815     -7.67633218931421      0.00281691445618
H   -3.75352693944918     -8.85107156923607     -0.00353718114765
H   -1.28430440589466     -8.86087539249706     -0.00809229711623
H   1.18922157469537     -8.87416062058945     -0.00706194725726
H   3.65854661482387     -8.89086063405326     -0.00231318081200

    units angstrom      # Angstroms are the default
    no_reorient         # Geometry fixed, default
    symmetry c1         # C1 symmetry, default
}

set {
    scf_type DF         # Density fitting, faster than exact integrals
    freeze_core True    # Freeze core electrons
    basis jun-cc-pVDZ   # Jun-cc-pVDZ basis set, recommended for sSAPT0 in https://doi.org/10.1063/1.4867135
}

energy('ssapt0')        # Compute sSAPT0 energy, includes also SAPT0
--------------------------------------------------------------------------

  //              Dimer HF             //
    Molecular point group: c1
  Charge       = -1
  Multiplicity = 1
  Basis Set: JUN-CC-PVDZ
    Blend: JUN-CC-PVDZ
  Basis Set: (JUN-CC-PVDZ AUX)
    Blend: JUN-CC-PVDZ-JKFIT
  @DF-RHF Final Energy: -4073.11274432364917
    Total Energy =                      -4073.1127443236509862
 Dipole X            :          0.0013817           -0.0001188            0.0012629
 Dipole Y            :          0.0014751           -0.0002727            0.0012024
 Dipole Z            :         17.4580424          -22.6147260           -5.1566836
 Magnitude           :                                                    5.1566839
  //            Monomer A HF           //
    Molecular point group: c1
  Multiplicity = 1
  Basis Set: JUN-CC-PVDZ
    Blend: JUN-CC-PVDZ
  Basis Set: (JUN-CC-PVDZ AUX)
    Blend: JUN-CC-PVDZ-JKFIT
  @DF-RHF Final Energy:  -422.77343243023444
    Total Energy =                       -422.7734324302344362
  //            Monomer B HF           //
    Molecular point group: c1

    Geometry (in Angstrom), charge = 0, multiplicity = 1:

       Center              X                  Y                   Z               Mass
    ------------   -----------------  -----------------  -----------------  -----------------
      Gh(B)          -0.000050191042     0.000351518223     3.538263921177    11.009305360000
      Gh(F)          -1.153601191042     0.000062518223     4.353910921177    18.998403162730
      Gh(F)           1.153656808958    -0.000566481777     4.353910921177    18.998403162730
      Gh(F)          -0.000023191042    -1.153622481777     2.722629921177    18.998403162730
      Gh(F)          -0.000023191042     1.153992518223     2.722629921177    18.998403162730
         C           -3.668445455062     7.803766688305    -0.259830037488    12.000000000000
         C           -4.847602910388     7.131256349563    -0.262196612420    12.000000000000
         C           -4.894963490217     5.696344921754    -0.262769523519    12.000000000000
         C           -3.653744869815     4.980744859182    -0.255109081789    12.000000000000
         C           -2.409429312536     7.113995554897    -0.259635695228    12.000000000000
         C           -2.425481535146     5.681136469126    -0.266640584098    12.000000000000
         C           -1.194748207477     7.786158712532    -0.258163514686    12.000000000000
         C            0.037954837895     7.099436163980    -0.260334218991    12.000000000000
         C            0.030328396378     5.669504077927    -0.265817603906    12.000000000000
         C           -1.200988698947     4.969284866138    -0.256847869973    12.000000000000
         C            1.277953634773     7.772873961417    -0.258958370430    12.000000000000
         C            2.485353893683     7.087711403460    -0.261232858335    12.000000000000
         C            2.486124493876     5.654785328463    -0.268170607323    12.000000000000
         C            1.254078728602     4.956092631887    -0.256542665734    12.000000000000
         C            3.751710400364     7.763926669203    -0.261106006954    12.000000000000
         C            4.923561865144     7.078795295213    -0.263162487662    12.000000000000
         C            4.955603080284     5.643461981592    -0.263322900469    12.000000000000
         C            3.706797343163     4.941224726556    -0.258231340300    12.000000000000
         H           -3.658525328800     8.890841937358    -0.258145049238     1.007825032230
         H           -1.189217520798     8.874135605583    -0.254191638245     1.007825032230
         H            1.284290047845     8.860847953711    -0.254799546289     1.007825032230
         H            3.753537895758     8.851049797195    -0.259583482639     1.007825032230
         H            5.869954512165     7.613809352878    -0.264087854705     1.007825032230
         H           -5.788235898544     7.676316731157    -0.263756459776     1.007825032230
         C           -6.091978149738     4.993274531866    -0.264641764009    12.000000000000
         C           -6.128665671359     3.582594687021    -0.263440586981    12.000000000000
         C           -3.664583931087     3.564196697967    -0.266365681598    12.000000000000
         C           -4.894302395740     2.861095294123    -0.257196696613    12.000000000000
         C           -2.437339185940     2.847626175307    -0.254533903062    12.000000000000
         C           -1.209232048638     3.547901453201    -0.268212929854    12.000000000000
         C            1.247137381121     3.534695269652    -0.269021536259    12.000000000000
         C            0.015171848527     2.833126357528    -0.257337353034    12.000000000000
         C            2.467640981399     2.821304495478    -0.257237294911    12.000000000000
         C            3.702545283538     3.524674672647    -0.270725255753    12.000000000000
         C            6.144976195342     4.927586884354    -0.264556345681    12.000000000000
         C            6.166584167820     3.516598994165    -0.262389792244    12.000000000000
         C            4.924605767418     2.808422443577    -0.255851046007    12.000000000000
         H            7.089901318599     5.466902284446    -0.268318226531     1.007825032230
         H           -7.031045942143     5.542702471080    -0.268874978961     1.007825032230
         C           -7.339702232165     2.858426052802    -0.265067754422    12.000000000000
         C           -7.364886149100     1.470337889806    -0.263302216295    12.000000000000
         C           -4.903508799989     1.444441330383    -0.268018480487    12.000000000000
         C           -6.132261343652     0.739953875277    -0.255728436504    12.000000000000
         C           -3.676878991558     0.726711660896    -0.257390764087    12.000000000000
         C           -2.445660777107     1.429655651485    -0.267700474288    12.000000000000
         C           -1.223604872343     0.715339019858    -0.256271209757    12.000000000000
         C            0.007633678272     1.417397667460    -0.257805556039    12.000000000000
         C            1.231215616705     0.702131208810    -0.276632141695    12.000000000000
         C            2.460816909489     1.403306554348    -0.257127632805    12.000000000000
         C            3.684426063155     0.687212946435    -0.257956419082    12.000000000000
         C            4.918704710497     1.391749079412    -0.270358240717    12.000000000000
         C            7.369797886919     2.779496721407    -0.264150212037    12.000000000000
         C            7.380158475080     1.391232026078    -0.262603529191    12.000000000000
         C            6.139795348081     0.674133141423    -0.256275187380    12.000000000000
         H           -8.279194990388     3.407132559347    -0.269365306544     1.007825032230
         H            8.315109280438     3.318132614846    -0.268360787836     1.007825032230
         C           -8.591760128623     0.724847071267    -0.262961788677    12.000000000000
         C           -8.599028794745    -0.632625288006    -0.260838664094    12.000000000000
         C           -6.139817330160    -0.674122118931    -0.267828005429    12.000000000000
         C           -7.380188303179    -1.391251671359    -0.260411943888    12.000000000000
         C           -4.918688671298    -1.391740499807    -0.255487507280    12.000000000000
         C           -3.684442486726    -0.687222797513    -0.266519747344    12.000000000000
         C           -2.460821231289    -1.403330660602    -0.255976661155    12.000000000000
         C           -1.231166203362    -0.702159346658    -0.268097039947    12.000000000000
         C           -0.007573816429    -1.417404331188    -0.260640515643    12.000000000000
         C            1.223643524847    -0.715260859041    -0.250634893695    12.000000000000
         C            2.445666458290    -1.429628770784    -0.262384906454    12.000000000000
         C            3.676862511805    -0.726692913333    -0.266525490849    12.000000000000
         C            6.132244655378    -0.739964321627    -0.268053465062    12.000000000000
         C            4.903514954462    -1.444443002318    -0.254212390522    12.000000000000
         C            8.599010657649     0.632618384891    -0.262741413047    12.000000000000
         C            8.591741297059    -0.724836348971    -0.261005032786    12.000000000000
         C            7.364858573348    -1.470318147383    -0.261235209479    12.000000000000
         H           -9.528310162860     1.276861967415    -0.264431715641     1.007825032230
         H            9.541406783565     1.174587006667    -0.263793445309     1.007825032230
         C           -7.369842100810    -2.779530627711    -0.258603735466    12.000000000000
         C           -4.924603300092    -2.808422739118    -0.266335367903    12.000000000000
         C           -6.166626686709    -3.516637674603    -0.260033527743    12.000000000000
         C           -3.702514550747    -3.524667030898    -0.256011298717    12.000000000000
         C           -2.467651176156    -2.821311444581    -0.268055937073    12.000000000000
         C           -0.015137665149    -2.833127127177    -0.267774348564    12.000000000000
         C           -1.247126032268    -3.534717657340    -0.256210395156    12.000000000000
         C            1.209240878602    -3.547900160421    -0.253671365365    12.000000000000
         C            2.437331831113    -2.847627219953    -0.267811123676    12.000000000000
         C            4.894298152729    -2.861108450063    -0.266990383604    12.000000000000
         C            3.664611063999    -3.564205327309    -0.254110963664    12.000000000000
         C            6.128634823704    -3.582569539495    -0.260765121706    12.000000000000
         C            7.339668473654    -2.858398789148    -0.259249895625    12.000000000000
         H           -9.541453302301    -1.174548948442    -0.259469247921     1.007825032230
         H            9.528257677030    -1.276904555682    -0.259755225025     1.007825032230
         H           -8.315169234890    -3.318135334990    -0.254431506936     1.007825032230
         H            8.279150951450    -3.407126271671    -0.254910339642     1.007825032230
         C           -6.144998379744    -4.927632754561    -0.258707529683    12.000000000000
         C           -3.706787539039    -4.941247195895    -0.268528497771    12.000000000000
         C           -4.955594249043    -5.643479455272    -0.260561363126    12.000000000000
         C           -2.486125517268    -5.654771056187    -0.255588826727    12.000000000000
         C           -1.254062526522    -4.956107531779    -0.266764432713    12.000000000000
         C            1.201008382827    -4.969265869970    -0.265583308455    12.000000000000
         C           -0.030340865455    -5.669505784916    -0.257740108791    12.000000000000
         C            3.653745910287    -4.980729257192    -0.264825308707    12.000000000000
         C            2.425488504834    -5.681160117305    -0.255448378155    12.000000000000
         C            6.091961426769    -4.993243445164    -0.258470895033    12.000000000000
         C            4.894972253569    -5.696333902735    -0.259707090863    12.000000000000
         H           -7.089896579082    -5.466985324016    -0.254304768002     1.007825032230
         H            7.031051018158    -5.542644018110    -0.254891115269     1.007825032230
         C           -4.923549513240    -7.078806581455    -0.261116132031    12.000000000000
         C           -2.485346279279    -7.087713559707    -0.263626024467    12.000000000000
         C           -3.751690082821    -7.763932639414    -0.263431345542    12.000000000000
         C           -0.037953148030    -7.099450356247    -0.263410299320    12.000000000000
         C           -1.277960291443    -7.772889866444    -0.265394992081    12.000000000000
         C            2.409440129685    -7.114007493780    -0.262547098509    12.000000000000
         C            1.194745746111    -7.786170847340    -0.264699389390    12.000000000000
         C            4.847616861456    -7.131247592357    -0.260040283849    12.000000000000
         C            3.668467414834    -7.803773474721    -0.262388718213    12.000000000000
         H           -5.869944541458    -7.613816079819    -0.259572095166     1.007825032230
         H            5.788245434347    -7.676317671092    -0.258913164367     1.007825032230
         H           -3.753531130491    -8.851057051013    -0.265267259971     1.007825032230
         H           -1.284308596936    -8.860860874274    -0.269822375940     1.007825032230
         H            1.189217383654    -8.874146102367    -0.268792026081     1.007825032230
         H            3.658542423782    -8.890846115831    -0.264043259635     1.007825032230

  Charge       = 0
  Multiplicity = 1
  Basis Set: JUN-CC-PVDZ
    Blend: JUN-CC-PVDZ
  Basis Set: (JUN-CC-PVDZ AUX)
    Blend: JUN-CC-PVDZ-JKFIT

    Orbital Energies [Eh]
    ---------------------

    Doubly Occupied:

       1A    -11.264113     2A    -11.263790     3A    -11.263723
       4A    -11.263383     5A    -11.263323     6A    -11.263296
       7A    -11.263184     8A    -11.263150     9A    -11.263128
      10A    -11.262921    11A    -11.262796    12A    -11.262786
      13A    -11.262296    14A    -11.262295    15A    -11.262268
      16A    -11.262246    17A    -11.262148    18A    -11.262137
      19A    -11.262099    20A    -11.262058    21A    -11.262038
      22A    -11.261949    23A    -11.261922    24A    -11.261782
      25A    -11.261775    26A    -11.261755    27A    -11.261736
      28A    -11.261708    29A    -11.261690    30A    -11.261600
      31A    -11.261582    32A    -11.261578    33A    -11.261574
      34A    -11.261555    35A    -11.261547    36A    -11.261531
      37A    -11.261351    38A    -11.261342    39A    -11.261335
      40A    -11.261330    41A    -11.261323    42A    -11.261320
      43A    -11.261307    44A    -11.261290    45A    -11.261287
      46A    -11.261262    47A    -11.261258    48A    -11.261252
      49A    -11.261086    50A    -11.261060    51A    -11.261051
      52A    -11.260998    53A    -11.260965    54A    -11.260919
      55A    -11.259936    56A    -11.259923    57A    -11.259918
      58A    -11.259892    59A    -11.259886    60A    -11.259872
      61A    -11.259306    62A    -11.259280    63A    -11.259278
      64A    -11.259225    65A    -11.259223    66A    -11.259193
      67A    -11.258939    68A    -11.258922    69A    -11.258916
      70A    -11.258891    71A    -11.258886    72A    -11.258875
      73A    -11.254542    74A    -11.254541    75A    -11.254536
      76A    -11.254535    77A    -11.254532    78A    -11.254531
      79A    -11.253674    80A    -11.253671    81A    -11.253668
      82A    -11.253666    83A    -11.253664    84A    -11.253662
      85A    -11.253590    86A    -11.253586    87A    -11.253583
      88A    -11.253581    89A    -11.253579    90A    -11.253577
      91A    -11.253070    92A    -11.253068    93A    -11.253063
      94A    -11.253063    95A    -11.253060    96A    -11.253059
      97A     -1.253959    98A     -1.239020    99A     -1.239013
     100A     -1.220481   101A     -1.220480   102A     -1.215449
     103A     -1.201059   104A     -1.195625   105A     -1.188156
     106A     -1.188156   107A     -1.173784   108A     -1.173780
     109A     -1.155648   110A     -1.155643   111A     -1.152725
     112A     -1.144743   113A     -1.144738   114A     -1.128587
     115A     -1.114732   116A     -1.113181   117A     -1.112491
     118A     -1.112481   119A     -1.111637   120A     -1.088448
     121A     -1.088430   122A     -1.076979   123A     -1.076978
     124A     -1.067633   125A     -1.067604   126A     -1.064984
     127A     -1.046817   128A     -1.046812   129A     -1.040500
     130A     -1.038753   131A     -1.038752   132A     -1.025258
     133A     -1.021394   134A     -1.021348   135A     -1.007199
     136A     -1.006830   137A     -1.003813   138A     -1.000504
     139A     -1.000459   140A     -0.991093   141A     -0.971005
     142A     -0.970956   143A     -0.955900   144A     -0.955845
     145A     -0.905607   146A     -0.905567   147A     -0.905562
     148A     -0.905527   149A     -0.904344   150A     -0.892379
     151A     -0.892328   152A     -0.890381   153A     -0.890317
     154A     -0.889475   155A     -0.872234   156A     -0.869073
     157A     -0.851557   158A     -0.847881   159A     -0.847862
     160A     -0.845612   161A     -0.843036   162A     -0.834584
     163A     -0.834569   164A     -0.828132   165A     -0.828130
     166A     -0.784566   167A     -0.784554   168A     -0.783676
     169A     -0.783647   170A     -0.782302   171A     -0.782286
     172A     -0.782048   173A     -0.767010   174A     -0.760806
     175A     -0.750587   176A     -0.733501   177A     -0.727086
     178A     -0.727076   179A     -0.725101   180A     -0.724557
     181A     -0.724541   182A     -0.718500   183A     -0.713785
     184A     -0.713778   185A     -0.699589   186A     -0.699582
     187A     -0.686132   188A     -0.685972   189A     -0.685971
     190A     -0.682192   191A     -0.682179   192A     -0.678782
     193A     -0.653637   194A     -0.650884   195A     -0.650856
     196A     -0.649824   197A     -0.649806   198A     -0.649581
     199A     -0.640933   200A     -0.640915   201A     -0.640104
     202A     -0.639178   203A     -0.636030   204A     -0.636007
     205A     -0.629158   206A     -0.617731   207A     -0.615318
     208A     -0.615300   209A     -0.608816   210A     -0.608809
     211A     -0.599156   212A     -0.599083   213A     -0.598755
     214A     -0.598626   215A     -0.598595   216A     -0.598041
     217A     -0.595083   218A     -0.595070   219A     -0.594736
     220A     -0.594243   221A     -0.591966   222A     -0.591963
     223A     -0.587401   224A     -0.577809   225A     -0.577799
     226A     -0.575671   227A     -0.575666   228A     -0.573396
     229A     -0.569578   230A     -0.568145   231A     -0.568126
     232A     -0.566767   233A     -0.566754   234A     -0.560926
     235A     -0.558725   236A     -0.558711   237A     -0.558440
     238A     -0.554381   239A     -0.550558   240A     -0.547487
     241A     -0.544269   242A     -0.535050   243A     -0.534968
     244A     -0.533546   245A     -0.533525   246A     -0.528089
     247A     -0.528075   248A     -0.527799   249A     -0.517169
     250A     -0.517135   251A     -0.515356   252A     -0.515350
     253A     -0.509656   254A     -0.509638   255A     -0.498041
     256A     -0.496461   257A     -0.496433   258A     -0.493795
     259A     -0.493780   260A     -0.489445   261A     -0.481464
     262A     -0.477424   263A     -0.477417   264A     -0.474007
     265A     -0.469452   266A     -0.466537   267A     -0.466531
     268A     -0.458804   269A     -0.446693   270A     -0.446631
     271A     -0.441038   272A     -0.440770   273A     -0.440751
     274A     -0.434690   275A     -0.433914   276A     -0.407380
     277A     -0.407350   278A     -0.386404   279A     -0.386345
     280A     -0.385737   281A     -0.385732   282A     -0.383746
     283A     -0.354312   284A     -0.354304   285A     -0.350662
     286A     -0.338100   287A     -0.335598   288A     -0.335520
     289A     -0.332714   290A     -0.332708   291A     -0.307053
     292A     -0.301933   293A     -0.301877   294A     -0.300851
     295A     -0.286174   296A     -0.256479   297A     -0.253494
     298A     -0.253437   299A     -0.204264   300A     -0.204175

  @DF-RHF Final Energy: -3650.33976388860219

   => Energetics <=

    Nuclear Repulsion Energy =          15611.4211649754324753
    One-Electron Energy =              -36072.1375107879503048
    Two-Electron Energy =               16810.3765819239160919
    Total Energy =                      -3650.3397638886017376
 Dipole X            :         -0.0000545            0.0001983            0.0001439
 Dipole Y            :          0.0012726           -0.0013163           -0.0000437
 Dipole Z            :        296.7552852         -296.7555088           -0.0002235
 Magnitude           :                                                    0.0002694

    SAPT Results
  --------------------------------------------------------------------------------------------------------
    Electrostatics                  8.65533531 [mEh]       5.43130491 [kcal/mol]      22.72457973 [kJ/mol]
      Elst10,r                      8.65533531 [mEh]       5.43130491 [kcal/mol]      22.72457973 [kJ/mol]

    Exchange                        9.42137355 [mEh]       5.91200116 [kcal/mol]      24.73581286 [kJ/mol]
      Exch10                        9.42137355 [mEh]       5.91200116 [kcal/mol]      24.73581286 [kJ/mol]
      Exch10(S^2)                   9.40852900 [mEh]       5.90394108 [kcal/mol]      24.70208948 [kJ/mol]

    Induction                     -17.62471368 [mEh]     -11.05967481 [kcal/mol]     -46.27367939 [kJ/mol]
      Ind20,r                     -19.72256476 [mEh]     -12.37609623 [kcal/mol]     -51.78158664 [kJ/mol]
      Exch-Ind20,r                  2.89810109 [mEh]       1.81858589 [kcal/mol]       7.60896337 [kJ/mol]
      delta HF,r (2)               -0.80025001 [mEh]      -0.50216447 [kcal/mol]      -2.10105612 [kJ/mol]

    Dispersion                     -9.53424685 [mEh]      -5.98283022 [kcal/mol]     -25.03216165 [kJ/mol]
      Disp20                      -10.82480584 [mEh]      -6.79266821 [kcal/mol]     -28.42052381 [kJ/mol]
      Exch-Disp20                   1.29055899 [mEh]       0.80983799 [kcal/mol]       3.38836216 [kJ/mol]
      Disp20 (SS)                  -5.41240292 [mEh]      -3.39633411 [kcal/mol]     -14.21026190 [kJ/mol]
      Disp20 (OS)                  -5.41240292 [mEh]      -3.39633411 [kcal/mol]     -14.21026190 [kJ/mol]
      Exch-Disp20 (SS)              0.75237887 [mEh]       0.47212487 [kcal/mol]       1.97537045 [kJ/mol]
      Exch-Disp20 (OS)              0.53818012 [mEh]       0.33771312 [kcal/mol]       1.41299171 [kJ/mol]

  Total HF                          0.45199519 [mEh]       0.28363126 [kcal/mol]       1.18671320 [kJ/mol]
  Total SAPT0                      -9.08225166 [mEh]      -5.69919896 [kcal/mol]     -23.84544844 [kJ/mol]

  Special recipe for scaled SAPT0 (see Manual):
    Electrostatics sSAPT0           8.65533531 [mEh]       5.43130491 [kcal/mol]      22.72457973 [kJ/mol]
    Exchange sSAPT0                 9.42137355 [mEh]       5.91200116 [kcal/mol]      24.73581286 [kJ/mol]
    Induction sSAPT0              -17.61282797 [mEh]     -11.05221641 [kcal/mol]     -46.24247347 [kJ/mol]
    Dispersion sSAPT0              -9.52895400 [mEh]      -5.97950891 [kcal/mol]     -25.01826528 [kJ/mol]
  Total sSAPT0                     -9.06507311 [mEh]      -5.68841925 [kcal/mol]     -23.80034616 [kJ/mol]
  --------------------------------------------------------------------------------------------------------

*** Psi4 exiting successfully. Buy a developer a beer!
