                               Psi4 1.9 release

  ==> Input File <==

--------------------------------------------------------------------------
memory 64 GB # how much memory is available ! Depends on the nodes/cores !

molecule dimer {
# monomer A
+1 1    # Charge and multiplicity
C  0.680067 -0.008042 -6.415929
C -0.680504 -0.006014 -6.415545
N -1.085635 -0.005016 -5.097221
C  0.000108 -0.001740 -4.315820
C -2.477365  0.044390 -4.629242
N  1.085222 -0.005016 -5.097221
H  1.385146 -0.015870 -7.233368
H -1.385302 -0.006204 -7.233214
H -0.000009  0.000007 -3.234731
C  2.478117 -0.021908 -4.632123
H  2.490592  0.005437 -3.541870
H  2.967028 -0.935354 -4.979299
H  3.001428  0.853575 -5.023595
H -2.857359  1.066461 -4.709201
H -3.082679 -0.625694 -5.242306
H -2.518128 -0.282594 -3.589294
--
# monomer B
0 1     # Charge and multiplicity
C   -3.66844126402057      7.80375217008252      0.00190004133558
C   -4.84759871934653      7.13124183134024     -0.00046653359696
C   -4.89495929917518      5.69633040353158     -0.00103944469517
C   -3.65374067877320      4.98073034095895      0.00662099703436
C   -2.40942512149445      7.11398103667468      0.00209438359570
C   -2.42547734410473      5.68112195090346     -0.00491050527438
C   -1.19474401643570      7.78614419430947      0.00356656413763
C   0.03795902893699      7.09942164575698      0.00139585983271
C   0.03033258741920      5.66948955970466     -0.00408752508301
C   -1.20098450790502      4.96927034791531      0.00488220885047
C   1.27795782581485      7.77285944319479      0.00277170839332
C   2.48535808472416      7.08769688523756      0.00049722048857
C   2.48612868491717      5.65477081024076     -0.00644052849921
C   1.25408291964399      4.95607811366431      0.00518741308898
C   3.75171459140595      7.76391215098033      0.00062407186893
C   4.92356605618520      7.07878077698995     -0.00143240883900
C   4.95560727132542      5.64344746336949     -0.00159282164606
C   3.70680153420475      4.94121020833308      0.00349873852374
H   -3.65852113775815      8.89082741913536      0.00358502958574
H   -1.18921332975660      8.87412108735996      0.00753844057883
H   1.28429423888630      8.86083343548850      0.00693053253426
H   3.75354208679975      8.85103527897216      0.00214659618464
H   5.86995870320703      7.61379483465560     -0.00235777588134
H   -5.78823170750226      7.67630221293400     -0.00202638095293
C   -6.09197395869619      4.99326001364347     -0.00291168518608
C   -6.12866148031747      3.58258016879823     -0.00171050815740
C   -3.66457974004527      3.56418217974434     -0.00463560277484
C   -4.89429820469869      2.86108077590057      0.00453338221034
C   -2.43733499489796      2.84761165708481      0.00719617576166
C   -1.20922785759670      3.54788693497833     -0.00648285103018
C   1.24714157216223      3.53468075142962     -0.00729145743546
C   0.01517603956900      2.83311183930540      0.00439272578912
C   2.46764517244071      2.82128997725533      0.00449278391269
C   3.70254947457969      3.52466015442405     -0.00899517692985
C   6.14498038638375      4.92757236613191     -0.00282626685777
C   6.16658835886151      3.51658447594213     -0.00065971342101
C   4.92460995845939      2.80840792535402      0.00587903281610
H   7.08990550964105      5.46688776622306     -0.00658814770723
H   -7.03104175110130      5.54268795285765     -0.00714490013730
C   -7.33969804112295      2.85841153457957     -0.00333767559888
C   -7.36488195805880      1.47032337158330     -0.00157213747140
C   -4.90350460894690      1.44442681216000     -0.00628840166334
C   -6.13225715261081      0.73993935705394      0.00600164231964
C   -3.67687480051673      0.72669714267312      0.00433931473643
C   -2.44565658606518      1.42964113326212     -0.00597039546461
C   -1.22360068130162      0.71532450163492      0.00545886906656
C   0.00763786931376      1.41738314923765      0.00392452278437
C   1.23121980774686      0.70211669058719     -0.01490206287210
C   2.46082110053113      1.40329203612573      0.00460244601878
C   3.68443025419614      0.68719842821222      0.00377365974158
C   4.91870890153864      1.39173456118907     -0.00862816189375
C   7.36980207796101      2.77948220318441     -0.00242013321349
C   7.38016266612146      1.39121750785509     -0.00087345036788
C   6.13979953912259      0.67411862320065      0.00545489144369
H   -8.27919079934664      3.40711804112415     -0.00763522772059
H   8.31511347147953      3.31811809662368     -0.00663070901292
C   -8.59175593758115      0.72483255304480     -0.00123170985383
C   -8.59902460370342     -0.63263980622873      0.00089141472904
C   -6.13981313911873     -0.67413663715361     -0.00609792660607
C   -7.38018411213749     -1.39126618958160      0.00131813493501
C   -4.91868448025621     -1.39175501803000      0.00624257154343
C   -3.68443829568458     -0.68723731573599     -0.00478966852105
C   -2.46081704024768     -1.40334517882457      0.00575341766833
C   -1.23116201232071     -0.70217386488055     -0.00636696112346
C   -0.00756962538737     -1.41741884941102      0.00108956317991
C   1.22364771588843     -0.71527537726392      0.01109518512883
C   2.44567064933149     -1.42964328900682     -0.00065482763106
C   3.67686670284649     -0.72670743155550     -0.00479541202602
C   6.13224884641929     -0.73997883984993     -0.00632338623858
C   4.90351914550401     -1.44445752054090      0.00751768830159
C   8.59901484869081      0.63260386666793     -0.00101133422380
C   8.59174548810050     -0.72485086719319      0.00072504603735
C   7.36486276438985     -1.47033266560598      0.00049486934466
H   -9.52830597181814      1.27684744919284     -0.00270163681798
H   9.54141097460619      1.17457248844457     -0.00206336648518
C   -7.36983790976868     -2.77954514593389      0.00312634335708
C   -4.92459910905015     -2.80843725734101     -0.00460528907921
C   -6.16662249566744     -3.51665219282533      0.00169655107992
C   -3.70251035970491     -3.52468154912026      0.00571878010666
C   -2.46764698511392     -2.82132596280400     -0.00632585824990
C   -0.01513347410770     -2.83314164539971     -0.00604426974092
C   -1.24712184122656     -3.53473217556300      0.00551968366725
C   1.20924506964357     -3.54791467864352      0.00805871345849
C   2.43733602215464     -2.84764173817541     -0.00608104485234
C   4.89430234377080     -2.86112296828604     -0.00526030478103
C   3.66461525504104     -3.56421984553201      0.00761911515957
C   6.12863901474565     -3.58258405771778      0.00096495711699
C   7.33967266469532     -2.85841330737039      0.00248018319869
H   -9.54144911125902     -1.17456346666430      0.00226083090216
H   9.52826186807155     -1.27691907390448      0.00197485379837
H   -8.31516504384864     -3.31814985321231      0.00729857188773
H   8.27915514249207     -3.40714078989363      0.00681973918158
C   -6.14499418870218     -4.92764727278338      0.00302254913999
C   -3.70678334799751     -4.94126171411716     -0.00679841894792
C   -4.95559005800169     -5.64349397349412      0.00116871569699
C   -2.48612132622665     -5.65478557440947      0.00614125209662
C   -1.25405833548005     -4.95612205000132     -0.00503435388927
C   1.20101257386816     -4.96928038819302     -0.00385322963129
C   -0.03033667441341     -5.66952030313900      0.00398997003238
C   3.65375010132847     -4.98074377541453     -0.00309522988330
C   2.42549269587528     -5.68117463552727      0.00628170066869
C   6.09196561781097     -4.99325796338655      0.00325918379042
C   4.89497644461045     -5.69634842095790      0.00202298796027
H   -7.08989238804069     -5.46699984223871      0.00742531082125
H   7.03105520920009     -5.54265853633254      0.00683896355417
C   -4.92354532219813     -7.07882109967734      0.00061394679214
C   -2.48534208823777     -7.08772807792913     -0.00189594564379
C   -3.75168589177895     -7.76394715763627     -0.00170126671874
C   -0.03794895698805     -7.09946487446944     -0.00168022049625
C   -1.27795610040136     -7.77290438466689     -0.00366491325785
C   2.40944432072629     -7.11402201200282     -0.00081701968533
C   1.19474993715296     -7.78618536556242     -0.00296931056689
C   4.84762105249800     -7.13126211057943      0.00168979497423
C   3.66847160587561     -7.80378799294376     -0.00065863938960
H   -5.86994035041618     -7.61383059804164      0.00215798365757
H   5.78824962538815     -7.67633218931421      0.00281691445618
H   -3.75352693944918     -8.85107156923607     -0.00353718114765
H   -1.28430440589466     -8.86087539249706     -0.00809229711623
H   1.18922157469537     -8.87416062058945     -0.00706194725726
H   3.65854661482387     -8.89086063405326     -0.00231318081200

    units angstrom      # Angstroms are the default
    no_reorient         # Geometry fixed, default
    symmetry c1         # C1 symmetry, default
}

set {
    scf_type DF         # Density fitting, faster than exact integrals
    freeze_core True    # Freeze core electrons
    basis jun-cc-pVDZ   # Jun-cc-pVDZ basis set, recommended for sSAPT0 in https://doi.org/10.1063/1.4867135
}

energy('ssapt0')        # Compute sSAPT0 energy, includes also SAPT0
--------------------------------------------------------------------------

  //              Dimer HF             //
    Molecular point group: c1
  Charge       = 1
  Multiplicity = 1
  Basis Set: JUN-CC-PVDZ
    Blend: JUN-CC-PVDZ
  Basis Set: (JUN-CC-PVDZ AUX)
    Blend: JUN-CC-PVDZ-JKFIT
  @DF-RHF Final Energy: -3953.65806713289248
    Total Energy =                      -3953.6580671328920289
 Dipole X            :         -0.0027744            0.0004804           -0.0022939
 Dipole Y            :         -0.0508928            0.0561130            0.0052202
 Dipole Z            :         22.5767692          -29.6944628           -7.1176936
 Magnitude           :                                                    7.1176959
  //            Monomer A HF           //
    Molecular point group: c1
  Multiplicity = 1
  Basis Set: JUN-CC-PVDZ
    Blend: JUN-CC-PVDZ
  Basis Set: (JUN-CC-PVDZ AUX)
    Blend: JUN-CC-PVDZ-JKFIT
  @DF-RHF Final Energy:  -303.29777406197081
    Total Energy =                       -303.2977740619708129
  //            Monomer B HF           //
    Molecular point group: c1

    Geometry (in Angstrom), charge = 0, multiplicity = 1:

       Center              X                  Y                   Z               Mass
    ------------   -----------------  -----------------  -----------------  -----------------
      Gh(C)           0.680062820275    -0.008027535675    -6.019474944747    12.000000000000
      Gh(C)          -0.680508179725    -0.005999535675    -6.019090944747    12.000000000000
      Gh(N)          -1.085639179725    -0.005001535675    -4.700766944747    14.003074004430
      Gh(C)           0.000103820275    -0.001725535675    -3.919365944747    12.000000000000
      Gh(C)          -2.477369179725     0.044404464325    -4.232787944747    12.000000000000
      Gh(N)           1.085217820275    -0.005001535675    -4.700766944747    14.003074004430
      Gh(H)           1.385141820275    -0.015855535675    -6.836913944747     1.007825032230
      Gh(H)          -1.385306179725    -0.006189535675    -6.836759944747     1.007825032230
      Gh(H)          -0.000013179725     0.000021464325    -2.838276944747     1.007825032230
      Gh(C)           2.478112820275    -0.021893535675    -4.235668944747    12.000000000000
      Gh(H)           2.490587820275     0.005451464325    -3.145415944747     1.007825032230
      Gh(H)           2.967023820275    -0.935339535675    -4.582844944747     1.007825032230
      Gh(H)           3.001423820275     0.853589464325    -4.627140944747     1.007825032230
      Gh(H)          -2.857363179725     1.066475464325    -4.312746944747     1.007825032230
      Gh(H)          -3.082683179725    -0.625679535675    -4.845851944747     1.007825032230
      Gh(H)          -2.518132179725    -0.282579535675    -3.192839944747     1.007825032230
         C           -3.668445443746     7.803766634408     0.398354096588    12.000000000000
         C           -4.847602899072     7.131256295665     0.395987521656    12.000000000000
         C           -4.894963478901     5.696344867857     0.395414610558    12.000000000000
         C           -3.653744858499     4.980744805284     0.403075052287    12.000000000000
         C           -2.409429301220     7.113995501000     0.398548438848    12.000000000000
         C           -2.425481523830     5.681136415228     0.391543549978    12.000000000000
         C           -1.194748196161     7.786158658634     0.400020619390    12.000000000000
         C            0.037954849212     7.099436110082     0.397849915085    12.000000000000
         C            0.030328407694     5.669504024030     0.392366530170    12.000000000000
         C           -1.200988687630     4.969284812240     0.401336264103    12.000000000000
         C            1.277953646089     7.772873907520     0.399225763646    12.000000000000
         C            2.485353904999     7.087711349563     0.396951275741    12.000000000000
         C            2.486124505192     5.654785274566     0.390013526753    12.000000000000
         C            1.254078739919     4.956092577989     0.401641468342    12.000000000000
         C            3.751710411681     7.763926615305     0.397078127122    12.000000000000
         C            4.923561876460     7.078795241315     0.395021646414    12.000000000000
         C            4.955603091600     5.643461927694     0.394861233607    12.000000000000
         C            3.706797354479     4.941224672658     0.399952793776    12.000000000000
         H           -3.658525317484     8.890841883460     0.400039084838     1.007825032230
         H           -1.189217509482     8.874135551685     0.403992495832     1.007825032230
         H            1.284290059161     8.860847899813     0.403384587787     1.007825032230
         H            3.753537907074     8.851049743297     0.398600651437     1.007825032230
         H            5.869954523482     7.613809298981     0.394096279371     1.007825032230
         H           -5.788235887228     7.676316677259     0.394427674300     1.007825032230
         C           -6.091978138422     4.993274477968     0.393542370067    12.000000000000
         C           -6.128665660043     3.582594633123     0.394743547095    12.000000000000
         C           -3.664583919771     3.564196644069     0.391818452478    12.000000000000
         C           -4.894302384424     2.861095240226     0.400987437463    12.000000000000
         C           -2.437339174623     2.847626121410     0.403650231014    12.000000000000
         C           -1.209232037322     3.547901399303     0.389971204223    12.000000000000
         C            1.247137392437     3.534695215755     0.389162597817    12.000000000000
         C            0.015171859844     2.833126303630     0.400846781042    12.000000000000
         C            2.467640992715     2.821304441580     0.400946839165    12.000000000000
         C            3.702545294854     3.524674618749     0.387458878323    12.000000000000
         C            6.144976206658     4.927586830457     0.393627788395    12.000000000000
         C            6.166584179136     3.516598940267     0.395794341832    12.000000000000
         C            4.924605778734     2.808422389679     0.402333088069    12.000000000000
         H            7.089901329916     5.466902230548     0.389865907545     1.007825032230
         H           -7.031045930827     5.542702417183     0.389309155115     1.007825032230
         C           -7.339702220848     2.858425998905     0.393116379654    12.000000000000
         C           -7.364886137784     1.470337835908     0.394881917781    12.000000000000
         C           -4.903508788672     1.444441276485     0.390165653589    12.000000000000
         C           -6.132261332336     0.739953821379     0.402455697572    12.000000000000
         C           -3.676878980242     0.726711606998     0.400793369989    12.000000000000
         C           -2.445660765791     1.429655597587     0.390483659788    12.000000000000
         C           -1.223604861027     0.715338965960     0.401912924319    12.000000000000
         C            0.007633689588     1.417397613563     0.400378578037    12.000000000000
         C            1.231215628021     0.702131154912     0.381551992381    12.000000000000
         C            2.460816920806     1.403306500451     0.401056501271    12.000000000000
         C            3.684426074471     0.687212892537     0.400227714994    12.000000000000
         C            4.918704721813     1.391749025514     0.387825893359    12.000000000000
         C            7.369797898236     2.779496667509     0.394033922039    12.000000000000
         C            7.380158486396     1.391231972180     0.395580604885    12.000000000000
         C            6.139795359397     0.674133087526     0.401908946696    12.000000000000
         H           -8.279194979072     3.407132505449     0.388818827532     1.007825032230
         H            8.315109291754     3.318132560949     0.389823346240     1.007825032230
         C           -8.591760117307     0.724847017370     0.395222345399    12.000000000000
         C           -8.599028783429    -0.632625341904     0.397345469982    12.000000000000
         C           -6.139817318844    -0.674122172829     0.390356128647    12.000000000000
         C           -7.380188291863    -1.391251725257     0.397772190188    12.000000000000
         C           -4.918688659982    -1.391740553705     0.402696626796    12.000000000000
         C           -3.684442475410    -0.687222851411     0.391664386732    12.000000000000
         C           -2.460821219973    -1.403330714500     0.402207472921    12.000000000000
         C           -1.231166192046    -0.702159400556     0.390087094129    12.000000000000
         C           -0.007573805113    -1.417404385086     0.397543618433    12.000000000000
         C            1.223643536163    -0.715260912939     0.407549240382    12.000000000000
         C            2.445666469606    -1.429628824682     0.395799227622    12.000000000000
         C            3.676862523121    -0.726692967231     0.391658643227    12.000000000000
         C            6.132244666694    -0.739964375525     0.390130669014    12.000000000000
         C            4.903514965779    -1.444443056216     0.403971743554    12.000000000000
         C            8.599010668965     0.632618330993     0.395442721029    12.000000000000
         C            8.591741308375    -0.724836402868     0.397179101290    12.000000000000
         C            7.364858584664    -1.470318201281     0.396948924597    12.000000000000
         H           -9.528310151544     1.276861913518     0.393752418435     1.007825032230
         H            9.541406794881     1.174586952770     0.394390688768     1.007825032230
         C           -7.369842089494    -2.779530681609     0.399580398610    12.000000000000
         C           -4.924603288776    -2.808422793016     0.391848766173    12.000000000000
         C           -6.166626675393    -3.516637728500     0.398150606333    12.000000000000
         C           -3.702514539430    -3.524667084795     0.402172835359    12.000000000000
         C           -2.467651164839    -2.821311498479     0.390128197003    12.000000000000
         C           -0.015137653833    -2.833127181075     0.390409785512    12.000000000000
         C           -1.247126020952    -3.534717711238     0.401973738920    12.000000000000
         C            1.209240889918    -3.547900214319     0.404512768711    12.000000000000
         C            2.437331842429    -2.847627273850     0.390373010400    12.000000000000
         C            4.894298164045    -2.861108503961     0.391193750472    12.000000000000
         C            3.664611075316    -3.564205381207     0.404073170412    12.000000000000
         C            6.128634835020    -3.582569593393     0.397419012370    12.000000000000
         C            7.339668484970    -2.858398843045     0.398934238451    12.000000000000
         H           -9.541453290984    -1.174549002339     0.398714886155     1.007825032230
         H            9.528257688346    -1.276904609579     0.398428909051     1.007825032230
         H           -8.315169223574    -3.318135388887     0.403752627140     1.007825032230
         H            8.279150962767    -3.407126325569     0.403273794434     1.007825032230
         C           -6.144998368428    -4.927632808458     0.399476604393    12.000000000000
         C           -3.706787527723    -4.941247249792     0.389655636305    12.000000000000
         C           -4.955594237727    -5.643479509169     0.397622770950    12.000000000000
         C           -2.486125505952    -5.654771110084     0.402595307349    12.000000000000
         C           -1.254062515205    -4.956107585676     0.391419701363    12.000000000000
         C            1.201008394143    -4.969265923868     0.392600825621    12.000000000000
         C           -0.030340854139    -5.669505838814     0.400444025285    12.000000000000
         C            3.653745921603    -4.980729311090     0.393358825369    12.000000000000
         C            2.425488516150    -5.681160171202     0.402735755921    12.000000000000
         C            6.091961438086    -4.993243499062     0.399713239043    12.000000000000
         C            4.894972264885    -5.696333956633     0.398477043213    12.000000000000
         H           -7.089896567766    -5.466985377914     0.403879366074     1.007825032230
         H            7.031051029475    -5.542644072008     0.403293018807     1.007825032230
         C           -4.923549501924    -7.078806635352     0.397068002045    12.000000000000
         C           -2.485346267963    -7.087713613604     0.394558109609    12.000000000000
         C           -3.751690071504    -7.763932693311     0.394752788534    12.000000000000
         C           -0.037953136713    -7.099450410144     0.394773834756    12.000000000000
         C           -1.277960280127    -7.772889920342     0.392789141995    12.000000000000
         C            2.409440141001    -7.114007547678     0.395637035567    12.000000000000
         C            1.194745757428    -7.786170901237     0.393484744686    12.000000000000
         C            4.847616872773    -7.131247646254     0.398143850227    12.000000000000
         C            3.668467426150    -7.803773528619     0.395795415863    12.000000000000
         H           -5.869944530142    -7.613816133717     0.398612038910     1.007825032230
         H            5.788245445663    -7.676317724989     0.399270969709     1.007825032230
         H           -3.753531119175    -8.851057104911     0.392916874105     1.007825032230
         H           -1.284308585620    -8.860860928172     0.388361758136     1.007825032230
         H            1.189217394970    -8.874146156264     0.389392107995     1.007825032230
         H            3.658542435098    -8.890846169728     0.394140874441     1.007825032230

  Charge       = 0
  Multiplicity = 1
  Basis Set: JUN-CC-PVDZ
    Blend: JUN-CC-PVDZ
  Basis Set: (JUN-CC-PVDZ AUX)
    Blend: JUN-CC-PVDZ-JKFIT

    Orbital Energies [Eh]
    ---------------------

    Doubly Occupied:

       1A    -11.264039     2A    -11.263715     3A    -11.263676
       4A    -11.263330     5A    -11.263310     6A    -11.263269
       7A    -11.263139     8A    -11.263122     9A    -11.263091
      10A    -11.262907    11A    -11.262774    12A    -11.262756
      13A    -11.262282    14A    -11.262269    15A    -11.262237
      16A    -11.262205    17A    -11.262132    18A    -11.262109
      19A    -11.262067    20A    -11.262025    21A    -11.262021
      22A    -11.261902    23A    -11.261893    24A    -11.261751
      25A    -11.261744    26A    -11.261721    27A    -11.261716
      28A    -11.261676    29A    -11.261668    30A    -11.261580
      31A    -11.261559    32A    -11.261555    33A    -11.261534
      34A    -11.261528    35A    -11.261515    36A    -11.261507
      37A    -11.261328    38A    -11.261319    39A    -11.261312
      40A    -11.261309    41A    -11.261298    42A    -11.261291
      43A    -11.261282    44A    -11.261268    45A    -11.261262
      46A    -11.261240    47A    -11.261234    48A    -11.261230
      49A    -11.261076    50A    -11.261053    51A    -11.261024
      52A    -11.260977    53A    -11.260943    54A    -11.260896
      55A    -11.259913    56A    -11.259901    57A    -11.259895
      58A    -11.259869    59A    -11.259864    60A    -11.259849
      61A    -11.259284    62A    -11.259262    63A    -11.259252
      64A    -11.259205    65A    -11.259197    66A    -11.259171
      67A    -11.258916    68A    -11.258898    69A    -11.258895
      70A    -11.258869    71A    -11.258864    72A    -11.258853
      73A    -11.254523    74A    -11.254521    75A    -11.254516
      76A    -11.254512    77A    -11.254509    78A    -11.254500
      79A    -11.253653    80A    -11.253652    81A    -11.253644
      82A    -11.253641    83A    -11.253639    84A    -11.253632
      85A    -11.253568    86A    -11.253567    87A    -11.253559
      88A    -11.253556    89A    -11.253554    90A    -11.253547
      91A    -11.253051    92A    -11.253048    93A    -11.253044
      94A    -11.253040    95A    -11.253037    96A    -11.253028
      97A     -1.253930    98A     -1.238990    99A     -1.238966
     100A     -1.220452   101A     -1.220439   102A     -1.215431
     103A     -1.201026   104A     -1.195590   105A     -1.188131
     106A     -1.188117   107A     -1.173750   108A     -1.173749
     109A     -1.155611   110A     -1.155605   111A     -1.152705
     112A     -1.144709   113A     -1.144707   114A     -1.128548
     115A     -1.114695   116A     -1.113151   117A     -1.112473
     118A     -1.112447   119A     -1.111606   120A     -1.088412
     121A     -1.088394   122A     -1.076950   123A     -1.076948
     124A     -1.067601   125A     -1.067564   126A     -1.064956
     127A     -1.046785   128A     -1.046774   129A     -1.040462
     130A     -1.038724   131A     -1.038719   132A     -1.025221
     133A     -1.021371   134A     -1.021309   135A     -1.007165
     136A     -1.006787   137A     -1.003779   138A     -1.000473
     139A     -1.000417   140A     -0.991063   141A     -0.970972
     142A     -0.970921   143A     -0.955870   144A     -0.955811
     145A     -0.905565   146A     -0.905538   147A     -0.905530
     148A     -0.905495   149A     -0.904310   150A     -0.892339
     151A     -0.892283   152A     -0.890342   153A     -0.890288
     154A     -0.889432   155A     -0.872204   156A     -0.869045
     157A     -0.851522   158A     -0.847839   159A     -0.847827
     160A     -0.845575   161A     -0.842992   162A     -0.834544
     163A     -0.834533   164A     -0.828106   165A     -0.828097
     166A     -0.784532   167A     -0.784522   168A     -0.783641
     169A     -0.783623   170A     -0.782264   171A     -0.782245
     172A     -0.782011   173A     -0.766970   174A     -0.760771
     175A     -0.750553   176A     -0.733470   177A     -0.727059
     178A     -0.727024   179A     -0.725060   180A     -0.724524
     181A     -0.724495   182A     -0.718470   183A     -0.713749
     184A     -0.713742   185A     -0.699561   186A     -0.699537
     187A     -0.686102   188A     -0.685938   189A     -0.685929
     190A     -0.682151   191A     -0.682142   192A     -0.678758
     193A     -0.653607   194A     -0.650853   195A     -0.650818
     196A     -0.649784   197A     -0.649778   198A     -0.649546
     199A     -0.640913   200A     -0.640868   201A     -0.640066
     202A     -0.639141   203A     -0.636001   204A     -0.635969
     205A     -0.629115   206A     -0.617798   207A     -0.615286
     208A     -0.615260   209A     -0.608779   210A     -0.608773
     211A     -0.599162   212A     -0.599096   213A     -0.598722
     214A     -0.598571   215A     -0.598559   216A     -0.598014
     217A     -0.595046   218A     -0.595033   219A     -0.594699
     220A     -0.594203   221A     -0.591931   222A     -0.591928
     223A     -0.587363   224A     -0.577782   225A     -0.577764
     226A     -0.575696   227A     -0.575661   228A     -0.573357
     229A     -0.569592   230A     -0.568120   231A     -0.568092
     232A     -0.566726   233A     -0.566721   234A     -0.560896
     235A     -0.558701   236A     -0.558659   237A     -0.558409
     238A     -0.554343   239A     -0.550561   240A     -0.547456
     241A     -0.544255   242A     -0.535014   243A     -0.534960
     244A     -0.533515   245A     -0.533497   246A     -0.528057
     247A     -0.528038   248A     -0.527761   249A     -0.517139
     250A     -0.517111   251A     -0.515339   252A     -0.515334
     253A     -0.509617   254A     -0.509605   255A     -0.498000
     256A     -0.496432   257A     -0.496390   258A     -0.493808
     259A     -0.493740   260A     -0.489445   261A     -0.481427
     262A     -0.477401   263A     -0.477399   264A     -0.473968
     265A     -0.469407   266A     -0.466493   267A     -0.466492
     268A     -0.458798   269A     -0.446650   270A     -0.446597
     271A     -0.441006   272A     -0.440766   273A     -0.440702
     274A     -0.434669   275A     -0.433892   276A     -0.407349
     277A     -0.407331   278A     -0.386396   279A     -0.386326
     280A     -0.385714   281A     -0.385709   282A     -0.383738
     283A     -0.354301   284A     -0.354278   285A     -0.350645
     286A     -0.338056   287A     -0.335543   288A     -0.335518
     289A     -0.332693   290A     -0.332687   291A     -0.307041
     292A     -0.301913   293A     -0.301851   294A     -0.300827
     295A     -0.286145   296A     -0.256453   297A     -0.253460
     298A     -0.253425   299A     -0.204234   300A     -0.204149

  @DF-RHF Final Energy: -3650.34025883022287

   => Energetics <=

    Nuclear Repulsion Energy =          15611.4211649754306563
    One-Electron Energy =              -36072.1558339520779555
    Two-Electron Energy =               16810.3944101464257983
    Total Energy =                      -3650.3402588302233198
 Dipole X            :         -0.0007732            0.0002112           -0.0005620
 Dipole Y            :          0.0012479           -0.0013774           -0.0001295
 Dipole Z            :       -449.5088321          449.5171434            0.0083112
 Magnitude           :                                                    0.0083312

    SAPT Results
  --------------------------------------------------------------------------------------------------------
    Electrostatics                -11.22323773 [mEh]      -7.04268800 [kcal/mol]     -29.46660659 [kJ/mol]
      Elst10,r                    -11.22323773 [mEh]      -7.04268800 [kcal/mol]     -29.46660659 [kJ/mol]

    Exchange                        0.65503696 [mEh]       0.41104190 [kcal/mol]       1.71979930 [kJ/mol]
      Exch10                        0.65503696 [mEh]       0.41104190 [kcal/mol]       1.71979930 [kJ/mol]
      Exch10(S^2)                   0.65486771 [mEh]       0.41093569 [kcal/mol]       1.71935493 [kJ/mol]

    Induction                      -9.46603993 [mEh]      -5.94002974 [kcal/mol]     -24.85308442 [kJ/mol]
      Ind20,r                      -9.04189938 [mEh]      -5.67387752 [kcal/mol]     -23.73950354 [kJ/mol]
      Exch-Ind20,r                  0.11617532 [mEh]       0.07290111 [kcal/mol]       0.30501826 [kJ/mol]
      delta HF,r (2)               -0.54031588 [mEh]      -0.33905333 [kcal/mol]      -1.41859914 [kJ/mol]

    Dispersion                     -8.33997676 [mEh]      -5.23341443 [kcal/mol]     -21.89660596 [kJ/mol]
      Disp20                       -8.42195000 [mEh]      -5.28485342 [kcal/mol]     -22.11182669 [kJ/mol]
      Exch-Disp20                   0.08197325 [mEh]       0.05143899 [kcal/mol]       0.21522073 [kJ/mol]
      Disp20 (SS)                  -4.21097500 [mEh]      -2.64242671 [kcal/mol]     -11.05591334 [kJ/mol]
      Disp20 (OS)                  -4.21097500 [mEh]      -2.64242671 [kcal/mol]     -11.05591334 [kJ/mol]
      Exch-Disp20 (SS)              0.05365104 [mEh]       0.03366653 [kcal/mol]       0.14086077 [kJ/mol]
      Exch-Disp20 (OS)              0.02832221 [mEh]       0.01777246 [kcal/mol]       0.07435996 [kJ/mol]

  Total HF                        -20.03424070 [mEh]     -12.57167584 [kcal/mol]     -52.59989171 [kJ/mol]
  Total SAPT0                     -28.37421745 [mEh]     -17.80509026 [kcal/mol]     -74.49649766 [kJ/mol]

  Special recipe for scaled SAPT0 (see Manual):
    Electrostatics sSAPT0         -11.22323773 [mEh]      -7.04268800 [kcal/mol]     -29.46660659 [kJ/mol]
    Exchange sSAPT0                 0.65503696 [mEh]       0.41104190 [kcal/mol]       1.71979930 [kJ/mol]
    Induction sSAPT0               -9.46594983 [mEh]      -5.93997320 [kcal/mol]     -24.85284786 [kJ/mol]
    Dispersion sSAPT0              -8.33991318 [mEh]      -5.23337453 [kcal/mol]     -21.89643904 [kJ/mol]
  Total sSAPT0                    -28.37406378 [mEh]     -17.80499383 [kcal/mol]     -74.49609419 [kJ/mol]
  --------------------------------------------------------------------------------------------------------

*** Psi4 exiting successfully. Buy a developer a beer!
