                               Psi4 1.9 release

  ==> Input File <==

--------------------------------------------------------------------------
memory 64 GB # how much memory is available ! Depends on the nodes/cores !

molecule dimer {
# monomer A
+1 1    # Charge and multiplicity
C  0.680067 -1.215929 8.008042
C -0.680504 -1.215545 8.006014
N -1.085635  0.102779 8.005016
C  0.000108  0.884180 8.001740
C -2.477365  0.570758 7.955610
N  1.085222  0.102779 8.005016
H  1.385146 -2.033368 8.015870
H -1.385302 -2.033214 8.006204
H -0.000009  1.965269 7.999993
C  2.478117  0.567877 8.021908
H  2.490592  1.658130 7.994563
H  2.967028  0.220701 8.935354
H  3.001428  0.176405 7.146425
H -2.857359  0.490799 6.933539
H -3.082679 -0.042306 8.625694
H -2.518128  1.610706 8.282594
--
# monomer B
0 1     # Charge and multiplicity
C   -3.66844126402057      7.80375217008252      0.00190004133558
C   -4.84759871934653      7.13124183134024     -0.00046653359696
C   -4.89495929917518      5.69633040353158     -0.00103944469517
C   -3.65374067877320      4.98073034095895      0.00662099703436
C   -2.40942512149445      7.11398103667468      0.00209438359570
C   -2.42547734410473      5.68112195090346     -0.00491050527438
C   -1.19474401643570      7.78614419430947      0.00356656413763
C   0.03795902893699      7.09942164575698      0.00139585983271
C   0.03033258741920      5.66948955970466     -0.00408752508301
C   -1.20098450790502      4.96927034791531      0.00488220885047
C   1.27795782581485      7.77285944319479      0.00277170839332
C   2.48535808472416      7.08769688523756      0.00049722048857
C   2.48612868491717      5.65477081024076     -0.00644052849921
C   1.25408291964399      4.95607811366431      0.00518741308898
C   3.75171459140595      7.76391215098033      0.00062407186893
C   4.92356605618520      7.07878077698995     -0.00143240883900
C   4.95560727132542      5.64344746336949     -0.00159282164606
C   3.70680153420475      4.94121020833308      0.00349873852374
H   -3.65852113775815      8.89082741913536      0.00358502958574
H   -1.18921332975660      8.87412108735996      0.00753844057883
H   1.28429423888630      8.86083343548850      0.00693053253426
H   3.75354208679975      8.85103527897216      0.00214659618464
H   5.86995870320703      7.61379483465560     -0.00235777588134
H   -5.78823170750226      7.67630221293400     -0.00202638095293
C   -6.09197395869619      4.99326001364347     -0.00291168518608
C   -6.12866148031747      3.58258016879823     -0.00171050815740
C   -3.66457974004527      3.56418217974434     -0.00463560277484
C   -4.89429820469869      2.86108077590057      0.00453338221034
C   -2.43733499489796      2.84761165708481      0.00719617576166
C   -1.20922785759670      3.54788693497833     -0.00648285103018
C   1.24714157216223      3.53468075142962     -0.00729145743546
C   0.01517603956900      2.83311183930540      0.00439272578912
C   2.46764517244071      2.82128997725533      0.00449278391269
C   3.70254947457969      3.52466015442405     -0.00899517692985
C   6.14498038638375      4.92757236613191     -0.00282626685777
C   6.16658835886151      3.51658447594213     -0.00065971342101
C   4.92460995845939      2.80840792535402      0.00587903281610
H   7.08990550964105      5.46688776622306     -0.00658814770723
H   -7.03104175110130      5.54268795285765     -0.00714490013730
C   -7.33969804112295      2.85841153457957     -0.00333767559888
C   -7.36488195805880      1.47032337158330     -0.00157213747140
C   -4.90350460894690      1.44442681216000     -0.00628840166334
C   -6.13225715261081      0.73993935705394      0.00600164231964
C   -3.67687480051673      0.72669714267312      0.00433931473643
C   -2.44565658606518      1.42964113326212     -0.00597039546461
C   -1.22360068130162      0.71532450163492      0.00545886906656
C   0.00763786931376      1.41738314923765      0.00392452278437
C   1.23121980774686      0.70211669058719     -0.01490206287210
C   2.46082110053113      1.40329203612573      0.00460244601878
C   3.68443025419614      0.68719842821222      0.00377365974158
C   4.91870890153864      1.39173456118907     -0.00862816189375
C   7.36980207796101      2.77948220318441     -0.00242013321349
C   7.38016266612146      1.39121750785509     -0.00087345036788
C   6.13979953912259      0.67411862320065      0.00545489144369
H   -8.27919079934664      3.40711804112415     -0.00763522772059
H   8.31511347147953      3.31811809662368     -0.00663070901292
C   -8.59175593758115      0.72483255304480     -0.00123170985383
C   -8.59902460370342     -0.63263980622873      0.00089141472904
C   -6.13981313911873     -0.67413663715361     -0.00609792660607
C   -7.38018411213749     -1.39126618958160      0.00131813493501
C   -4.91868448025621     -1.39175501803000      0.00624257154343
C   -3.68443829568458     -0.68723731573599     -0.00478966852105
C   -2.46081704024768     -1.40334517882457      0.00575341766833
C   -1.23116201232071     -0.70217386488055     -0.00636696112346
C   -0.00756962538737     -1.41741884941102      0.00108956317991
C   1.22364771588843     -0.71527537726392      0.01109518512883
C   2.44567064933149     -1.42964328900682     -0.00065482763106
C   3.67686670284649     -0.72670743155550     -0.00479541202602
C   6.13224884641929     -0.73997883984993     -0.00632338623858
C   4.90351914550401     -1.44445752054090      0.00751768830159
C   8.59901484869081      0.63260386666793     -0.00101133422380
C   8.59174548810050     -0.72485086719319      0.00072504603735
C   7.36486276438985     -1.47033266560598      0.00049486934466
H   -9.52830597181814      1.27684744919284     -0.00270163681798
H   9.54141097460619      1.17457248844457     -0.00206336648518
C   -7.36983790976868     -2.77954514593389      0.00312634335708
C   -4.92459910905015     -2.80843725734101     -0.00460528907921
C   -6.16662249566744     -3.51665219282533      0.00169655107992
C   -3.70251035970491     -3.52468154912026      0.00571878010666
C   -2.46764698511392     -2.82132596280400     -0.00632585824990
C   -0.01513347410770     -2.83314164539971     -0.00604426974092
C   -1.24712184122656     -3.53473217556300      0.00551968366725
C   1.20924506964357     -3.54791467864352      0.00805871345849
C   2.43733602215464     -2.84764173817541     -0.00608104485234
C   4.89430234377080     -2.86112296828604     -0.00526030478103
C   3.66461525504104     -3.56421984553201      0.00761911515957
C   6.12863901474565     -3.58258405771778      0.00096495711699
C   7.33967266469532     -2.85841330737039      0.00248018319869
H   -9.54144911125902     -1.17456346666430      0.00226083090216
H   9.52826186807155     -1.27691907390448      0.00197485379837
H   -8.31516504384864     -3.31814985321231      0.00729857188773
H   8.27915514249207     -3.40714078989363      0.00681973918158
C   -6.14499418870218     -4.92764727278338      0.00302254913999
C   -3.70678334799751     -4.94126171411716     -0.00679841894792
C   -4.95559005800169     -5.64349397349412      0.00116871569699
C   -2.48612132622665     -5.65478557440947      0.00614125209662
C   -1.25405833548005     -4.95612205000132     -0.00503435388927
C   1.20101257386816     -4.96928038819302     -0.00385322963129
C   -0.03033667441341     -5.66952030313900      0.00398997003238
C   3.65375010132847     -4.98074377541453     -0.00309522988330
C   2.42549269587528     -5.68117463552727      0.00628170066869
C   6.09196561781097     -4.99325796338655      0.00325918379042
C   4.89497644461045     -5.69634842095790      0.00202298796027
H   -7.08989238804069     -5.46699984223871      0.00742531082125
H   7.03105520920009     -5.54265853633254      0.00683896355417
C   -4.92354532219813     -7.07882109967734      0.00061394679214
C   -2.48534208823777     -7.08772807792913     -0.00189594564379
C   -3.75168589177895     -7.76394715763627     -0.00170126671874
C   -0.03794895698805     -7.09946487446944     -0.00168022049625
C   -1.27795610040136     -7.77290438466689     -0.00366491325785
C   2.40944432072629     -7.11402201200282     -0.00081701968533
C   1.19474993715296     -7.78618536556242     -0.00296931056689
C   4.84762105249800     -7.13126211057943      0.00168979497423
C   3.66847160587561     -7.80378799294376     -0.00065863938960
H   -5.86994035041618     -7.61383059804164      0.00215798365757
H   5.78824962538815     -7.67633218931421      0.00281691445618
H   -3.75352693944918     -8.85107156923607     -0.00353718114765
H   -1.28430440589466     -8.86087539249706     -0.00809229711623
H   1.18922157469537     -8.87416062058945     -0.00706194725726
H   3.65854661482387     -8.89086063405326     -0.00231318081200

    units angstrom      # Angstroms are the default
    no_reorient         # Geometry fixed, default
    symmetry c1         # C1 symmetry, default
}

set {
    scf_type DF         # Density fitting, faster than exact integrals
    freeze_core True    # Freeze core electrons
    basis jun-cc-pVDZ   # Jun-cc-pVDZ basis set, recommended for sSAPT0 in https://doi.org/10.1063/1.4867135
}

energy('ssapt0')        # Compute sSAPT0 energy, includes also SAPT0
--------------------------------------------------------------------------

  //              Dimer HF             //
    Molecular point group: c1
  Charge       = 1
  Multiplicity = 1
  Basis Set: JUN-CC-PVDZ
    Blend: JUN-CC-PVDZ
  Basis Set: (JUN-CC-PVDZ AUX)
    Blend: JUN-CC-PVDZ-JKFIT
  @DF-RHF Final Energy: -3953.64366028250470
    Total Energy =                      -3953.6436602825051523
 Dipole X            :          0.0012268            0.0004804            0.0017072
 Dipole Y            :         -1.5207312            1.8866171            0.3658859
 Dipole Z            :        -35.4425114           48.5290357           13.0865243
 Magnitude           :                                                   13.0916383
  //            Monomer A HF           //
    Molecular point group: c1
  Multiplicity = 1
  Basis Set: JUN-CC-PVDZ
    Blend: JUN-CC-PVDZ
  Basis Set: (JUN-CC-PVDZ AUX)
    Blend: JUN-CC-PVDZ-JKFIT
  @DF-RHF Final Energy:  -303.29719576393421
    Total Energy =                       -303.2971957639342122
  //            Monomer B HF           //
    Molecular point group: c1

    Geometry (in Angstrom), charge = 0, multiplicity = 1:

       Center              X                  Y                   Z               Mass
    ------------   -----------------  -----------------  -----------------  -----------------
      Gh(C)           0.680062820275    -1.215917226251     7.398100684274    12.000000000000
      Gh(C)          -0.680508179725    -1.215533226251     7.396072684274    12.000000000000
      Gh(N)          -1.085639179725     0.102790773749     7.395074684274    14.003074004430
      Gh(C)           0.000103820275     0.884191773749     7.391798684274    12.000000000000
      Gh(C)          -2.477369179725     0.570769773749     7.345668684274    12.000000000000
      Gh(N)           1.085217820275     0.102790773749     7.395074684274    14.003074004430
      Gh(H)           1.385141820275    -2.033356226251     7.405928684274     1.007825032230
      Gh(H)          -1.385306179725    -2.033202226251     7.396262684274     1.007825032230
      Gh(H)          -0.000013179725     1.965280773749     7.390051684274     1.007825032230
      Gh(C)           2.478112820275     0.567888773749     7.411966684274    12.000000000000
      Gh(H)           2.490587820275     1.658141773750     7.384621684274     1.007825032230
      Gh(H)           2.967023820275     0.220712773749     8.325412684274     1.007825032230
      Gh(H)           3.001423820275     0.176416773749     6.536483684274     1.007825032230
      Gh(H)          -2.857363179725     0.490810773749     6.323597684274     1.007825032230
      Gh(H)          -3.082683179725    -0.042294226251     8.015752684274     1.007825032230
      Gh(H)          -2.518132179725     1.610717773749     7.672652684274     1.007825032230
         C           -3.668445443746     7.803763943832    -0.608041274390    12.000000000000
         C           -4.847602899072     7.131253605090    -0.610407849323    12.000000000000
         C           -4.894963478901     5.696342177281    -0.610980760421    12.000000000000
         C           -3.653744858499     4.980742114708    -0.603320318691    12.000000000000
         C           -2.409429301220     7.113992810424    -0.607846932130    12.000000000000
         C           -2.425481523830     5.681133724653    -0.614851821000    12.000000000000
         C           -1.194748196161     7.786155968059    -0.606374751588    12.000000000000
         C            0.037954849212     7.099433419506    -0.608545455893    12.000000000000
         C            0.030328407694     5.669501333454    -0.614028840809    12.000000000000
         C           -1.200988687630     4.969282121665    -0.605059106875    12.000000000000
         C            1.277953646089     7.772871216944    -0.607169607332    12.000000000000
         C            2.485353904999     7.087708658987    -0.609444095237    12.000000000000
         C            2.486124505192     5.654782583990    -0.616381844225    12.000000000000
         C            1.254078739919     4.956089887414    -0.604753902637    12.000000000000
         C            3.751710411681     7.763923924730    -0.609317243857    12.000000000000
         C            4.923561876460     7.078792550739    -0.611373724565    12.000000000000
         C            4.955603091600     5.643459237119    -0.611534137372    12.000000000000
         C            3.706797354479     4.941221982083    -0.606442577202    12.000000000000
         H           -3.658525317484     8.890839192885    -0.606356286140     1.007825032230
         H           -1.189217509482     8.874132861109    -0.602402875147     1.007825032230
         H            1.284290059161     8.860845209238    -0.603010783192     1.007825032230
         H            3.753537907074     8.851047052722    -0.607794719541     1.007825032230
         H            5.869954523482     7.613806608405    -0.612299091607     1.007825032230
         H           -5.788235887228     7.676313986684    -0.611967696679     1.007825032230
         C           -6.091978138422     4.993271787393    -0.612853000912    12.000000000000
         C           -6.128665660043     3.582591942548    -0.611651823883    12.000000000000
         C           -3.664583919771     3.564193953494    -0.614576918501    12.000000000000
         C           -4.894302384424     2.861092549650    -0.605407933515    12.000000000000
         C           -2.437339174623     2.847623430834    -0.602745139964    12.000000000000
         C           -1.209232037322     3.547898708728    -0.616424166756    12.000000000000
         C            1.247137392437     3.534692525179    -0.617232773161    12.000000000000
         C            0.015171859844     2.833123613055    -0.605548589937    12.000000000000
         C            2.467640992715     2.821301751005    -0.605448531813    12.000000000000
         C            3.702545294854     3.524671928174    -0.618936492656    12.000000000000
         C            6.144976206658     4.927584139881    -0.612767582584    12.000000000000
         C            6.166584179136     3.516596249692    -0.610601029147    12.000000000000
         C            4.924605778734     2.808419699104    -0.604062282910    12.000000000000
         H            7.089901329916     5.466899539973    -0.616529463433     1.007825032230
         H           -7.031045930827     5.542699726607    -0.617086215863     1.007825032230
         C           -7.339702220848     2.858423308329    -0.613278991325    12.000000000000
         C           -7.364886137784     1.470335145333    -0.611513453197    12.000000000000
         C           -4.903508788672     1.444438585909    -0.616229717389    12.000000000000
         C           -6.132261332336     0.739951130803    -0.603939673406    12.000000000000
         C           -3.676878980242     0.726708916423    -0.605602000989    12.000000000000
         C           -2.445660765791     1.429652907012    -0.615911711190    12.000000000000
         C           -1.223604861027     0.715336275384    -0.604482446659    12.000000000000
         C            0.007633689588     1.417394922987    -0.606016792941    12.000000000000
         C            1.231215628021     0.702128464337    -0.624843378598    12.000000000000
         C            2.460816920806     1.403303809875    -0.605338869707    12.000000000000
         C            3.684426074471     0.687210201962    -0.606167655984    12.000000000000
         C            4.918704721813     1.391746334939    -0.618569477620    12.000000000000
         C            7.369797898236     2.779493976934    -0.612361448939    12.000000000000
         C            7.380158486396     1.391229281605    -0.610814766094    12.000000000000
         C            6.139795359397     0.674130396950    -0.604486424282    12.000000000000
         H           -8.279194979072     3.407129814874    -0.617576543446     1.007825032230
         H            8.315109291754     3.318129870373    -0.616572024739     1.007825032230
         C           -8.591760117307     0.724844326794    -0.611173025580    12.000000000000
         C           -8.599028783429    -0.632628032479    -0.609049900997    12.000000000000
         C           -6.139817318844    -0.674124863404    -0.616039242332    12.000000000000
         C           -7.380188291863    -1.391254415832    -0.608623180791    12.000000000000
         C           -4.918688659982    -1.391743244281    -0.603698744182    12.000000000000
         C           -3.684442475410    -0.687225541986    -0.614730984247    12.000000000000
         C           -2.460821219973    -1.403333405075    -0.604187898057    12.000000000000
         C           -1.231166192046    -0.702162091131    -0.616308276849    12.000000000000
         C           -0.007573805113    -1.417407075662    -0.608851752546    12.000000000000
         C            1.223643536163    -0.715263603514    -0.598846130597    12.000000000000
         C            2.445666469606    -1.429631515257    -0.610596143357    12.000000000000
         C            3.676862523121    -0.726695657806    -0.614736727752    12.000000000000
         C            6.132244666694    -0.739967066100    -0.616264701964    12.000000000000
         C            4.903514965779    -1.444445746791    -0.602423627424    12.000000000000
         C            8.599010668965     0.632615640417    -0.610952649950    12.000000000000
         C            8.591741308375    -0.724839093444    -0.609216269688    12.000000000000
         C            7.364858584664    -1.470320891856    -0.609446446381    12.000000000000
         H           -9.528310151544     1.276859222942    -0.612642952544     1.007825032230
         H            9.541406794881     1.174584262194    -0.612004682211     1.007825032230
         C           -7.369842089494    -2.779533372184    -0.606814972369    12.000000000000
         C           -4.924603288776    -2.808425483592    -0.614546604805    12.000000000000
         C           -6.166626675393    -3.516640419076    -0.608244764646    12.000000000000
         C           -3.702514539430    -3.524669775371    -0.604222535619    12.000000000000
         C           -2.467651164839    -2.821314189055    -0.616267173976    12.000000000000
         C           -0.015137653833    -2.833129871650    -0.615985585467    12.000000000000
         C           -1.247126020952    -3.534720401814    -0.604421632059    12.000000000000
         C            1.209240889918    -3.547902904894    -0.601882602267    12.000000000000
         C            2.437331842429    -2.847629964426    -0.616022360578    12.000000000000
         C            4.894298164045    -2.861111194537    -0.615201620507    12.000000000000
         C            3.664611075316    -3.564208071783    -0.602322200566    12.000000000000
         C            6.128634835020    -3.582572283968    -0.608976358609    12.000000000000
         C            7.339668484970    -2.858401533621    -0.607461132527    12.000000000000
         H           -9.541453290984    -1.174551692915    -0.607680484824     1.007825032230
         H            9.528257688346    -1.276907300155    -0.607966461927     1.007825032230
         H           -8.315169223574    -3.318138079463    -0.602642743838     1.007825032230
         H            8.279150962767    -3.407129016144    -0.603121576544     1.007825032230
         C           -6.144998368428    -4.927635499034    -0.606918766586    12.000000000000
         C           -3.706787527723    -4.941249940368    -0.616739734674    12.000000000000
         C           -4.955594237727    -5.643482199745    -0.608772600029    12.000000000000
         C           -2.486125505952    -5.654773800660    -0.603800063629    12.000000000000
         C           -1.254062515205    -4.956110276252    -0.614975669615    12.000000000000
         C            1.201008394143    -4.969268614444    -0.613794545357    12.000000000000
         C           -0.030340854139    -5.669508529390    -0.605951345693    12.000000000000
         C            3.653745921603    -4.980732001665    -0.613036545609    12.000000000000
         C            2.425488516150    -5.681162861778    -0.603659615057    12.000000000000
         C            6.091961438086    -4.993246189637    -0.606682131935    12.000000000000
         C            4.894972264885    -5.696336647208    -0.607918327766    12.000000000000
         H           -7.089896567766    -5.466988068489    -0.602516004905     1.007825032230
         H            7.031051029475    -5.542646762583    -0.603102352172     1.007825032230
         C           -4.923549501924    -7.078809325928    -0.609327368934    12.000000000000
         C           -2.485346267963    -7.087716304180    -0.611837261370    12.000000000000
         C           -3.751690071504    -7.763935383887    -0.611642582445    12.000000000000
         C           -0.037953136713    -7.099453100720    -0.611621536222    12.000000000000
         C           -1.277960280127    -7.772892610917    -0.613606228984    12.000000000000
         C            2.409440141001    -7.114010238253    -0.610758335411    12.000000000000
         C            1.194745757428    -7.786173591813    -0.612910626293    12.000000000000
         C            4.847616872773    -7.131250336830    -0.608251520752    12.000000000000
         C            3.668467426150    -7.803776219194    -0.610599955115    12.000000000000
         H           -5.869944530142    -7.613818824292    -0.607783332068     1.007825032230
         H            5.788245445663    -7.676320415565    -0.607124401270     1.007825032230
         H           -3.753531119175    -8.851059795487    -0.613478496873     1.007825032230
         H           -1.284308585620    -8.860863618748    -0.618033612842     1.007825032230
         H            1.189217394970    -8.874148846840    -0.617003262983     1.007825032230
         H            3.658542435098    -8.890848860304    -0.612254496538     1.007825032230

  Charge       = 0
  Multiplicity = 1
  Basis Set: JUN-CC-PVDZ
    Blend: JUN-CC-PVDZ
  Basis Set: (JUN-CC-PVDZ AUX)
    Blend: JUN-CC-PVDZ-JKFIT

    Orbital Energies [Eh]
    ---------------------

    Doubly Occupied:

       1A    -11.264045     2A    -11.263731     3A    -11.263730
       4A    -11.263390     5A    -11.263387     6A    -11.263352
       7A    -11.263195     8A    -11.263168     9A    -11.263166
      10A    -11.263009    11A    -11.262849    12A    -11.262845
      13A    -11.262366    14A    -11.262364    15A    -11.262288
      16A    -11.262288    17A    -11.262238    18A    -11.262202
      19A    -11.262157    20A    -11.262119    21A    -11.262117
      22A    -11.261962    23A    -11.261959    24A    -11.261839
      25A    -11.261824    26A    -11.261810    27A    -11.261806
      28A    -11.261759    29A    -11.261751    30A    -11.261679
      31A    -11.261652    32A    -11.261649    33A    -11.261623
      34A    -11.261622    35A    -11.261601    36A    -11.261554
      37A    -11.261414    38A    -11.261402    39A    -11.261396
      40A    -11.261389    41A    -11.261384    42A    -11.261376
      43A    -11.261372    44A    -11.261357    45A    -11.261352
      46A    -11.261330    47A    -11.261326    48A    -11.261322
      49A    -11.261170    50A    -11.261139    51A    -11.261136
      52A    -11.261056    53A    -11.261055    54A    -11.260984
      55A    -11.260014    56A    -11.260001    57A    -11.259998
      58A    -11.259969    59A    -11.259967    60A    -11.259952
      61A    -11.259392    62A    -11.259367    63A    -11.259364
      64A    -11.259313    65A    -11.259310    66A    -11.259281
      67A    -11.259018    68A    -11.259001    69A    -11.258999
      70A    -11.258971    71A    -11.258969    72A    -11.258958
      73A    -11.254588    74A    -11.254586    75A    -11.254586
      76A    -11.254583    77A    -11.254576    78A    -11.254574
      79A    -11.253738    80A    -11.253736    81A    -11.253734
      82A    -11.253732    83A    -11.253730    84A    -11.253725
      85A    -11.253654    86A    -11.253652    87A    -11.253649
      88A    -11.253648    89A    -11.253645    90A    -11.253640
      91A    -11.253116    92A    -11.253114    93A    -11.253114
      94A    -11.253111    95A    -11.253104    96A    -11.253102
      97A     -1.254134    98A     -1.239137    99A     -1.239137
     100A     -1.220581   101A     -1.220576   102A     -1.215608
     103A     -1.201142   104A     -1.195711   105A     -1.188298
     106A     -1.188297   107A     -1.173862   108A     -1.173859
     109A     -1.155771   110A     -1.155767   111A     -1.152877
     112A     -1.144816   113A     -1.144813   114A     -1.128693
     115A     -1.114852   116A     -1.113258   117A     -1.112638
     118A     -1.112624   119A     -1.111706   120A     -1.088555
     121A     -1.088540   122A     -1.077054   123A     -1.077052
     124A     -1.067749   125A     -1.067719   126A     -1.065120
     127A     -1.046914   128A     -1.046907   129A     -1.040603
     130A     -1.038827   131A     -1.038826   132A     -1.025387
     133A     -1.021559   134A     -1.021509   135A     -1.007286
     136A     -1.006929   137A     -1.003906   138A     -1.000630
     139A     -1.000582   140A     -0.991162   141A     -0.971118
     142A     -0.971070   143A     -0.955987   144A     -0.955931
     145A     -0.905757   146A     -0.905715   147A     -0.905634
     148A     -0.905593   149A     -0.904514   150A     -0.892528
     151A     -0.892468   152A     -0.890513   153A     -0.890456
     154A     -0.889587   155A     -0.872316   156A     -0.869131
     157A     -0.851645   158A     -0.848008   159A     -0.847986
     160A     -0.845744   161A     -0.843148   162A     -0.834679
     163A     -0.834666   164A     -0.828209   165A     -0.828205
     166A     -0.784670   167A     -0.784659   168A     -0.783797
     169A     -0.783771   170A     -0.782415   171A     -0.782395
     172A     -0.782178   173A     -0.767103   174A     -0.760950
     175A     -0.750727   176A     -0.733582   177A     -0.727185
     178A     -0.727172   179A     -0.725210   180A     -0.724652
     181A     -0.724633   182A     -0.718655   183A     -0.713917
     184A     -0.713911   185A     -0.699689   186A     -0.699677
     187A     -0.686288   188A     -0.686054   189A     -0.686051
     190A     -0.682277   191A     -0.682266   192A     -0.678913
     193A     -0.653743   194A     -0.650990   195A     -0.650960
     196A     -0.649964   197A     -0.649948   198A     -0.649663
     199A     -0.641084   200A     -0.641056   201A     -0.640187
     202A     -0.639251   203A     -0.636156   204A     -0.636130
     205A     -0.629256   206A     -0.617829   207A     -0.615396
     208A     -0.615376   209A     -0.608908   210A     -0.608901
     211A     -0.599183   212A     -0.599143   213A     -0.598866
     214A     -0.598738   215A     -0.598713   216A     -0.598194
     217A     -0.595163   218A     -0.595151   219A     -0.594835
     220A     -0.594396   221A     -0.592083   222A     -0.592080
     223A     -0.587552   224A     -0.577871   225A     -0.577861
     226A     -0.575729   227A     -0.575726   228A     -0.573483
     229A     -0.569559   230A     -0.568292   231A     -0.568267
     232A     -0.566872   233A     -0.566862   234A     -0.560991
     235A     -0.558850   236A     -0.558831   237A     -0.558507
     238A     -0.554483   239A     -0.550624   240A     -0.547550
     241A     -0.544334   242A     -0.535030   243A     -0.534993
     244A     -0.533647   245A     -0.533625   246A     -0.528173
     247A     -0.528158   248A     -0.527950   249A     -0.517312
     250A     -0.517278   251A     -0.515419   252A     -0.515414
     253A     -0.509736   254A     -0.509720   255A     -0.498130
     256A     -0.496562   257A     -0.496536   258A     -0.493837
     259A     -0.493827   260A     -0.489471   261A     -0.481544
     262A     -0.477482   263A     -0.477479   264A     -0.474096
     265A     -0.469563   266A     -0.466642   267A     -0.466637
     268A     -0.458870   269A     -0.446852   270A     -0.446791
     271A     -0.441094   272A     -0.440818   273A     -0.440794
     274A     -0.434750   275A     -0.433967   276A     -0.407442
     277A     -0.407418   278A     -0.386478   279A     -0.386430
     280A     -0.385791   281A     -0.385790   282A     -0.383822
     283A     -0.354392   284A     -0.354376   285A     -0.350730
     286A     -0.338159   287A     -0.335659   288A     -0.335591
     289A     -0.332773   290A     -0.332767   291A     -0.307155
     292A     -0.302018   293A     -0.301956   294A     -0.300905
     295A     -0.286235   296A     -0.256521   297A     -0.253570
     298A     -0.253517   299A     -0.204328   300A     -0.204239

  @DF-RHF Final Energy: -3650.33786643639678

   => Energetics <=

    Nuclear Repulsion Energy =          15611.4211649754324753
    One-Electron Energy =              -36072.0827575127477758
    Two-Electron Energy =               16810.3237261009198846
    Total Energy =                      -3650.3378664363954158
 Dipole X            :         -0.0010747            0.0002112           -0.0008635
 Dipole Y            :          0.0041537           -0.0044281           -0.0002744
 Dipole Z            :        691.5697449         -691.5698317           -0.0000868
 Magnitude           :                                                    0.0009102

    SAPT Results
  --------------------------------------------------------------------------------------------------------
    Electrostatics                 -6.77574732 [mEh]      -4.25184564 [kcal/mol]     -17.78972214 [kJ/mol]
      Elst10,r                     -6.77574732 [mEh]      -4.25184564 [kcal/mol]     -17.78972214 [kJ/mol]

    Exchange                       -0.00010171 [mEh]      -0.00006383 [kcal/mol]      -0.00026705 [kJ/mol]
      Exch10                       -0.00010171 [mEh]      -0.00006383 [kcal/mol]      -0.00026705 [kJ/mol]
      Exch10(S^2)                  -0.00010171 [mEh]      -0.00006383 [kcal/mol]      -0.00026705 [kJ/mol]

    Induction                      -1.82223314 [mEh]      -1.14346856 [kcal/mol]      -4.78427245 [kJ/mol]
      Ind20,r                      -1.80639974 [mEh]      -1.13353295 [kcal/mol]      -4.74270186 [kJ/mol]
      Exch-Ind20,r                  0.00008104 [mEh]       0.00005085 [kcal/mol]       0.00021276 [kJ/mol]
      delta HF,r (2)               -0.01591444 [mEh]      -0.00998646 [kcal/mol]      -0.04178336 [kJ/mol]

    Dispersion                     -0.80115398 [mEh]      -0.50273171 [kcal/mol]      -2.10342948 [kJ/mol]
      Disp20                       -0.80117849 [mEh]      -0.50274709 [kcal/mol]      -2.10349383 [kJ/mol]
      Exch-Disp20                   0.00002451 [mEh]       0.00001538 [kcal/mol]       0.00006435 [kJ/mol]
      Disp20 (SS)                  -0.40058924 [mEh]      -0.25137355 [kcal/mol]      -1.05174692 [kJ/mol]
      Disp20 (OS)                  -0.40058924 [mEh]      -0.25137355 [kcal/mol]      -1.05174692 [kJ/mol]
      Exch-Disp20 (SS)              0.00001862 [mEh]       0.00001168 [kcal/mol]       0.00004889 [kJ/mol]
      Exch-Disp20 (OS)              0.00000589 [mEh]       0.00000370 [kcal/mol]       0.00001547 [kJ/mol]

  Total HF                         -8.59808217 [mEh]      -5.39537802 [kcal/mol]     -22.57426164 [kJ/mol]
  Total SAPT0                      -9.39923615 [mEh]      -5.89810973 [kcal/mol]     -24.67769112 [kJ/mol]

  Special recipe for scaled SAPT0 (see Manual):
    Electrostatics sSAPT0          -6.77574732 [mEh]      -4.25184564 [kcal/mol]     -17.78972214 [kJ/mol]
    Exchange sSAPT0                -0.00010171 [mEh]      -0.00006383 [kcal/mol]      -0.00026705 [kJ/mol]
    Induction sSAPT0               -1.82223314 [mEh]      -1.14346856 [kcal/mol]      -4.78427245 [kJ/mol]
    Dispersion sSAPT0              -0.80115398 [mEh]      -0.50273171 [kcal/mol]      -2.10342948 [kJ/mol]
  Total sSAPT0                     -9.39923615 [mEh]      -5.89810973 [kcal/mol]     -24.67769112 [kJ/mol]
  --------------------------------------------------------------------------------------------------------

*** Psi4 exiting successfully. Buy a developer a beer!
