                               Psi4 1.9 release

  ==> Input File <==

--------------------------------------------------------------------------
# PSI4 input file for a GDMA calculation
memory 48 GB

molecule c1c1im {
# charge and multiplicity
+1 1
# coordinates
C 0.6800666475098902 -0.008042421408921705 -1.2159290923021302
C -0.6805039847920868 -0.006014262721444302 -1.215545386383872
N -1.0856350298770807 -0.00501636011552646 0.10277881169180464
C 0.00010750016427530558 -0.0017399879845801784 0.8841799489644288
C -2.477365463888423 0.04438976558536872 0.5707577447726591
N 1.0852218514538425 -0.005016360115526417 0.10277881169180464
H 1.3851463087130615 -0.015869903510207273 -2.033367527477222
H -1.3853019994499363 -0.006204050263489404 -2.033213889837951
H -8.84602472033774e-06 7.33607782161081e-06 1.9652686463501035
C 2.4781169320504466 -0.02190845659185453 0.5678770278546844
H 2.490591524716471 0.005437115829508364 1.6581295168119912
H 2.967028487547803 -0.9353542359376904 0.22070095779147791
H 3.0014279902984438 0.8535752816165013 0.17640495545758325
H -2.857359035964144 1.066460626152431 0.4907988694633358
H -3.0826792548368105 -0.6256944328101225 -0.04230568637516852
H -2.5181276895949396 -0.2825941259250483 1.6107057534311164

# additional options
units angstrom
no_reorient
symmetry c1
}

# calculation options
set {
scf_type DF         # Density fitting, faster than exact integrals
freeze_core True    # Freeze core electrons
basis jun-cc-pVDZ   # Jun-cc-pVDZ basis set, recommended for sSAPT0 in https://doi.org/10.1063/1.4867135
}

# call gdma routine
energy, wfn = energy('scf', return_wfn=True)
fchk(wfn, filename='gdma.fchk')
gdma(wfn, datafile='gdma.dma')
print(variable('DMA DISTRIBUTED MULTIPOLES'))
print(variable('DMA TOTAL MULTIPOLES'))
--------------------------------------------------------------------------

    Molecular point group: c1

    Geometry (in Angstrom), charge = 1, multiplicity = 1:

       Center              X                  Y                   Z               Mass
    ------------   -----------------  -----------------  -----------------  -----------------
         C            0.680066679400    -0.008041988576    -1.215964073597    12.000000000000
         C           -0.680503952902    -0.006013829889    -1.215580367679    12.000000000000
         N           -1.085634997987    -0.005015927283     0.102743830397    14.003074004430
         C            0.000107532054    -0.001739555152     0.884144967669    12.000000000000
         C           -2.477365431999     0.044390198418     0.570722763477    12.000000000000
         N            1.085221883344    -0.005015927283     0.102743830397    14.003074004430
         H            1.385146340603    -0.015869470678    -2.033402508772     1.007825032230
         H           -1.385301967560    -0.006203617431    -2.033248871133     1.007825032230
         H           -0.000008814135     0.000007768910     1.965233665055     1.007825032230
         C            2.478116963940    -0.021908023759     0.567842046559    12.000000000000
         H            2.490591556606     0.005437548662     1.658094535517     1.007825032230
         H            2.967028519438    -0.935353803105     0.220665976496     1.007825032230
         H            3.001428022188     0.853575714449     0.176369974162     1.007825032230
         H           -2.857359004074     1.066461058985     0.490763888168     1.007825032230
         H           -3.082679222947    -0.625693999978    -0.042340667670     1.007825032230
         H           -2.518127657705    -0.282593693092     1.610670772136     1.007825032230

  Charge       = 1
  Multiplicity = 1
  Basis Set: JUN-CC-PVDZ
    Blend: JUN-CC-PVDZ
  Basis Set: (JUN-CC-PVDZ AUX)
    Blend: JUN-CC-PVDZ-JKFIT

    Orbital Energies [Eh]
    ---------------------

    Doubly Occupied:

       1A    -15.834667     2A    -15.834128     3A    -11.529548
       4A    -11.459876     5A    -11.458323     6A    -11.449667
       7A    -11.449551     8A     -1.578242     9A     -1.433832
      10A     -1.238679    11A     -1.189313    12A     -1.118872
      13A     -1.022543    14A     -0.996975    15A     -0.917054
      16A     -0.850523    17A     -0.816266    18A     -0.813209
      19A     -0.790142    20A     -0.786230    21A     -0.781786
      22A     -0.729709    23A     -0.725787    24A     -0.717100
      25A     -0.596302    26A     -0.523867

  @DF-RHF Final Energy:  -303.29716474822459

   => Energetics <=

    Nuclear Repulsion Energy =            306.7749050263879553
    One-Electron Energy =               -1006.8599888458660416
    Two-Electron Energy =                 396.7879190712534978
    Total Energy =                       -303.2971647482245885
 Dipole X            :         -0.0008209            0.0006741           -0.0001468
 Dipole Y            :         -0.0473584            0.0560594            0.0087009
 Dipole Z            :         -1.4320153            1.8863481            0.4543327
 Magnitude           :                                                    0.4544161
*** Psi4 exiting successfully. Buy a developer a beer!
