                               Psi4 1.9 release

  ==> Input File <==

--------------------------------------------------------------------------
memory 32 GB # how much memory is available ! Depends on the nodes/cores !

molecule dimer {
# monomer A
-1 1    # Charge and multiplicity
B -1.977592e-04  2.742729e-04 5.800034
F  1.123153e-16  1.430594e-17 7.212819
F  1.147860e+00  6.757812e-01 5.328893
F  1.191806e-02 -1.332011e+00 5.329095
F -1.159666e+00  6.560735e-01 5.329174
--
# monomer B
0 1     # Charge and multiplicity
C   1.22531237526482      0.70753866091955      0.00613762728373
C   1.22532433589282     -0.70753852257020     -0.00619318228664
C   -0.00000567409046      1.41496628609039     -0.00672680580738
C   2.45644923379077      1.41832825917820      0.00902448468363
C   0.00001130712078     -1.41497612663474      0.00347275151708
C   -1.22530046906674      0.70754574598412      0.00838914760619
C   2.45643823516184     -1.41832293188077     -0.00843833914343
C   -0.00000085313587      2.83680140328112     -0.00913035594137
C   3.68182717731192      0.70931832800114     -0.00808954934571
C   2.45512052870677      2.83422403348893     -0.00819210630633
C   3.68182158506039     -0.70933346742900      0.00798293467272
C   -1.22531311884624     -0.70752714354401     -0.00512042085974
C   1.22670006104402      3.54346985599427      0.00816696660346
C   0.00000526469929     -2.83678176723568      0.00832091913869
C   -2.45643555300670      1.41831729028492      0.00842454345199
C   2.45512389762097     -2.83422965658853      0.00783102630520
C   -1.22671388474763      3.54346943575023      0.00827029982280
C   4.91451777504333      1.42717324448953     -0.00160886631602
C   3.69315067131765      3.54279566454522     -0.00155906667985
C   -2.45643712022637     -1.41831290883911     -0.00846337726810
C   1.22670532178455     -3.54347386990643     -0.00780316414624
C   -2.45512491866593      2.83421703463423     -0.00818572995999
C   4.91452486062398     -1.42718653794377      0.00136387641845
C   1.22142509354026      4.97013443726031      0.00150231067809
C   4.89300870916237      2.82518837202648     -0.00039219795739
C   -1.22669652864725     -3.54347062507680     -0.00753595973677
C   -3.68181849668397      0.70932533873199     -0.00807686886569
C   3.69314758099218     -3.54280096939050      0.00148176697923
C   -1.22143177215231      4.97012866986289      0.00168580605083
C   6.13477145276790      0.68054831910577     -0.00083909176631
C   3.65678936045204      4.97295361556775     -0.00065042889723
C   -2.45512642789169     -2.83421472106065      0.00758666850712
C   -3.68181869921921     -0.70932533146830      0.00810055625144
C   4.89301309775526     -2.82519973363176      0.00021895393805
C   -0.00000059327114      5.65044773803267      0.00045449734393
C   6.13477559217374     -0.68055448207492      0.00042622874941
C   2.47813196269732      5.65357712333155      0.00063835075260
C   1.22142288457925     -4.97012668293268     -0.00129718634452
C   -3.69316190412301      3.54279732619245     -0.00139355922051
C   -1.22142804110313     -4.97011793159564     -0.00140994817719
C   -4.91452132810043      1.42717581899491     -0.00153192130862
C   3.65678749952045     -4.97295485423912      0.00080007163680
C   -2.47813805026426      5.65357479452875      0.00092287576113
C   -3.69314125872231     -3.54278984697859      0.00136564082345
C   -4.91451200321153     -1.42718062802730      0.00139857359209
C   -0.00000552908399     -5.65043791501335      0.00005899322272
C   -4.89302000425900      2.82518897091939     -0.00040227981744
C   2.47812647313991     -5.65357317188818     -0.00029052915548
C   -3.65679823041642      4.97295655404175     -0.00047374852278
C   -4.89299899901461     -2.82519139505969      0.00006491824035
C   -2.47812801824129     -5.65356579800621     -0.00056571680280
C   -6.13477002348955      0.68054913825639     -0.00086464346868
C   -3.65678835334731     -4.97294365097028      0.00058578382008
C   -6.13476456307132     -0.68055354348201      0.00040575295444
H   5.83528897565761      3.36927626695423      0.00396712770529
H   7.07385965258860      1.22821762089947     -0.00037744837300
H   4.60066374401555      5.51238117445323     -0.00014522814529
H   5.83528386714679     -3.36930568472863     -0.00423551337640
H   -0.00001167146422      6.73853104613662     -0.00389474766392
H   7.07386165167227     -1.22822657074368     -0.00008250934481
H   2.47331421164041      6.74068466339473      0.00017162982210
H   4.60066897122302     -5.51237575717576      0.00039007446835
H   -2.47331820069565      6.74068209160650      0.00047297644710
H   -0.00000978838621     -6.73852780445195      0.00458867820736
H   -5.83530143450167      3.36927132229595      0.00410314985360
H   2.47330840367253     -6.74068500242887      0.00027980126949
H   -4.60067436136587      5.51237839860371      0.00002010017831
H   -5.83527902699321     -3.36928859177951     -0.00451481925734
H   -2.47329986759855     -6.74067870613986     -0.00016951527498
H   -7.07385728692578      1.22822084484047     -0.00046143985387
H   -4.60067330624313     -5.51236229778631      0.00021776644566
H   -7.07385645456741     -1.22822025997701     -0.00017736581114

    units angstrom      # Angstroms are the default
    no_reorient         # Geometry fixed, default
    symmetry c1         # C1 symmetry, default
}

set {
    scf_type DF         # Density fitting, faster than exact integrals
    freeze_core True    # Freeze core electrons
    basis jun-cc-pVDZ   # Jun-cc-pVDZ basis set, recommended for sSAPT0 in https://doi.org/10.1063/1.4867135
}

energy('ssapt0')        # Compute sSAPT0 energy, includes also SAPT0
--------------------------------------------------------------------------

  //              Dimer HF             //
    Molecular point group: c1
  Charge       = -1
  Multiplicity = 1
  Basis Set: JUN-CC-PVDZ
    Blend: JUN-CC-PVDZ
  Basis Set: (JUN-CC-PVDZ AUX)
    Blend: JUN-CC-PVDZ-JKFIT
  @DF-RHF Final Energy: -2478.65807551127091
    Total Energy =                      -2478.6580755112718180
 Dipole X            :         -0.0005460            0.0000481           -0.0004979
 Dipole Y            :          0.0010442           -0.0001453            0.0008989
 Dipole Z            :         26.7943808          -35.5557789           -8.7613981
 Magnitude           :                                                    8.7613982
  //            Monomer A HF           //
    Molecular point group: c1
  Multiplicity = 1
  Basis Set: JUN-CC-PVDZ
    Blend: JUN-CC-PVDZ
  Basis Set: (JUN-CC-PVDZ AUX)
    Blend: JUN-CC-PVDZ-JKFIT
  @DF-RHF Final Energy:  -422.77162997010294
    Total Energy =                       -422.7716299701029357
  //            Monomer B HF           //
    Molecular point group: c1

    Geometry (in Angstrom), charge = 0, multiplicity = 1:

       Center              X                  Y                   Z               Mass
    ------------   -----------------  -----------------  -----------------  -----------------
      Gh(B)          -0.000198161052     0.000273808717     5.130022137512    11.009305360000
      Gh(F)          -0.000000401852    -0.000000464183     6.542807137512    18.998403162730
      Gh(F)           1.147859598148     0.675780735817     4.658881137512    18.998403162730
      Gh(F)           0.011917658148    -1.332011464183     4.659083137512    18.998403162730
      Gh(F)          -1.159666401852     0.656073035817     4.659162137512    18.998403162730
         C            1.225311973413     0.707538196736    -0.663874235204    12.000000000000
         C            1.225323934041    -0.707538986754    -0.676205044774    12.000000000000
         C           -0.000006075942     1.414965821907    -0.676738668295    12.000000000000
         C            2.456448831939     1.418327794995    -0.660987377804    12.000000000000
         C            0.000010905269    -1.414976590818    -0.666539110971    12.000000000000
         C           -1.225300870919     0.707545281801    -0.661622714882    12.000000000000
         C            2.456437833310    -1.418323396064    -0.678450201631    12.000000000000
         C           -0.000001254988     2.836800939098    -0.679142218429    12.000000000000
         C            3.681826775460     0.709317863818    -0.678101411834    12.000000000000
         C            2.455120126855     2.834223569306    -0.678203968794    12.000000000000
         C            3.681821183209    -0.709333931612    -0.662028927815    12.000000000000
         C           -1.225313520698    -0.707527607727    -0.675132283348    12.000000000000
         C            1.226699659192     3.543469391811    -0.661844895884    12.000000000000
         C            0.000004862847    -2.836782231419    -0.661690943349    12.000000000000
         C           -2.456435954859     1.418316826102    -0.661587319036    12.000000000000
         C            2.455123495769    -2.834230120772    -0.662180836183    12.000000000000
         C           -1.226714286599     3.543468971567    -0.661741562665    12.000000000000
         C            4.914517373191     1.427172780306    -0.671620728804    12.000000000000
         C            3.693150269466     3.542795200362    -0.671570929168    12.000000000000
         C           -2.456437522078    -1.418313373022    -0.678475239756    12.000000000000
         C            1.226704919933    -3.543474334090    -0.677815026634    12.000000000000
         C           -2.455125320518     2.834216570451    -0.678197592448    12.000000000000
         C            4.914524458772    -1.427187002127    -0.668647986069    12.000000000000
         C            1.221424691688     4.970133973077    -0.668509551810    12.000000000000
         C            4.893008307311     2.825187907843    -0.670404060445    12.000000000000
         C           -1.226696930499    -3.543471089260    -0.677547822225    12.000000000000
         C           -3.681818898536     0.709324874549    -0.678088731354    12.000000000000
         C            3.693147179140    -3.542801433574    -0.668530095509    12.000000000000
         C           -1.221432174004     4.970128205680    -0.668326056437    12.000000000000
         C            6.134771050916     0.680547854922    -0.670850954254    12.000000000000
         C            3.656788958600     4.972953151384    -0.670662291385    12.000000000000
         C           -2.455126829744    -2.834215185244    -0.662425193981    12.000000000000
         C           -3.681819101071    -0.709325795652    -0.661911306236    12.000000000000
         C            4.893012695903    -2.825200197815    -0.669792908550    12.000000000000
         C           -0.000000995123     5.650447273849    -0.669557365144    12.000000000000
         C            6.134775190322    -0.680554946258    -0.669585633738    12.000000000000
         C            2.478131560845     5.653576659148    -0.669373511735    12.000000000000
         C            1.221422482727    -4.970127147116    -0.671309048832    12.000000000000
         C           -3.693162305975     3.542796862009    -0.671405421708    12.000000000000
         C           -1.221428442955    -4.970118395779    -0.671421810665    12.000000000000
         C           -4.914521729952     1.427175354812    -0.671543783796    12.000000000000
         C            3.656787097669    -4.972955318422    -0.669211790851    12.000000000000
         C           -2.478138452116     5.653574330345    -0.669088986727    12.000000000000
         C           -3.693141660574    -3.542790311162    -0.668646221664    12.000000000000
         C           -4.914512405063    -1.427181092211    -0.668613288896    12.000000000000
         C           -0.000005930936    -5.650438379197    -0.669952869265    12.000000000000
         C           -4.893020406111     2.825188506736    -0.670414142305    12.000000000000
         C            2.478126071288    -5.653573636072    -0.670302391643    12.000000000000
         C           -3.656798632268     4.972956089858    -0.670485611011    12.000000000000
         C           -4.892999400866    -2.825191859243    -0.669946944247    12.000000000000
         C           -2.478128420093    -5.653566262190    -0.670577579291    12.000000000000
         C           -6.134770425341     0.680548674073    -0.670876505957    12.000000000000
         C           -3.656788755199    -4.972944115154    -0.669426078668    12.000000000000
         C           -6.134764964923    -0.680554007665    -0.669606109533    12.000000000000
         H            5.835288573806     3.369275802771    -0.666044734783     1.007825032230
         H            7.073859250737     1.228217156716    -0.670389310861     1.007825032230
         H            4.600663342164     5.512380710270    -0.670157090633     1.007825032230
         H            5.835283465295    -3.369306148912    -0.674247375864     1.007825032230
         H           -0.000012073316     6.738530581953    -0.673906610152     1.007825032230
         H            7.073861249820    -1.228227034927    -0.670094371833     1.007825032230
         H            2.473313809789     6.740684199211    -0.669840232666     1.007825032230
         H            4.600668569371    -5.512376221359    -0.669621788019     1.007825032230
         H           -2.473318602548     6.740681627423    -0.669538886041     1.007825032230
         H           -0.000010190238    -6.738528268635    -0.665423184280     1.007825032230
         H           -5.835301836354     3.369270858113    -0.665908712634     1.007825032230
         H            2.473308001821    -6.740685466612    -0.669732061218     1.007825032230
         H           -4.600674763218     5.512377934420    -0.669991762310     1.007825032230
         H           -5.835279428845    -3.369289055963    -0.674526681745     1.007825032230
         H           -2.473300269450    -6.740679170323    -0.670181377763     1.007825032230
         H           -7.073857688778     1.228220380657    -0.670473302342     1.007825032230
         H           -4.600673708095    -5.512362761970    -0.669794096042     1.007825032230
         H           -7.073856856419    -1.228220724160    -0.670189228299     1.007825032230

  Charge       = 0
  Multiplicity = 1
  Basis Set: JUN-CC-PVDZ
    Blend: JUN-CC-PVDZ
  Basis Set: (JUN-CC-PVDZ AUX)
    Blend: JUN-CC-PVDZ-JKFIT

    Orbital Energies [Eh]
    ---------------------

    Doubly Occupied:

       1A    -11.260640     2A    -11.260197     3A    -11.260196
       4A    -11.259488     5A    -11.259488     6A    -11.259319
       7A    -11.259111     8A    -11.259033     9A    -11.259031
      10A    -11.258708    11A    -11.258704    12A    -11.258637
      13A    -11.258575    14A    -11.258570    15A    -11.258567
      16A    -11.258538    17A    -11.258533    18A    -11.258517
      19A    -11.258503    20A    -11.258498    21A    -11.258492
      22A    -11.258391    23A    -11.258388    24A    -11.258086
      25A    -11.257429    26A    -11.257367    27A    -11.257366
      28A    -11.257232    29A    -11.257231    30A    -11.257147
      31A    -11.256524    32A    -11.256453    33A    -11.256452
      34A    -11.256343    35A    -11.256343    36A    -11.256295
      37A    -11.252378    38A    -11.252378    39A    -11.252376
      40A    -11.252375    41A    -11.252373    42A    -11.252371
      43A    -11.251507    44A    -11.251505    45A    -11.251504
      46A    -11.251498    47A    -11.251497    48A    -11.251493
      49A    -11.250940    50A    -11.250939    51A    -11.250938
      52A    -11.250936    53A    -11.250934    54A    -11.250933
      55A     -1.244241    56A     -1.219974    57A     -1.219973
      58A     -1.189688    59A     -1.189681    60A     -1.181116
      61A     -1.157693    62A     -1.149122    63A     -1.135659
      64A     -1.135652    65A     -1.113326    66A     -1.113321
      67A     -1.082589    68A     -1.082581    69A     -1.078766
      70A     -1.066110    71A     -1.066106    72A     -1.039543
      73A     -1.024443    74A     -1.021941    75A     -1.021898
      76A     -1.017859    77A     -1.012921    78A     -0.987178
      79A     -0.987132    80A     -0.962016    81A     -0.961966
      82A     -0.894433    83A     -0.894407    84A     -0.888113
      85A     -0.886361    86A     -0.886303    87A     -0.881557
      88A     -0.881510    89A     -0.862039    90A     -0.837527
      91A     -0.818354    92A     -0.816783    93A     -0.812296
      94A     -0.812286    95A     -0.794822    96A     -0.794812
      97A     -0.746793    98A     -0.745021    99A     -0.733583
     100A     -0.733574   101A     -0.732320   102A     -0.732296
     103A     -0.716656   104A     -0.699115   105A     -0.699104
     106A     -0.693737   107A     -0.693721   108A     -0.661366
     109A     -0.653281   110A     -0.651328   111A     -0.650386
     112A     -0.650380   113A     -0.639497   114A     -0.639494
     115A     -0.629871   116A     -0.627682   117A     -0.627666
     118A     -0.606469   119A     -0.605913   120A     -0.601822
     121A     -0.599883   122A     -0.599851   123A     -0.593786
     124A     -0.591399   125A     -0.591388   126A     -0.585395
     127A     -0.576406   128A     -0.576401   129A     -0.567450
     130A     -0.567435   131A     -0.566118   132A     -0.566099
     133A     -0.558892   134A     -0.554987   135A     -0.554981
     136A     -0.538727   137A     -0.538726   138A     -0.538268
     139A     -0.538262   140A     -0.529860   141A     -0.528199
     142A     -0.523015   143A     -0.523008   144A     -0.500637
     145A     -0.495697   146A     -0.493373   147A     -0.487925
     148A     -0.485226   149A     -0.481907   150A     -0.481899
     151A     -0.470418   152A     -0.470399   153A     -0.451198
     154A     -0.451120   155A     -0.439167   156A     -0.439158
     157A     -0.404845   158A     -0.404822   159A     -0.403467
     160A     -0.375521   161A     -0.375518   162A     -0.349223
     163A     -0.337689   164A     -0.336655   165A     -0.336597
     166A     -0.311199   167A     -0.298191   168A     -0.284453
     169A     -0.284399   170A     -0.225023   171A     -0.224957

  @DF-RHF Final Energy: -2055.89199210452352

   => Energetics <=

    Nuclear Repulsion Energy =           6452.5568002797772351
    One-Electron Energy =              -15636.4382176627568697
    Two-Electron Energy =                7127.9894252784561104
    Total Energy =                      -2055.8919921045235242
 Dipole X            :          0.0000472            0.0000419            0.0000891
 Dipole Y            :          0.0000252           -0.0000426           -0.0000174
 Dipole Z            :        433.0163995         -433.0209539           -0.0045544
 Magnitude           :                                                    0.0045553

    SAPT Results
  --------------------------------------------------------------------------------------------------------
    Electrostatics                  9.60771318 [mEh]       6.02893104 [kcal/mol]      25.22504747 [kJ/mol]
      Elst10,r                      9.60771318 [mEh]       6.02893104 [kcal/mol]      25.22504747 [kJ/mol]

    Exchange                        0.00171931 [mEh]       0.00107888 [kcal/mol]       0.00451405 [kJ/mol]
      Exch10                        0.00171931 [mEh]       0.00107888 [kcal/mol]       0.00451405 [kJ/mol]
      Exch10(S^2)                   0.00171934 [mEh]       0.00107890 [kcal/mol]       0.00451412 [kJ/mol]

    Induction                      -4.06286913 [mEh]      -2.54948887 [kcal/mol]     -10.66706144 [kJ/mol]
      Ind20,r                      -4.10047659 [mEh]      -2.57308790 [kcal/mol]     -10.76579979 [kJ/mol]
      Exch-Ind20,r                  0.00149186 [mEh]       0.00093616 [kcal/mol]       0.00391687 [kJ/mol]
      delta HF,r (2)                0.03611559 [mEh]       0.02266288 [kcal/mol]       0.09482147 [kJ/mol]

    Dispersion                     -0.96685676 [mEh]      -0.60671178 [kcal/mol]      -2.53848208 [kJ/mol]
      Disp20                       -0.96861166 [mEh]      -0.60781299 [kcal/mol]      -2.54308957 [kJ/mol]
      Exch-Disp20                   0.00175490 [mEh]       0.00110122 [kcal/mol]       0.00460749 [kJ/mol]
      Disp20 (SS)                  -0.48430583 [mEh]      -0.30390650 [kcal/mol]      -1.27154478 [kJ/mol]
      Disp20 (OS)                  -0.48430583 [mEh]      -0.30390650 [kcal/mol]      -1.27154478 [kJ/mol]
      Exch-Disp20 (SS)              0.00134829 [mEh]       0.00084606 [kcal/mol]       0.00353992 [kJ/mol]
      Exch-Disp20 (OS)              0.00040661 [mEh]       0.00025515 [kcal/mol]       0.00106756 [kJ/mol]

  Total HF                          5.54656336 [mEh]       3.48052105 [kcal/mol]      14.56250008 [kJ/mol]
  Total SAPT0                       4.57970659 [mEh]       2.87380927 [kcal/mol]      12.02401800 [kJ/mol]

  Special recipe for scaled SAPT0 (see Manual):
    Electrostatics sSAPT0           9.60771318 [mEh]       6.02893104 [kcal/mol]      25.22504747 [kJ/mol]
    Exchange sSAPT0                 0.00171931 [mEh]       0.00107888 [kcal/mol]       0.00451405 [kJ/mol]
    Induction sSAPT0               -4.06286913 [mEh]      -2.54948887 [kcal/mol]     -10.66706144 [kJ/mol]
    Dispersion sSAPT0              -0.96685676 [mEh]      -0.60671178 [kcal/mol]      -2.53848208 [kJ/mol]
  Total sSAPT0                      4.57970659 [mEh]       2.87380927 [kcal/mol]      12.02401800 [kJ/mol]
  --------------------------------------------------------------------------------------------------------

*** Psi4 exiting successfully. Buy a developer a beer!
