                               Psi4 1.9 release

  ==> Input File <==

--------------------------------------------------------------------------
memory 32 GB # how much memory is available ! Depends on the nodes/cores !

molecule dimer {
# monomer A
-1 1    # Charge and multiplicity
B -1.977592e-04  2.742729e-04 -2.999966
F  1.123153e-16  1.430594e-17 -1.587181
F  1.147860e+00  6.757812e-01 -3.471107
F  1.191806e-02 -1.332011e+00 -3.470905
F -1.159666e+00  6.560735e-01 -3.470826
--
# monomer B
0 1     # Charge and multiplicity
C   1.22531237526482      0.70753866091955      0.00613762728373
C   1.22532433589282     -0.70753852257020     -0.00619318228664
C   -0.00000567409046      1.41496628609039     -0.00672680580738
C   2.45644923379077      1.41832825917820      0.00902448468363
C   0.00001130712078     -1.41497612663474      0.00347275151708
C   -1.22530046906674      0.70754574598412      0.00838914760619
C   2.45643823516184     -1.41832293188077     -0.00843833914343
C   -0.00000085313587      2.83680140328112     -0.00913035594137
C   3.68182717731192      0.70931832800114     -0.00808954934571
C   2.45512052870677      2.83422403348893     -0.00819210630633
C   3.68182158506039     -0.70933346742900      0.00798293467272
C   -1.22531311884624     -0.70752714354401     -0.00512042085974
C   1.22670006104402      3.54346985599427      0.00816696660346
C   0.00000526469929     -2.83678176723568      0.00832091913869
C   -2.45643555300670      1.41831729028492      0.00842454345199
C   2.45512389762097     -2.83422965658853      0.00783102630520
C   -1.22671388474763      3.54346943575023      0.00827029982280
C   4.91451777504333      1.42717324448953     -0.00160886631602
C   3.69315067131765      3.54279566454522     -0.00155906667985
C   -2.45643712022637     -1.41831290883911     -0.00846337726810
C   1.22670532178455     -3.54347386990643     -0.00780316414624
C   -2.45512491866593      2.83421703463423     -0.00818572995999
C   4.91452486062398     -1.42718653794377      0.00136387641845
C   1.22142509354026      4.97013443726031      0.00150231067809
C   4.89300870916237      2.82518837202648     -0.00039219795739
C   -1.22669652864725     -3.54347062507680     -0.00753595973677
C   -3.68181849668397      0.70932533873199     -0.00807686886569
C   3.69314758099218     -3.54280096939050      0.00148176697923
C   -1.22143177215231      4.97012866986289      0.00168580605083
C   6.13477145276790      0.68054831910577     -0.00083909176631
C   3.65678936045204      4.97295361556775     -0.00065042889723
C   -2.45512642789169     -2.83421472106065      0.00758666850712
C   -3.68181869921921     -0.70932533146830      0.00810055625144
C   4.89301309775526     -2.82519973363176      0.00021895393805
C   -0.00000059327114      5.65044773803267      0.00045449734393
C   6.13477559217374     -0.68055448207492      0.00042622874941
C   2.47813196269732      5.65357712333155      0.00063835075260
C   1.22142288457925     -4.97012668293268     -0.00129718634452
C   -3.69316190412301      3.54279732619245     -0.00139355922051
C   -1.22142804110313     -4.97011793159564     -0.00140994817719
C   -4.91452132810043      1.42717581899491     -0.00153192130862
C   3.65678749952045     -4.97295485423912      0.00080007163680
C   -2.47813805026426      5.65357479452875      0.00092287576113
C   -3.69314125872231     -3.54278984697859      0.00136564082345
C   -4.91451200321153     -1.42718062802730      0.00139857359209
C   -0.00000552908399     -5.65043791501335      0.00005899322272
C   -4.89302000425900      2.82518897091939     -0.00040227981744
C   2.47812647313991     -5.65357317188818     -0.00029052915548
C   -3.65679823041642      4.97295655404175     -0.00047374852278
C   -4.89299899901461     -2.82519139505969      0.00006491824035
C   -2.47812801824129     -5.65356579800621     -0.00056571680280
C   -6.13477002348955      0.68054913825639     -0.00086464346868
C   -3.65678835334731     -4.97294365097028      0.00058578382008
C   -6.13476456307132     -0.68055354348201      0.00040575295444
H   5.83528897565761      3.36927626695423      0.00396712770529
H   7.07385965258860      1.22821762089947     -0.00037744837300
H   4.60066374401555      5.51238117445323     -0.00014522814529
H   5.83528386714679     -3.36930568472863     -0.00423551337640
H   -0.00001167146422      6.73853104613662     -0.00389474766392
H   7.07386165167227     -1.22822657074368     -0.00008250934481
H   2.47331421164041      6.74068466339473      0.00017162982210
H   4.60066897122302     -5.51237575717576      0.00039007446835
H   -2.47331820069565      6.74068209160650      0.00047297644710
H   -0.00000978838621     -6.73852780445195      0.00458867820736
H   -5.83530143450167      3.36927132229595      0.00410314985360
H   2.47330840367253     -6.74068500242887      0.00027980126949
H   -4.60067436136587      5.51237839860371      0.00002010017831
H   -5.83527902699321     -3.36928859177951     -0.00451481925734
H   -2.47329986759855     -6.74067870613986     -0.00016951527498
H   -7.07385728692578      1.22822084484047     -0.00046143985387
H   -4.60067330624313     -5.51236229778631      0.00021776644566
H   -7.07385645456741     -1.22822025997701     -0.00017736581114

    units angstrom      # Angstroms are the default
    no_reorient         # Geometry fixed, default
    symmetry c1         # C1 symmetry, default
}

set {
    scf_type DF         # Density fitting, faster than exact integrals
    freeze_core True    # Freeze core electrons
    basis jun-cc-pVDZ   # Jun-cc-pVDZ basis set, recommended for sSAPT0 in https://doi.org/10.1063/1.4867135
}

energy('ssapt0')        # Compute sSAPT0 energy, includes also SAPT0
--------------------------------------------------------------------------

  //              Dimer HF             //
    Molecular point group: c1
  Charge       = -1
  Multiplicity = 1
  Basis Set: JUN-CC-PVDZ
    Blend: JUN-CC-PVDZ
  Basis Set: (JUN-CC-PVDZ AUX)
    Blend: JUN-CC-PVDZ-JKFIT
  @DF-RHF Final Energy: -2478.54035012572058
    Total Energy =                      -2478.5403501257205789
 Dipole X            :         -0.0004031            0.0000481           -0.0003551
 Dipole Y            :          0.0007526           -0.0001453            0.0006073
 Dipole Z            :        -15.0608974           18.3911561            3.3302587
 Magnitude           :                                                    3.3302588
  //            Monomer A HF           //
    Molecular point group: c1
  Multiplicity = 1
  Basis Set: JUN-CC-PVDZ
    Blend: JUN-CC-PVDZ
  Basis Set: (JUN-CC-PVDZ AUX)
    Blend: JUN-CC-PVDZ-JKFIT
  @DF-RHF Final Energy:  -422.77501911562655
    Total Energy =                       -422.7750191156265487
  //            Monomer B HF           //
    Molecular point group: c1

    Geometry (in Angstrom), charge = 0, multiplicity = 1:

       Center              X                  Y                   Z               Mass
    ------------   -----------------  -----------------  -----------------  -----------------
      Gh(B)          -0.000198161052     0.000273808717    -2.653404785174    11.009305360000
      Gh(F)          -0.000000401852    -0.000000464183    -1.240619785174    18.998403162730
      Gh(F)           1.147859598148     0.675780735817    -3.124545785174    18.998403162730
      Gh(F)           0.011917658148    -1.332011464183    -3.124343785174    18.998403162730
      Gh(F)          -1.159666401852     0.656073035817    -3.124264785174    18.998403162730
         C            1.225311973413     0.707538196736     0.352698842109    12.000000000000
         C            1.225323934041    -0.707538986754     0.340368032539    12.000000000000
         C           -0.000006075942     1.414965821907     0.339834409018    12.000000000000
         C            2.456448831939     1.418327794995     0.355585699509    12.000000000000
         C            0.000010905269    -1.414976590818     0.350033966343    12.000000000000
         C           -1.225300870919     0.707545281801     0.354950362432    12.000000000000
         C            2.456437833310    -1.418323396064     0.338122875682    12.000000000000
         C           -0.000001254988     2.836800939098     0.337430858884    12.000000000000
         C            3.681826775460     0.709317863818     0.338471665480    12.000000000000
         C            2.455120126855     2.834223569306     0.338369108519    12.000000000000
         C            3.681821183209    -0.709333931612     0.354544149498    12.000000000000
         C           -1.225313520698    -0.707527607727     0.341440793966    12.000000000000
         C            1.226699659192     3.543469391811     0.354728181429    12.000000000000
         C            0.000004862847    -2.836782231419     0.354882133964    12.000000000000
         C           -2.456435954859     1.418316826102     0.354985758278    12.000000000000
         C            2.455123495769    -2.834230120772     0.354392241131    12.000000000000
         C           -1.226714286599     3.543468971567     0.354831514648    12.000000000000
         C            4.914517373191     1.427172780306     0.344952348510    12.000000000000
         C            3.693150269466     3.542795200362     0.345002148146    12.000000000000
         C           -2.456437522078    -1.418313373022     0.338097837558    12.000000000000
         C            1.226704919933    -3.543474334090     0.338758050679    12.000000000000
         C           -2.455125320518     2.834216570451     0.338375484866    12.000000000000
         C            4.914524458772    -1.427187002127     0.347925091244    12.000000000000
         C            1.221424691688     4.970133973077     0.348063525504    12.000000000000
         C            4.893008307311     2.825187907843     0.346169016868    12.000000000000
         C           -1.226696930499    -3.543471089260     0.339025255089    12.000000000000
         C           -3.681818898536     0.709324874549     0.338484345960    12.000000000000
         C            3.693147179140    -3.542801433574     0.348042981805    12.000000000000
         C           -1.221432174004     4.970128205680     0.348247020876    12.000000000000
         C            6.134771050916     0.680547854922     0.345722123059    12.000000000000
         C            3.656788958600     4.972953151384     0.345910785928    12.000000000000
         C           -2.455126829744    -2.834215185244     0.354147883333    12.000000000000
         C           -3.681819101071    -0.709325795652     0.354661771077    12.000000000000
         C            4.893012695903    -2.825200197815     0.346780168764    12.000000000000
         C           -0.000000995123     5.650447273849     0.347015712170    12.000000000000
         C            6.134775190322    -0.680554946258     0.346987443575    12.000000000000
         C            2.478131560845     5.653576659148     0.347199565578    12.000000000000
         C            1.221422482727    -4.970127147116     0.345264028481    12.000000000000
         C           -3.693162305975     3.542796862009     0.345167655605    12.000000000000
         C           -1.221428442955    -4.970118395779     0.345151266648    12.000000000000
         C           -4.914521729952     1.427175354812     0.345029293517    12.000000000000
         C            3.656787097669    -4.972955318422     0.347361286462    12.000000000000
         C           -2.478138452116     5.653574330345     0.347484090587    12.000000000000
         C           -3.693141660574    -3.542790311162     0.347926855649    12.000000000000
         C           -4.914512405063    -1.427181092211     0.347959788418    12.000000000000
         C           -0.000005930936    -5.650438379197     0.346620208048    12.000000000000
         C           -4.893020406111     2.825188506736     0.346158935008    12.000000000000
         C            2.478126071288    -5.653573636072     0.346270685670    12.000000000000
         C           -3.656798632268     4.972956089858     0.346087466303    12.000000000000
         C           -4.892999400866    -2.825191859243     0.346626133066    12.000000000000
         C           -2.478128420093    -5.653566262190     0.345995498023    12.000000000000
         C           -6.134770425341     0.680548674073     0.345696571357    12.000000000000
         C           -3.656788755199    -4.972944115154     0.347146998646    12.000000000000
         C           -6.134764964923    -0.680554007665     0.346966967780    12.000000000000
         H            5.835288573806     3.369275802771     0.350528342531     1.007825032230
         H            7.073859250737     1.228217156716     0.346183766453     1.007825032230
         H            4.600663342164     5.512380710270     0.346415986680     1.007825032230
         H            5.835283465295    -3.369306148912     0.342325701449     1.007825032230
         H           -0.000012073316     6.738530581953     0.342666467162     1.007825032230
         H            7.073861249820    -1.228227034927     0.346478705481     1.007825032230
         H            2.473313809789     6.740684199211     0.346732844648     1.007825032230
         H            4.600668569371    -5.512376221359     0.346951289294     1.007825032230
         H           -2.473318602548     6.740681627423     0.347034191273     1.007825032230
         H           -0.000010190238    -6.738528268635     0.351149893033     1.007825032230
         H           -5.835301836354     3.369270858113     0.350664364679     1.007825032230
         H            2.473308001821    -6.740685466612     0.346841016095     1.007825032230
         H           -4.600674763218     5.512377934420     0.346581315004     1.007825032230
         H           -5.835279428845    -3.369289055963     0.342046395568     1.007825032230
         H           -2.473300269450    -6.740679170323     0.346391699551     1.007825032230
         H           -7.073857688778     1.228220380657     0.346099774972     1.007825032230
         H           -4.600673708095    -5.512362761970     0.346778981271     1.007825032230
         H           -7.073856856419    -1.228220724160     0.346383849015     1.007825032230

  Charge       = 0
  Multiplicity = 1
  Basis Set: JUN-CC-PVDZ
    Blend: JUN-CC-PVDZ
  Basis Set: (JUN-CC-PVDZ AUX)
    Blend: JUN-CC-PVDZ-JKFIT

    Orbital Energies [Eh]
    ---------------------

    Doubly Occupied:

       1A    -11.260720     2A    -11.260261     3A    -11.260258
       4A    -11.259464     5A    -11.259463     6A    -11.259251
       7A    -11.258993     8A    -11.258925     9A    -11.258924
      10A    -11.258627    11A    -11.258623    12A    -11.258490
      13A    -11.258444    14A    -11.258439    15A    -11.258432
      16A    -11.258397    17A    -11.258391    18A    -11.258373
      19A    -11.258370    20A    -11.258366    21A    -11.258360
      22A    -11.258311    23A    -11.258306    24A    -11.258104
      25A    -11.257270    26A    -11.257210    27A    -11.257209
      28A    -11.257077    29A    -11.257076    30A    -11.256994
      31A    -11.256361    32A    -11.256292    33A    -11.256291
      34A    -11.256184    35A    -11.256183    36A    -11.256137
      37A    -11.252260    38A    -11.252259    39A    -11.252258
      40A    -11.252257    41A    -11.252254    42A    -11.252253
      43A    -11.251359    44A    -11.251358    45A    -11.251358
      46A    -11.251341    47A    -11.251340    48A    -11.251337
      49A    -11.250822    50A    -11.250821    51A    -11.250819
      52A    -11.250817    53A    -11.250815    54A    -11.250814
      55A     -1.243958    56A     -1.219740    57A     -1.219740
      58A     -1.189487    59A     -1.189480    60A     -1.180849
      61A     -1.157520    62A     -1.148929    63A     -1.135402
      64A     -1.135395    65A     -1.113153    66A     -1.113149
      67A     -1.082356    68A     -1.082348    69A     -1.078521
      70A     -1.065946    71A     -1.065943    72A     -1.039343
      73A     -1.024184    74A     -1.021665    75A     -1.021622
      76A     -1.017694    77A     -1.012764    78A     -0.986950
      79A     -0.986904    80A     -0.961833    81A     -0.961784
      82A     -0.894242    83A     -0.894216    84A     -0.887840
      85A     -0.886089    86A     -0.886031    87A     -0.881324
      88A     -0.881276    89A     -0.861848    90A     -0.837388
      91A     -0.818157    92A     -0.816526    93A     -0.812058
      94A     -0.812048    95A     -0.794646    96A     -0.794635
      97A     -0.746548    98A     -0.744781    99A     -0.733326
     100A     -0.733317   101A     -0.732135   102A     -0.732112
     103A     -0.716427   104A     -0.698924   105A     -0.698913
     106A     -0.693521   107A     -0.693505   108A     -0.661184
     109A     -0.653007   110A     -0.651064   111A     -0.650212
     112A     -0.650206   113A     -0.639317   114A     -0.639314
     115A     -0.629648   116A     -0.627446   117A     -0.627431
     118A     -0.606467   119A     -0.605792   120A     -0.601587
     121A     -0.599680   122A     -0.599649   123A     -0.593580
     124A     -0.591111   125A     -0.591100   126A     -0.585254
     127A     -0.576374   128A     -0.576368   129A     -0.567290
     130A     -0.567276   131A     -0.565872   132A     -0.565853
     133A     -0.558634   134A     -0.554792   135A     -0.554786
     136A     -0.538550   137A     -0.538548   138A     -0.538152
     139A     -0.538146   140A     -0.529666   141A     -0.528195
     142A     -0.522818   143A     -0.522811   144A     -0.500461
     145A     -0.495570   146A     -0.493189   147A     -0.487811
     148A     -0.485010   149A     -0.481693   150A     -0.481685
     151A     -0.470369   152A     -0.470351   153A     -0.450921
     154A     -0.450843   155A     -0.439042   156A     -0.439033
     157A     -0.404691   158A     -0.404668   159A     -0.403356
     160A     -0.375409   161A     -0.375406   162A     -0.349087
     163A     -0.337529   164A     -0.336530   165A     -0.336472
     166A     -0.311037   167A     -0.298104   168A     -0.284283
     169A     -0.284229   170A     -0.224857   171A     -0.224791

  @DF-RHF Final Energy: -2055.89444154362718

   => Energetics <=

    Nuclear Repulsion Energy =           6452.5568002797772351
    One-Electron Energy =              -15636.5000184600066859
    Two-Electron Energy =                7128.0487766366022697
    Total Energy =                      -2055.8944415436271811
 Dipole X            :          0.0000172            0.0000419            0.0000591
 Dipole Y            :          0.0000617           -0.0000426            0.0000192
 Dipole Z            :       -223.9773555          223.9763344           -0.0010211
 Magnitude           :                                                    0.0010230

    SAPT Results
  --------------------------------------------------------------------------------------------------------
    Electrostatics                -90.97200587 [mEh]     -57.08579553 [kcal/mol]    -238.84696852 [kJ/mol]
      Elst10,r                    -90.97200587 [mEh]     -57.08579553 [kcal/mol]    -238.84696852 [kJ/mol]

    Exchange                      251.35668656 [mEh]     157.72870211 [kcal/mol]     659.93688965 [kJ/mol]
      Exch10                      251.35668656 [mEh]     157.72870211 [kcal/mol]     659.93688965 [kJ/mol]
      Exch10(S^2)                 245.07723578 [mEh]     153.78828726 [kcal/mol]     643.45019390 [kJ/mol]

    Induction                     -31.27414715 [mEh]     -19.62482362 [kcal/mol]     -82.11026204 [kJ/mol]
      Ind20,r                    -135.93170237 [mEh]     -85.29843102 [kcal/mol]    -356.88863540 [kJ/mol]
      Exch-Ind20,r                101.08012971 [mEh]      63.42873900 [kcal/mol]     265.38584400 [kJ/mol]
      delta HF,r (2)                3.57742550 [mEh]       2.24486839 [kcal/mol]       9.39252936 [kJ/mol]

    Dispersion                    -36.10598162 [mEh]     -22.65684552 [kcal/mol]     -94.79624167 [kJ/mol]
      Disp20                      -53.23414362 [mEh]     -33.40492945 [kcal/mol]    -139.76622482 [kJ/mol]
      Exch-Disp20                  17.12816200 [mEh]      10.74808393 [kcal/mol]      44.96998314 [kJ/mol]
      Disp20 (SS)                 -26.61707181 [mEh]     -16.70246472 [kcal/mol]     -69.88311241 [kJ/mol]
      Disp20 (OS)                 -26.61707181 [mEh]     -16.70246472 [kcal/mol]     -69.88311241 [kJ/mol]
      Exch-Disp20 (SS)              8.87265515 [mEh]       5.56767517 [kcal/mol]      23.29515289 [kJ/mol]
      Exch-Disp20 (OS)              8.25550685 [mEh]       5.18040876 [kcal/mol]      21.67483025 [kJ/mol]

  Total HF                        129.11053353 [mEh]      81.01808296 [kcal/mol]     338.97965909 [kJ/mol]
  Total SAPT0                      93.00455192 [mEh]      58.36123743 [kcal/mol]     244.18341742 [kJ/mol]

  Special recipe for scaled SAPT0 (see Manual):
    Electrostatics sSAPT0         -90.97200587 [mEh]     -57.08579553 [kcal/mol]    -238.84696852 [kJ/mol]
    Exchange sSAPT0               251.35668656 [mEh]     157.72870211 [kcal/mol]     659.93688965 [kJ/mol]
    Induction sSAPT0              -23.30364183 [mEh]     -14.62325602 [kcal/mol]     -61.18370318 [kJ/mol]
    Dispersion sSAPT0             -34.75536892 [mEh]     -21.80932326 [kcal/mol]     -91.25020853 [kJ/mol]
  Total sSAPT0                    102.32566994 [mEh]      64.21032730 [kcal/mol]     268.65600942 [kJ/mol]
  --------------------------------------------------------------------------------------------------------

*** Psi4 exiting successfully. Buy a developer a beer!
