                               Psi4 1.9 release

  ==> Input File <==

--------------------------------------------------------------------------
memory 32 GB # how much memory is available ! Depends on the nodes/cores !

molecule dimer {
# monomer A
+1 1    # Charge and multiplicity
C  0.680067 -1.215929 2.608042
C -0.680504 -1.215545 2.606014
N -1.085635  0.102779 2.605016
C  0.000108  0.884180 2.601740
C -2.477365  0.570758 2.555610
N  1.085222  0.102779 2.605016
H  1.385146 -2.033368 2.615870
H -1.385302 -2.033214 2.606204
H -0.000009  1.965269 2.599993
C  2.478117  0.567877 2.621908
H  2.490592  1.658130 2.594563
H  2.967028  0.220701 3.535354
H  3.001428  0.176405 1.746425
H -2.857359  0.490799 1.533539
H -3.082679 -0.042306 3.225694
H -2.518128  1.610706 2.882594
--
# monomer B
0 1     # Charge and multiplicity
C   1.22531237526482      0.70753866091955      0.00613762728373
C   1.22532433589282     -0.70753852257020     -0.00619318228664
C   -0.00000567409046      1.41496628609039     -0.00672680580738
C   2.45644923379077      1.41832825917820      0.00902448468363
C   0.00001130712078     -1.41497612663474      0.00347275151708
C   -1.22530046906674      0.70754574598412      0.00838914760619
C   2.45643823516184     -1.41832293188077     -0.00843833914343
C   -0.00000085313587      2.83680140328112     -0.00913035594137
C   3.68182717731192      0.70931832800114     -0.00808954934571
C   2.45512052870677      2.83422403348893     -0.00819210630633
C   3.68182158506039     -0.70933346742900      0.00798293467272
C   -1.22531311884624     -0.70752714354401     -0.00512042085974
C   1.22670006104402      3.54346985599427      0.00816696660346
C   0.00000526469929     -2.83678176723568      0.00832091913869
C   -2.45643555300670      1.41831729028492      0.00842454345199
C   2.45512389762097     -2.83422965658853      0.00783102630520
C   -1.22671388474763      3.54346943575023      0.00827029982280
C   4.91451777504333      1.42717324448953     -0.00160886631602
C   3.69315067131765      3.54279566454522     -0.00155906667985
C   -2.45643712022637     -1.41831290883911     -0.00846337726810
C   1.22670532178455     -3.54347386990643     -0.00780316414624
C   -2.45512491866593      2.83421703463423     -0.00818572995999
C   4.91452486062398     -1.42718653794377      0.00136387641845
C   1.22142509354026      4.97013443726031      0.00150231067809
C   4.89300870916237      2.82518837202648     -0.00039219795739
C   -1.22669652864725     -3.54347062507680     -0.00753595973677
C   -3.68181849668397      0.70932533873199     -0.00807686886569
C   3.69314758099218     -3.54280096939050      0.00148176697923
C   -1.22143177215231      4.97012866986289      0.00168580605083
C   6.13477145276790      0.68054831910577     -0.00083909176631
C   3.65678936045204      4.97295361556775     -0.00065042889723
C   -2.45512642789169     -2.83421472106065      0.00758666850712
C   -3.68181869921921     -0.70932533146830      0.00810055625144
C   4.89301309775526     -2.82519973363176      0.00021895393805
C   -0.00000059327114      5.65044773803267      0.00045449734393
C   6.13477559217374     -0.68055448207492      0.00042622874941
C   2.47813196269732      5.65357712333155      0.00063835075260
C   1.22142288457925     -4.97012668293268     -0.00129718634452
C   -3.69316190412301      3.54279732619245     -0.00139355922051
C   -1.22142804110313     -4.97011793159564     -0.00140994817719
C   -4.91452132810043      1.42717581899491     -0.00153192130862
C   3.65678749952045     -4.97295485423912      0.00080007163680
C   -2.47813805026426      5.65357479452875      0.00092287576113
C   -3.69314125872231     -3.54278984697859      0.00136564082345
C   -4.91451200321153     -1.42718062802730      0.00139857359209
C   -0.00000552908399     -5.65043791501335      0.00005899322272
C   -4.89302000425900      2.82518897091939     -0.00040227981744
C   2.47812647313991     -5.65357317188818     -0.00029052915548
C   -3.65679823041642      4.97295655404175     -0.00047374852278
C   -4.89299899901461     -2.82519139505969      0.00006491824035
C   -2.47812801824129     -5.65356579800621     -0.00056571680280
C   -6.13477002348955      0.68054913825639     -0.00086464346868
C   -3.65678835334731     -4.97294365097028      0.00058578382008
C   -6.13476456307132     -0.68055354348201      0.00040575295444
H   5.83528897565761      3.36927626695423      0.00396712770529
H   7.07385965258860      1.22821762089947     -0.00037744837300
H   4.60066374401555      5.51238117445323     -0.00014522814529
H   5.83528386714679     -3.36930568472863     -0.00423551337640
H   -0.00001167146422      6.73853104613662     -0.00389474766392
H   7.07386165167227     -1.22822657074368     -0.00008250934481
H   2.47331421164041      6.74068466339473      0.00017162982210
H   4.60066897122302     -5.51237575717576      0.00039007446835
H   -2.47331820069565      6.74068209160650      0.00047297644710
H   -0.00000978838621     -6.73852780445195      0.00458867820736
H   -5.83530143450167      3.36927132229595      0.00410314985360
H   2.47330840367253     -6.74068500242887      0.00027980126949
H   -4.60067436136587      5.51237839860371      0.00002010017831
H   -5.83527902699321     -3.36928859177951     -0.00451481925734
H   -2.47329986759855     -6.74067870613986     -0.00016951527498
H   -7.07385728692578      1.22822084484047     -0.00046143985387
H   -4.60067330624313     -5.51236229778631      0.00021776644566
H   -7.07385645456741     -1.22822025997701     -0.00017736581114

    units angstrom      # Angstroms are the default
    no_reorient         # Geometry fixed, default
    symmetry c1         # C1 symmetry, default
}

set {
    scf_type DF         # Density fitting, faster than exact integrals
    freeze_core True    # Freeze core electrons
    basis jun-cc-pVDZ   # Jun-cc-pVDZ basis set, recommended for sSAPT0 in https://doi.org/10.1063/1.4867135
}

energy('ssapt0')        # Compute sSAPT0 energy, includes also SAPT0
--------------------------------------------------------------------------

  //              Dimer HF             //
    Molecular point group: c1
  Charge       = 1
  Multiplicity = 1
  Basis Set: JUN-CC-PVDZ
    Blend: JUN-CC-PVDZ
  Basis Set: (JUN-CC-PVDZ AUX)
    Blend: JUN-CC-PVDZ-JKFIT
  @DF-RHF Final Energy: -2359.05928789393602
    Total Energy =                      -2359.0592878939369257
 Dipole X            :          0.0072412            0.0006313            0.0078725
 Dipole Y            :         -1.7182600            1.8864948            0.1682349
 Dipole Z            :        -11.0678120           13.4970720            2.4292600
 Magnitude           :                                                    2.4350911
  //            Monomer A HF           //
    Molecular point group: c1
  Multiplicity = 1
  Basis Set: JUN-CC-PVDZ
    Blend: JUN-CC-PVDZ
  Basis Set: (JUN-CC-PVDZ AUX)
    Blend: JUN-CC-PVDZ-JKFIT
  @DF-RHF Final Energy:  -303.30050025973571
    Total Energy =                       -303.3005002597357134
  //            Monomer B HF           //
    Molecular point group: c1

    Geometry (in Angstrom), charge = 0, multiplicity = 1:

       Center              X                  Y                   Z               Mass
    ------------   -----------------  -----------------  -----------------  -----------------
      Gh(C)           0.680066520158    -1.215933861162     2.277340132920    12.000000000000
      Gh(C)          -0.680504479842    -1.215549861162     2.275312132920    12.000000000000
      Gh(N)          -1.085635479842     0.102774138838     2.274314132920    14.003074004430
      Gh(C)           0.000107520158     0.884175138838     2.271038132920    12.000000000000
      Gh(C)          -2.477365479842     0.570753138838     2.224908132920    12.000000000000
      Gh(N)           1.085221520158     0.102774138838     2.274314132920    14.003074004430
      Gh(H)           1.385145520158    -2.033372861162     2.285168132920     1.007825032230
      Gh(H)          -1.385302479842    -2.033218861162     2.275502132920     1.007825032230
      Gh(H)          -0.000009479842     1.965264138838     2.269291132920     1.007825032230
      Gh(C)           2.478116520158     0.567872138838     2.291206132920    12.000000000000
      Gh(H)           2.490591520158     1.658125138838     2.263861132920     1.007825032230
      Gh(H)           2.967027520158     0.220696138838     3.204652132920     1.007825032230
      Gh(H)           3.001427520158     0.176400138838     1.415723132920     1.007825032230
      Gh(H)          -2.857359479842     0.490794138838     1.202837132920     1.007825032230
      Gh(H)          -3.082679479842    -0.042310861162     2.894992132920     1.007825032230
      Gh(H)          -2.518128479842     1.610701138838     2.551892132920     1.007825032230
         C            1.225311895423     0.707533799757    -0.324564239797    12.000000000000
         C            1.225323856051    -0.707543383733    -0.336895049367    12.000000000000
         C           -0.000006153932     1.414961424928    -0.337428672888    12.000000000000
         C            2.456448753949     1.418323398016    -0.321677382397    12.000000000000
         C            0.000010827279    -1.414980987797    -0.327229115563    12.000000000000
         C           -1.225300948908     0.707540884822    -0.322312719474    12.000000000000
         C            2.456437755320    -1.418327793043    -0.339140206224    12.000000000000
         C           -0.000001332978     2.836796542119    -0.339832223022    12.000000000000
         C            3.681826697470     0.709313466839    -0.338791416426    12.000000000000
         C            2.455120048865     2.834219172327    -0.338893973387    12.000000000000
         C            3.681821105219    -0.709338328591    -0.322718932408    12.000000000000
         C           -1.225313598688    -0.707532004706    -0.335822287940    12.000000000000
         C            1.226699581202     3.543464994832    -0.322534900477    12.000000000000
         C            0.000004784858    -2.836786628398    -0.322380947942    12.000000000000
         C           -2.456436032848     1.418312429123    -0.322277323628    12.000000000000
         C            2.455123417779    -2.834234517751    -0.322870840775    12.000000000000
         C           -1.226714364589     3.543464574588    -0.322431567258    12.000000000000
         C            4.914517295202     1.427168383327    -0.332310733396    12.000000000000
         C            3.693150191476     3.542790803383    -0.332260933760    12.000000000000
         C           -2.456437600068    -1.418317770001    -0.339165244349    12.000000000000
         C            1.226704841943    -3.543478731069    -0.338505031227    12.000000000000
         C           -2.455125398508     2.834212173472    -0.338887597040    12.000000000000
         C            4.914524380782    -1.427191399106    -0.329337990662    12.000000000000
         C            1.221424613699     4.970129576098    -0.329199556402    12.000000000000
         C            4.893008229321     2.825183510864    -0.331094065038    12.000000000000
         C           -1.226697008489    -3.543475486239    -0.338237826817    12.000000000000
         C           -3.681818976526     0.709320477570    -0.338778735946    12.000000000000
         C            3.693147101150    -3.542805830553    -0.329220100101    12.000000000000
         C           -1.221432251994     4.970123808701    -0.329016061030    12.000000000000
         C            6.134770972926     0.680543457943    -0.331540958847    12.000000000000
         C            3.656788880610     4.972948754405    -0.331352295978    12.000000000000
         C           -2.455126907733    -2.834219582223    -0.323115198573    12.000000000000
         C           -3.681819179061    -0.709330192631    -0.322601310829    12.000000000000
         C            4.893012617914    -2.825204594794    -0.330482913142    12.000000000000
         C           -0.000001073113     5.650442876870    -0.330247369737    12.000000000000
         C            6.134775112332    -0.680559343237    -0.330275638331    12.000000000000
         C            2.478131482856     5.653572262169    -0.330063516328    12.000000000000
         C            1.221422404738    -4.970131544095    -0.331999053425    12.000000000000
         C           -3.693162383965     3.542792465030    -0.332095426301    12.000000000000
         C           -1.221428520945    -4.970122792758    -0.332111815258    12.000000000000
         C           -4.914521807942     1.427170957833    -0.332233788389    12.000000000000
         C            3.656787019679    -4.972959715401    -0.329901795444    12.000000000000
         C           -2.478138530106     5.653569933366    -0.329778991319    12.000000000000
         C           -3.693141738564    -3.542794708141    -0.329336226257    12.000000000000
         C           -4.914512483053    -1.427185489190    -0.329303293488    12.000000000000
         C           -0.000006008926    -5.650442776176    -0.330642873858    12.000000000000
         C           -4.893020484101     2.825184109757    -0.331104146898    12.000000000000
         C            2.478125993298    -5.653578033051    -0.330992396236    12.000000000000
         C           -3.656798710258     4.972951692879    -0.331175615603    12.000000000000
         C           -4.892999478856    -2.825196256222    -0.330636948840    12.000000000000
         C           -2.478128498083    -5.653570659169    -0.331267583883    12.000000000000
         C           -6.134770503331     0.680544277094    -0.331566510549    12.000000000000
         C           -3.656788833189    -4.972948512133    -0.330116083260    12.000000000000
         C           -6.134765042913    -0.680558404644    -0.330296114126    12.000000000000
         H            5.835288495816     3.369271405792    -0.326734739375     1.007825032230
         H            7.073859172747     1.228212759737    -0.331079315453     1.007825032230
         H            4.600663264174     5.512376313291    -0.330847095226     1.007825032230
         H            5.835283387305    -3.369310545891    -0.334937380457     1.007825032230
         H           -0.000012151306     6.738526184974    -0.334596614744     1.007825032230
         H            7.073861171831    -1.228231431906    -0.330784376425     1.007825032230
         H            2.473313731799     6.740679802232    -0.330530237258     1.007825032230
         H            4.600668491381    -5.512380618338    -0.330311792612     1.007825032230
         H           -2.473318680537     6.740677230444    -0.330228890633     1.007825032230
         H           -0.000010268228    -6.738532665614    -0.326113188873     1.007825032230
         H           -5.835301914343     3.369266461134    -0.326598717227     1.007825032230
         H            2.473307923831    -6.740689863591    -0.330422065811     1.007825032230
         H           -4.600674841208     5.512373537441    -0.330681766902     1.007825032230
         H           -5.835279506835    -3.369293452942    -0.335216686338     1.007825032230
         H           -2.473300347440    -6.740683567302    -0.330871382355     1.007825032230
         H           -7.073857766768     1.228215983678    -0.331163306934     1.007825032230
         H           -4.600673786085    -5.512367158949    -0.330484100635     1.007825032230
         H           -7.073856934409    -1.228225121139    -0.330879232892     1.007825032230

  Charge       = 0
  Multiplicity = 1
  Basis Set: JUN-CC-PVDZ
    Blend: JUN-CC-PVDZ
  Basis Set: (JUN-CC-PVDZ AUX)
    Blend: JUN-CC-PVDZ-JKFIT

    Orbital Energies [Eh]
    ---------------------

    Doubly Occupied:

       1A    -11.260666     2A    -11.260211     3A    -11.260205
       4A    -11.259441     5A    -11.259426     6A    -11.259229
       7A    -11.258967     8A    -11.258897     9A    -11.258870
      10A    -11.258552    11A    -11.258548    12A    -11.258365
      13A    -11.258324    14A    -11.258310    15A    -11.258301
      16A    -11.258271    17A    -11.258268    18A    -11.258246
      19A    -11.258243    20A    -11.258239    21A    -11.258221
      22A    -11.258205    23A    -11.258200    24A    -11.258046
      25A    -11.257201    26A    -11.257150    27A    -11.257115
      28A    -11.257016    29A    -11.257003    30A    -11.256920
      31A    -11.256306    32A    -11.256245    33A    -11.256206
      34A    -11.256130    35A    -11.256118    36A    -11.256052
      37A    -11.252123    38A    -11.252115    39A    -11.252085
      40A    -11.252083    41A    -11.252082    42A    -11.252078
      43A    -11.251194    44A    -11.251183    45A    -11.251167
      46A    -11.251161    47A    -11.251159    48A    -11.251153
      49A    -11.250684    50A    -11.250676    51A    -11.250646
      52A    -11.250645    53A    -11.250642    54A    -11.250638
      55A     -1.243737    56A     -1.219507    57A     -1.219485
      58A     -1.189247    59A     -1.189226    60A     -1.180646
      61A     -1.157280    62A     -1.148680    63A     -1.135196
      64A     -1.135172    65A     -1.112918    66A     -1.112909
      67A     -1.082121    68A     -1.082110    69A     -1.078301
      70A     -1.065715    71A     -1.065705    72A     -1.039106
      73A     -1.023929    74A     -1.021454    75A     -1.021394
      76A     -1.017451    77A     -1.012541    78A     -0.986710
      79A     -0.986647    80A     -0.961605    81A     -0.961552
      82A     -0.894005    83A     -0.893983    84A     -0.887593
      85A     -0.885834    86A     -0.885797    87A     -0.881061
      88A     -0.881014    89A     -0.861617    90A     -0.837165
      91A     -0.817896    92A     -0.816270    93A     -0.811812
      94A     -0.811809    95A     -0.794416    96A     -0.794402
      97A     -0.746267    98A     -0.744535    99A     -0.733091
     100A     -0.733077   101A     -0.731898   102A     -0.731873
     103A     -0.716191   104A     -0.698689   105A     -0.698653
     106A     -0.693281   107A     -0.693238   108A     -0.660947
     109A     -0.652799   110A     -0.650809   111A     -0.649983
     112A     -0.649977   113A     -0.639072   114A     -0.639053
     115A     -0.629395   116A     -0.627199   117A     -0.627188
     118A     -0.606454   119A     -0.605592   120A     -0.601322
     121A     -0.599450   122A     -0.599382   123A     -0.593301
     124A     -0.590869   125A     -0.590834   126A     -0.585029
     127A     -0.576384   128A     -0.576313   129A     -0.567062
     130A     -0.567043   131A     -0.565631   132A     -0.565624
     133A     -0.558394   134A     -0.554570   135A     -0.554561
     136A     -0.538314   137A     -0.538312   138A     -0.538123
     139A     -0.538113   140A     -0.529412   141A     -0.528099
     142A     -0.522584   143A     -0.522549   144A     -0.500224
     145A     -0.495481   146A     -0.492944   147A     -0.487708
     148A     -0.484739   149A     -0.481437   150A     -0.481436
     151A     -0.470233   152A     -0.470227   153A     -0.450662
     154A     -0.450595   155A     -0.438917   156A     -0.438909
     157A     -0.404567   158A     -0.404562   159A     -0.403209
     160A     -0.375250   161A     -0.375243   162A     -0.348932
     163A     -0.337450   164A     -0.336406   165A     -0.336391
     166A     -0.310878   167A     -0.297929   168A     -0.284148
     169A     -0.284107   170A     -0.224720   171A     -0.224661

  @DF-RHF Final Energy: -2055.89757264200671

   => Energetics <=

    Nuclear Repulsion Energy =           6452.5568002797772351
    One-Electron Energy =              -15636.5672078685511224
    Two-Electron Energy =                7128.1128349467671796
    Total Energy =                      -2055.8975726420067076
 Dipole X            :         -0.0010231           -0.0000085           -0.0010317
 Dipole Y            :         -0.0000126           -0.0028843           -0.0028969
 Dipole Z            :        213.7351392         -213.7295406            0.0055986
 Magnitude           :                                                    0.0063876

    SAPT Results
  --------------------------------------------------------------------------------------------------------
    Electrostatics               -115.77157652 [mEh]     -72.64776106 [kcal/mol]    -303.95823227 [kJ/mol]
      Elst10,r                   -115.77157652 [mEh]     -72.64776106 [kcal/mol]    -303.95823227 [kJ/mol]

    Exchange                      298.92846234 [mEh]     187.58044210 [kcal/mol]     784.83656974 [kJ/mol]
      Exch10                      298.92846234 [mEh]     187.58044210 [kcal/mol]     784.83656974 [kJ/mol]
      Exch10(S^2)                 289.75471270 [mEh]     181.82382729 [kcal/mol]     760.75089337 [kJ/mol]

    Induction                     -44.37187801 [mEh]     -27.84377382 [kcal/mol]    -116.49834968 [kJ/mol]
      Ind20,r                    -154.69057824 [mEh]     -97.06980335 [kcal/mol]    -406.14005722 [kJ/mol]
      Exch-Ind20,r                121.59832087 [mEh]      76.30409834 [kcal/mol]     319.25634746 [kJ/mol]
      delta HF,r (2)              -11.27962064 [mEh]      -7.07806881 [kcal/mol]     -29.61463992 [kJ/mol]

    Dispersion                   -109.52878194 [mEh]     -68.73034832 [kcal/mol]    -287.56777737 [kJ/mol]
      Disp20                     -132.83932897 [mEh]     -83.35793742 [kcal/mol]    -348.76961017 [kJ/mol]
      Exch-Disp20                  23.31054703 [mEh]      14.62758910 [kcal/mol]      61.20183280 [kJ/mol]
      Disp20 (SS)                 -66.41966449 [mEh]     -41.67896871 [kcal/mol]    -174.38480508 [kJ/mol]
      Disp20 (OS)                 -66.41966449 [mEh]     -41.67896871 [kcal/mol]    -174.38480508 [kJ/mol]
      Exch-Disp20 (SS)             13.85782030 [mEh]       8.69591352 [kcal/mol]      36.38370217 [kJ/mol]
      Exch-Disp20 (OS)              9.45272674 [mEh]       5.93167558 [kcal/mol]      24.81813063 [kJ/mol]

  Total HF                        138.78500781 [mEh]      87.08890722 [kcal/mol]     364.37998779 [kJ/mol]
  Total SAPT0                      29.25622587 [mEh]      18.35855890 [kcal/mol]      76.81221043 [kJ/mol]

  Special recipe for scaled SAPT0 (see Manual):
    Electrostatics sSAPT0        -115.77157652 [mEh]     -72.64776106 [kcal/mol]    -303.95823227 [kJ/mol]
    Exchange sSAPT0               298.92846234 [mEh]     187.58044210 [kcal/mol]     784.83656974 [kJ/mol]
    Induction sSAPT0              -32.45280167 [mEh]     -20.36444050 [kcal/mol]     -85.20481904 [kJ/mol]
    Dispersion sSAPT0            -107.24388041 [mEh]     -67.29655096 [kcal/mol]    -281.56876922 [kJ/mol]
  Total sSAPT0                     43.46020374 [mEh]      27.27168958 [kcal/mol]     114.10474921 [kJ/mol]
  --------------------------------------------------------------------------------------------------------

*** Psi4 exiting successfully. Buy a developer a beer!
