                               Psi4 1.9 release

  ==> Input File <==

--------------------------------------------------------------------------
memory 32 GB # how much memory is available ! Depends on the nodes/cores !

molecule dimer {
# monomer A
+1 1    # Charge and multiplicity
C  0.680067 1.417258 -5.215929
C -0.680504 1.419286 -5.215545
N -1.085635 1.420284 -3.897221
C  0.000108 1.423560 -3.115820
C -2.477365 1.469690 -3.429242
N  1.085222 1.420284 -3.897221
H  1.385146 1.409430 -6.033368
H -1.385302 1.419096 -6.033214
H -0.000009 1.425307 -2.034731
C  2.478117 1.403392 -3.432123
H  2.490592 1.430737 -2.341870
H  2.967028 0.489946 -3.779299
H  3.001428 2.278875 -3.823595
H -2.857359 2.491761 -3.509201
H -3.082679 0.799606 -4.042306
H -2.518128 1.142706 -2.389294
--
# monomer B
0 1     # Charge and multiplicity
C   1.22531237526482      0.70753866091955      0.00613762728373
C   1.22532433589282     -0.70753852257020     -0.00619318228664
C   -0.00000567409046      1.41496628609039     -0.00672680580738
C   2.45644923379077      1.41832825917820      0.00902448468363
C   0.00001130712078     -1.41497612663474      0.00347275151708
C   -1.22530046906674      0.70754574598412      0.00838914760619
C   2.45643823516184     -1.41832293188077     -0.00843833914343
C   -0.00000085313587      2.83680140328112     -0.00913035594137
C   3.68182717731192      0.70931832800114     -0.00808954934571
C   2.45512052870677      2.83422403348893     -0.00819210630633
C   3.68182158506039     -0.70933346742900      0.00798293467272
C   -1.22531311884624     -0.70752714354401     -0.00512042085974
C   1.22670006104402      3.54346985599427      0.00816696660346
C   0.00000526469929     -2.83678176723568      0.00832091913869
C   -2.45643555300670      1.41831729028492      0.00842454345199
C   2.45512389762097     -2.83422965658853      0.00783102630520
C   -1.22671388474763      3.54346943575023      0.00827029982280
C   4.91451777504333      1.42717324448953     -0.00160886631602
C   3.69315067131765      3.54279566454522     -0.00155906667985
C   -2.45643712022637     -1.41831290883911     -0.00846337726810
C   1.22670532178455     -3.54347386990643     -0.00780316414624
C   -2.45512491866593      2.83421703463423     -0.00818572995999
C   4.91452486062398     -1.42718653794377      0.00136387641845
C   1.22142509354026      4.97013443726031      0.00150231067809
C   4.89300870916237      2.82518837202648     -0.00039219795739
C   -1.22669652864725     -3.54347062507680     -0.00753595973677
C   -3.68181849668397      0.70932533873199     -0.00807686886569
C   3.69314758099218     -3.54280096939050      0.00148176697923
C   -1.22143177215231      4.97012866986289      0.00168580605083
C   6.13477145276790      0.68054831910577     -0.00083909176631
C   3.65678936045204      4.97295361556775     -0.00065042889723
C   -2.45512642789169     -2.83421472106065      0.00758666850712
C   -3.68181869921921     -0.70932533146830      0.00810055625144
C   4.89301309775526     -2.82519973363176      0.00021895393805
C   -0.00000059327114      5.65044773803267      0.00045449734393
C   6.13477559217374     -0.68055448207492      0.00042622874941
C   2.47813196269732      5.65357712333155      0.00063835075260
C   1.22142288457925     -4.97012668293268     -0.00129718634452
C   -3.69316190412301      3.54279732619245     -0.00139355922051
C   -1.22142804110313     -4.97011793159564     -0.00140994817719
C   -4.91452132810043      1.42717581899491     -0.00153192130862
C   3.65678749952045     -4.97295485423912      0.00080007163680
C   -2.47813805026426      5.65357479452875      0.00092287576113
C   -3.69314125872231     -3.54278984697859      0.00136564082345
C   -4.91451200321153     -1.42718062802730      0.00139857359209
C   -0.00000552908399     -5.65043791501335      0.00005899322272
C   -4.89302000425900      2.82518897091939     -0.00040227981744
C   2.47812647313991     -5.65357317188818     -0.00029052915548
C   -3.65679823041642      4.97295655404175     -0.00047374852278
C   -4.89299899901461     -2.82519139505969      0.00006491824035
C   -2.47812801824129     -5.65356579800621     -0.00056571680280
C   -6.13477002348955      0.68054913825639     -0.00086464346868
C   -3.65678835334731     -4.97294365097028      0.00058578382008
C   -6.13476456307132     -0.68055354348201      0.00040575295444
H   5.83528897565761      3.36927626695423      0.00396712770529
H   7.07385965258860      1.22821762089947     -0.00037744837300
H   4.60066374401555      5.51238117445323     -0.00014522814529
H   5.83528386714679     -3.36930568472863     -0.00423551337640
H   -0.00001167146422      6.73853104613662     -0.00389474766392
H   7.07386165167227     -1.22822657074368     -0.00008250934481
H   2.47331421164041      6.74068466339473      0.00017162982210
H   4.60066897122302     -5.51237575717576      0.00039007446835
H   -2.47331820069565      6.74068209160650      0.00047297644710
H   -0.00000978838621     -6.73852780445195      0.00458867820736
H   -5.83530143450167      3.36927132229595      0.00410314985360
H   2.47330840367253     -6.74068500242887      0.00027980126949
H   -4.60067436136587      5.51237839860371      0.00002010017831
H   -5.83527902699321     -3.36928859177951     -0.00451481925734
H   -2.47329986759855     -6.74067870613986     -0.00016951527498
H   -7.07385728692578      1.22822084484047     -0.00046143985387
H   -4.60067330624313     -5.51236229778631      0.00021776644566
H   -7.07385645456741     -1.22822025997701     -0.00017736581114

    units angstrom      # Angstroms are the default
    no_reorient         # Geometry fixed, default
    symmetry c1         # C1 symmetry, default
}

set {
    scf_type DF         # Density fitting, faster than exact integrals
    freeze_core True    # Freeze core electrons
    basis jun-cc-pVDZ   # Jun-cc-pVDZ basis set, recommended for sSAPT0 in https://doi.org/10.1063/1.4867135
}

energy('ssapt0')        # Compute sSAPT0 energy, includes also SAPT0
--------------------------------------------------------------------------

  //              Dimer HF             //
    Molecular point group: c1
  Charge       = 1
  Multiplicity = 1
  Basis Set: JUN-CC-PVDZ
    Blend: JUN-CC-PVDZ
  Basis Set: (JUN-CC-PVDZ AUX)
    Blend: JUN-CC-PVDZ-JKFIT
  @DF-RHF Final Energy: -2359.19981733325130
    Total Energy =                      -2359.1998173332522128
 Dipole X            :         -0.0005885            0.0006313            0.0000428
 Dipole Y            :         -6.1891501            7.4856329            1.2964829
 Dipole Z            :         14.6443222          -18.9639320           -4.3196098
 Magnitude           :                                                    4.5099775
  //            Monomer A HF           //
    Molecular point group: c1
  Multiplicity = 1
  Basis Set: JUN-CC-PVDZ
    Blend: JUN-CC-PVDZ
  Basis Set: (JUN-CC-PVDZ AUX)
    Blend: JUN-CC-PVDZ-JKFIT
  @DF-RHF Final Energy:  -303.29846758387924
    Total Energy =                       -303.2984675838792441
  //            Monomer B HF           //
    Molecular point group: c1

    Geometry (in Angstrom), charge = 0, multiplicity = 1:

       Center              X                  Y                   Z               Mass
    ------------   -----------------  -----------------  -----------------  -----------------
      Gh(C)           0.680066520158     1.235968212970    -4.707155812817    12.000000000000
      Gh(C)          -0.680504479842     1.237996212970    -4.706771812817    12.000000000000
      Gh(N)          -1.085635479842     1.238994212970    -3.388447812817    14.003074004430
      Gh(C)           0.000107520158     1.242270212970    -2.607046812817    12.000000000000
      Gh(C)          -2.477365479842     1.288400212970    -2.920468812817    12.000000000000
      Gh(N)           1.085221520158     1.238994212970    -3.388447812817    14.003074004430
      Gh(H)           1.385145520158     1.228140212970    -5.524594812817     1.007825032230
      Gh(H)          -1.385302479842     1.237806212970    -5.524440812817     1.007825032230
      Gh(H)          -0.000009479842     1.244017212970    -1.525957812817     1.007825032230
      Gh(C)           2.478116520158     1.222102212970    -2.923349812817    12.000000000000
      Gh(H)           2.490591520158     1.249447212970    -1.833096812817     1.007825032230
      Gh(H)           2.967027520158     0.308656212970    -3.270525812817     1.007825032230
      Gh(H)           3.001427520158     2.097585212970    -3.314821812817     1.007825032230
      Gh(H)          -2.857359479842     2.310471212970    -3.000427812817     1.007825032230
      Gh(H)          -3.082679479842     0.618316212970    -3.533532812817     1.007825032230
      Gh(H)          -2.518128479842     0.961416212970    -1.880520812817     1.007825032230
         C            1.225311895423     0.526248873889     0.514910814466    12.000000000000
         C            1.225323856051    -0.888828309601     0.502580004896    12.000000000000
         C           -0.000006153932     1.233676499060     0.502046381375    12.000000000000
         C            2.456448753949     1.237038472148     0.517797671866    12.000000000000
         C            0.000010827279    -1.596265913665     0.512245938700    12.000000000000
         C           -1.225300948908     0.526255958954     0.517162334789    12.000000000000
         C            2.456437755320    -1.599612718911     0.500334848039    12.000000000000
         C           -0.000001332978     2.655511616251     0.499642831241    12.000000000000
         C            3.681826697470     0.528028540971     0.500683637837    12.000000000000
         C            2.455120048865     2.652934246459     0.500581080876    12.000000000000
         C            3.681821105219    -0.890623254459     0.516756121855    12.000000000000
         C           -1.225313598688    -0.888816930574     0.503652766323    12.000000000000
         C            1.226699581202     3.362180068964     0.516940153786    12.000000000000
         C            0.000004784858    -3.018071554266     0.517094106321    12.000000000000
         C           -2.456436032848     1.237027503255     0.517197730635    12.000000000000
         C            2.455123417779    -3.015519443619     0.516604213488    12.000000000000
         C           -1.226714364589     3.362179648720     0.517043487005    12.000000000000
         C            4.914517295202     1.245883457459     0.507164320867    12.000000000000
         C            3.693150191476     3.361505877515     0.507214120503    12.000000000000
         C           -2.456437600068    -1.599602695869     0.500309809914    12.000000000000
         C            1.226704841943    -3.724763656937     0.500970023036    12.000000000000
         C           -2.455125398508     2.652927247604     0.500587457223    12.000000000000
         C            4.914524380782    -1.608476324974     0.510137063601    12.000000000000
         C            1.221424613699     4.788844650230     0.510275497861    12.000000000000
         C            4.893008229321     2.643898584996     0.508380989225    12.000000000000
         C           -1.226697008489    -3.724760412107     0.501237227446    12.000000000000
         C           -3.681818976526     0.528035551702     0.500696318317    12.000000000000
         C            3.693147101150    -3.724090756421     0.510254954162    12.000000000000
         C           -1.221432251994     4.788838882833     0.510458993233    12.000000000000
         C            6.134770972926     0.499258532075     0.507934095416    12.000000000000
         C            3.656788880610     4.791663828537     0.508122758285    12.000000000000
         C           -2.455126907733    -3.015504508091     0.516359855690    12.000000000000
         C           -3.681819179061    -0.890615118499     0.516873743434    12.000000000000
         C            4.893012617914    -3.006489520662     0.508992141121    12.000000000000
         C           -0.000001073113     5.469157951002     0.509227684527    12.000000000000
         C            6.134775112332    -0.861844269105     0.509199415932    12.000000000000
         C            2.478131482856     5.472287336301     0.509411537935    12.000000000000
         C            1.221422404738    -5.151416469963     0.507476000838    12.000000000000
         C           -3.693162383965     3.361507539162     0.507379627962    12.000000000000
         C           -1.221428520945    -5.151407718626     0.507363239005    12.000000000000
         C           -4.914521807942     1.245886031965     0.507241265874    12.000000000000
         C            3.656787019679    -5.154244641269     0.509573258819    12.000000000000
         C           -2.478138530106     5.472285007498     0.509696062944    12.000000000000
         C           -3.693141738564    -3.724079634009     0.510138828006    12.000000000000
         C           -4.914512483053    -1.608470415058     0.510171760775    12.000000000000
         C           -0.000006008926    -5.831727702044     0.508832180405    12.000000000000
         C           -4.893020484101     2.643899183889     0.508370907365    12.000000000000
         C            2.478125993298    -5.834862958919     0.508482658027    12.000000000000
         C           -3.656798710258     4.791666767011     0.508299438660    12.000000000000
         C           -4.892999478856    -3.006481182090     0.508838105423    12.000000000000
         C           -2.478128498083    -5.834855585037     0.508207470380    12.000000000000
         C           -6.134770503331     0.499259351226     0.507908543714    12.000000000000
         C           -3.656788833189    -5.154233438001     0.509358971003    12.000000000000
         C           -6.134765042913    -0.861843330512     0.509178940137    12.000000000000
         H            5.835288495816     3.187986479924     0.512740314888     1.007825032230
         H            7.073859172747     1.046927833869     0.508395738810     1.007825032230
         H            4.600663264174     5.331091387423     0.508627959037     1.007825032230
         H            5.835283387305    -3.550595471759     0.504537673806     1.007825032230
         H           -0.000012151306     6.557241259106     0.504878439519     1.007825032230
         H            7.073861171831    -1.409516357774     0.508690677838     1.007825032230
         H            2.473313731799     6.559394876364     0.508944817005     1.007825032230
         H            4.600668491381    -5.693665544206     0.509163261651     1.007825032230
         H           -2.473318680537     6.559392304576     0.509246163630     1.007825032230
         H           -0.000010268228    -6.919817591482     0.513361865390     1.007825032230
         H           -5.835301914343     3.187981535266     0.512876337036     1.007825032230
         H            2.473307923831    -6.921974789459     0.509052988452     1.007825032230
         H           -4.600674841208     5.331088611573     0.508793287361     1.007825032230
         H           -5.835279506835    -3.550578378810     0.504258367925     1.007825032230
         H           -2.473300347440    -6.921968493170     0.508603671908     1.007825032230
         H           -7.073857766768     1.046931057810     0.508311747329     1.007825032230
         H           -4.600673786085    -5.693652084817     0.508990953628     1.007825032230
         H           -7.073856934409    -1.409510047007     0.508595821371     1.007825032230

  Charge       = 0
  Multiplicity = 1
  Basis Set: JUN-CC-PVDZ
    Blend: JUN-CC-PVDZ
  Basis Set: (JUN-CC-PVDZ AUX)
    Blend: JUN-CC-PVDZ-JKFIT

    Orbital Energies [Eh]
    ---------------------

    Doubly Occupied:

       1A    -11.260613     2A    -11.260108     3A    -11.260084
       4A    -11.259449     5A    -11.259373     6A    -11.259173
       7A    -11.259011     8A    -11.258923     9A    -11.258857
      10A    -11.258577    11A    -11.258529    12A    -11.258449
      13A    -11.258394    14A    -11.258386    15A    -11.258380
      16A    -11.258354    17A    -11.258346    18A    -11.258332
      19A    -11.258325    20A    -11.258308    21A    -11.258301
      22A    -11.258260    23A    -11.258228    24A    -11.257949
      25A    -11.257260    26A    -11.257213    27A    -11.257178
      28A    -11.257074    29A    -11.257064    30A    -11.256972
      31A    -11.256356    32A    -11.256295    33A    -11.256276
      34A    -11.256180    35A    -11.256178    36A    -11.256105
      37A    -11.252214    38A    -11.252211    39A    -11.252181
      40A    -11.252170    41A    -11.252148    42A    -11.252137
      43A    -11.251326    44A    -11.251312    45A    -11.251298
      46A    -11.251286    47A    -11.251283    48A    -11.251238
      49A    -11.250775    50A    -11.250771    51A    -11.250742
      52A    -11.250730    53A    -11.250709    54A    -11.250698
      55A     -1.243863    56A     -1.219636    57A     -1.219626
      58A     -1.189373    59A     -1.189363    60A     -1.180752
      61A     -1.157400    62A     -1.148813    63A     -1.135309
      64A     -1.135290    65A     -1.113037    66A     -1.113030
      67A     -1.082247    68A     -1.082236    69A     -1.078414
      70A     -1.065828    71A     -1.065821    72A     -1.039225
      73A     -1.024076    74A     -1.021569    75A     -1.021517
      76A     -1.017570    77A     -1.012646    78A     -0.986842
      79A     -0.986785    80A     -0.961718    81A     -0.961665
      82A     -0.894118    83A     -0.894097    84A     -0.887726
      85A     -0.885970    86A     -0.885930    87A     -0.881201
      88A     -0.881154    89A     -0.861729    90A     -0.837262
      91A     -0.818031    92A     -0.816413    93A     -0.811941
      94A     -0.811936    95A     -0.794523    96A     -0.794513
      97A     -0.746417    98A     -0.744660    99A     -0.733222
     100A     -0.733209   101A     -0.732012   102A     -0.731990
     103A     -0.716304   104A     -0.698804   105A     -0.698776
     106A     -0.693408   107A     -0.693372   108A     -0.661061
     109A     -0.652914   110A     -0.650953   111A     -0.650090
     112A     -0.650083   113A     -0.639193   114A     -0.639176
     115A     -0.629524   116A     -0.627324   117A     -0.627315
     118A     -0.606425   119A     -0.605675   120A     -0.601458
     121A     -0.599571   122A     -0.599514   123A     -0.593437
     124A     -0.591010   125A     -0.590981   126A     -0.585131
     127A     -0.576434   128A     -0.576329   129A     -0.567167
     130A     -0.567145   131A     -0.565759   132A     -0.565747
     133A     -0.558524   134A     -0.554679   135A     -0.554675
     136A     -0.538426   137A     -0.538423   138A     -0.538168
     139A     -0.538151   140A     -0.529531   141A     -0.528111
     142A     -0.522701   143A     -0.522675   144A     -0.500337
     145A     -0.495542   146A     -0.493064   147A     -0.487774
     148A     -0.484876   149A     -0.481562   150A     -0.481560
     151A     -0.470275   152A     -0.470259   153A     -0.450802
     154A     -0.450732   155A     -0.439001   156A     -0.438974
     157A     -0.404661   158A     -0.404644   159A     -0.403277
     160A     -0.375334   161A     -0.375330   162A     -0.349027
     163A     -0.337487   164A     -0.336425   165A     -0.336388
     166A     -0.311006   167A     -0.298004   168A     -0.284231
     169A     -0.284173   170A     -0.224800   171A     -0.224740

  @DF-RHF Final Energy: -2055.89560772765935

   => Energetics <=

    Nuclear Repulsion Energy =           6452.5568002797781446
    One-Electron Energy =              -15636.5323278864761960
    Two-Electron Energy =                7128.0799198790382434
    Total Energy =                      -2055.8956077276588985
 Dipole X            :          0.0007196           -0.0000085            0.0007111
 Dipole Y            :        117.1722982         -117.1648546            0.0074436
 Dipole Z            :       -328.8106827          328.8117155            0.0010328
 Magnitude           :                                                    0.0075485

    SAPT Results
  --------------------------------------------------------------------------------------------------------
    Electrostatics                -24.72663381 [mEh]     -15.51619697 [kcal/mol]     -64.91976812 [kJ/mol]
      Elst10,r                    -24.72663381 [mEh]     -15.51619697 [kcal/mol]     -64.91976812 [kJ/mol]

    Exchange                       43.70239908 [mEh]      27.42366945 [kcal/mol]     114.74063299 [kJ/mol]
      Exch10                       43.70239908 [mEh]      27.42366945 [kcal/mol]     114.74063299 [kJ/mol]
      Exch10(S^2)                  43.17084180 [mEh]      27.09011222 [kcal/mol]     113.34502954 [kJ/mol]

    Induction                     -24.71778699 [mEh]     -15.51064551 [kcal/mol]     -64.89654080 [kJ/mol]
      Ind20,r                     -29.72927578 [mEh]     -18.65540220 [kcal/mol]     -78.05420280 [kJ/mol]
      Exch-Ind20,r                 12.47686464 [mEh]       7.82935077 [kcal/mol]      32.75800361 [kJ/mol]
      delta HF,r (2)               -7.46537585 [mEh]      -4.68459407 [kcal/mol]     -19.60034161 [kJ/mol]

    Dispersion                    -31.49690156 [mEh]     -19.76460412 [kcal/mol]     -82.69510364 [kJ/mol]
      Disp20                      -34.52071139 [mEh]     -21.66207344 [kcal/mol]     -90.63411527 [kJ/mol]
      Exch-Disp20                   3.02380983 [mEh]       1.89746932 [kcal/mol]       7.93901162 [kJ/mol]
      Disp20 (SS)                 -17.26035570 [mEh]     -10.83103672 [kcal/mol]     -45.31705763 [kJ/mol]
      Disp20 (OS)                 -17.26035570 [mEh]     -10.83103672 [kcal/mol]     -45.31705763 [kJ/mol]
      Exch-Disp20 (SS)              1.84658857 [mEh]       1.15875182 [kcal/mol]       4.84821762 [kJ/mol]
      Exch-Disp20 (OS)              1.17722127 [mEh]       0.73871750 [kcal/mol]       3.09079401 [kJ/mol]

  Total HF                         -5.74202171 [mEh]      -3.60317302 [kcal/mol]     -15.07567593 [kJ/mol]
  Total SAPT0                     -37.23892327 [mEh]     -23.36777714 [kcal/mol]     -97.77077957 [kJ/mol]

  Special recipe for scaled SAPT0 (see Manual):
    Electrostatics sSAPT0         -24.72663381 [mEh]     -15.51619697 [kcal/mol]     -64.91976812 [kJ/mol]
    Exchange sSAPT0                43.70239908 [mEh]      27.42366945 [kcal/mol]     114.74063299 [kJ/mol]
    Induction sSAPT0              -24.25121065 [mEh]     -15.21786443 [kcal/mol]     -63.67154478 [kJ/mol]
    Dispersion sSAPT0             -31.38382522 [mEh]     -19.69364765 [kcal/mol]     -82.39822177 [kJ/mol]
  Total sSAPT0                    -36.65927059 [mEh]     -23.00403960 [kcal/mol]     -96.24890168 [kJ/mol]
  --------------------------------------------------------------------------------------------------------

*** Psi4 exiting successfully. Buy a developer a beer!
