                               Psi4 1.9 release

  ==> Input File <==

--------------------------------------------------------------------------
memory 32 GB # how much memory is available ! Depends on the nodes/cores !

molecule dimer {
# monomer A
-1 1    # Charge and multiplicity
B -0.000046  0.000337 5.599994
F -1.153597  0.000048 6.415641
F  1.153661 -0.000581 6.415641
F -0.000019 -1.153637 4.784360
F -0.000019  1.153978 4.784360
--
# monomer B
0 1     # Charge and multiplicity
C   1.22531237526482      0.70753866091955      0.00613762728373
C   1.22532433589282     -0.70753852257020     -0.00619318228664
C   -0.00000567409046      1.41496628609039     -0.00672680580738
C   2.45644923379077      1.41832825917820      0.00902448468363
C   0.00001130712078     -1.41497612663474      0.00347275151708
C   -1.22530046906674      0.70754574598412      0.00838914760619
C   2.45643823516184     -1.41832293188077     -0.00843833914343
C   -0.00000085313587      2.83680140328112     -0.00913035594137
C   3.68182717731192      0.70931832800114     -0.00808954934571
C   2.45512052870677      2.83422403348893     -0.00819210630633
C   3.68182158506039     -0.70933346742900      0.00798293467272
C   -1.22531311884624     -0.70752714354401     -0.00512042085974
C   1.22670006104402      3.54346985599427      0.00816696660346
C   0.00000526469929     -2.83678176723568      0.00832091913869
C   -2.45643555300670      1.41831729028492      0.00842454345199
C   2.45512389762097     -2.83422965658853      0.00783102630520
C   -1.22671388474763      3.54346943575023      0.00827029982280
C   4.91451777504333      1.42717324448953     -0.00160886631602
C   3.69315067131765      3.54279566454522     -0.00155906667985
C   -2.45643712022637     -1.41831290883911     -0.00846337726810
C   1.22670532178455     -3.54347386990643     -0.00780316414624
C   -2.45512491866593      2.83421703463423     -0.00818572995999
C   4.91452486062398     -1.42718653794377      0.00136387641845
C   1.22142509354026      4.97013443726031      0.00150231067809
C   4.89300870916237      2.82518837202648     -0.00039219795739
C   -1.22669652864725     -3.54347062507680     -0.00753595973677
C   -3.68181849668397      0.70932533873199     -0.00807686886569
C   3.69314758099218     -3.54280096939050      0.00148176697923
C   -1.22143177215231      4.97012866986289      0.00168580605083
C   6.13477145276790      0.68054831910577     -0.00083909176631
C   3.65678936045204      4.97295361556775     -0.00065042889723
C   -2.45512642789169     -2.83421472106065      0.00758666850712
C   -3.68181869921921     -0.70932533146830      0.00810055625144
C   4.89301309775526     -2.82519973363176      0.00021895393805
C   -0.00000059327114      5.65044773803267      0.00045449734393
C   6.13477559217374     -0.68055448207492      0.00042622874941
C   2.47813196269732      5.65357712333155      0.00063835075260
C   1.22142288457925     -4.97012668293268     -0.00129718634452
C   -3.69316190412301      3.54279732619245     -0.00139355922051
C   -1.22142804110313     -4.97011793159564     -0.00140994817719
C   -4.91452132810043      1.42717581899491     -0.00153192130862
C   3.65678749952045     -4.97295485423912      0.00080007163680
C   -2.47813805026426      5.65357479452875      0.00092287576113
C   -3.69314125872231     -3.54278984697859      0.00136564082345
C   -4.91451200321153     -1.42718062802730      0.00139857359209
C   -0.00000552908399     -5.65043791501335      0.00005899322272
C   -4.89302000425900      2.82518897091939     -0.00040227981744
C   2.47812647313991     -5.65357317188818     -0.00029052915548
C   -3.65679823041642      4.97295655404175     -0.00047374852278
C   -4.89299899901461     -2.82519139505969      0.00006491824035
C   -2.47812801824129     -5.65356579800621     -0.00056571680280
C   -6.13477002348955      0.68054913825639     -0.00086464346868
C   -3.65678835334731     -4.97294365097028      0.00058578382008
C   -6.13476456307132     -0.68055354348201      0.00040575295444
H   5.83528897565761      3.36927626695423      0.00396712770529
H   7.07385965258860      1.22821762089947     -0.00037744837300
H   4.60066374401555      5.51238117445323     -0.00014522814529
H   5.83528386714679     -3.36930568472863     -0.00423551337640
H   -0.00001167146422      6.73853104613662     -0.00389474766392
H   7.07386165167227     -1.22822657074368     -0.00008250934481
H   2.47331421164041      6.74068466339473      0.00017162982210
H   4.60066897122302     -5.51237575717576      0.00039007446835
H   -2.47331820069565      6.74068209160650      0.00047297644710
H   -0.00000978838621     -6.73852780445195      0.00458867820736
H   -5.83530143450167      3.36927132229595      0.00410314985360
H   2.47330840367253     -6.74068500242887      0.00027980126949
H   -4.60067436136587      5.51237839860371      0.00002010017831
H   -5.83527902699321     -3.36928859177951     -0.00451481925734
H   -2.47329986759855     -6.74067870613986     -0.00016951527498
H   -7.07385728692578      1.22822084484047     -0.00046143985387
H   -4.60067330624313     -5.51236229778631      0.00021776644566
H   -7.07385645456741     -1.22822025997701     -0.00017736581114

    units angstrom      # Angstroms are the default
    no_reorient         # Geometry fixed, default
    symmetry c1         # C1 symmetry, default
}

set {
    scf_type DF         # Density fitting, faster than exact integrals
    freeze_core True    # Freeze core electrons
    basis jun-cc-pVDZ   # Jun-cc-pVDZ basis set, recommended for sSAPT0 in https://doi.org/10.1063/1.4867135
}

energy('ssapt0')        # Compute sSAPT0 energy, includes also SAPT0
--------------------------------------------------------------------------

  //              Dimer HF             //
    Molecular point group: c1
  Charge       = -1
  Multiplicity = 1
  Basis Set: JUN-CC-PVDZ
    Blend: JUN-CC-PVDZ
  Basis Set: (JUN-CC-PVDZ AUX)
    Blend: JUN-CC-PVDZ-JKFIT
  @DF-RHF Final Energy: -2478.65873980691731
    Total Energy =                      -2478.6587398069168557
 Dipole X            :         -0.0002052           -0.0000160           -0.0002213
 Dipole Y            :          0.0012802           -0.0001716            0.0011085
 Dipole Z            :         25.9392230          -34.3296932           -8.3904702
 Magnitude           :                                                    8.3904703
  //            Monomer A HF           //
    Molecular point group: c1
  Multiplicity = 1
  Basis Set: JUN-CC-PVDZ
    Blend: JUN-CC-PVDZ
  Basis Set: (JUN-CC-PVDZ AUX)
    Blend: JUN-CC-PVDZ-JKFIT
  @DF-RHF Final Energy:  -422.77174838768724
    Total Energy =                       -422.7717483876872393
  //            Monomer B HF           //
    Molecular point group: c1

    Geometry (in Angstrom), charge = 0, multiplicity = 1:

       Center              X                  Y                   Z               Mass
    ------------   -----------------  -----------------  -----------------  -----------------
      Gh(B)          -0.000046449334     0.000336519434     4.953086126065    11.009305360000
      Gh(F)          -1.153597449334     0.000047519434     5.768733126065    18.998403162730
      Gh(F)           1.153660550666    -0.000581480566     5.768733126065    18.998403162730
      Gh(F)          -0.000019449334    -1.153637480566     4.137452126065    18.998403162730
      Gh(F)          -0.000019449334     1.153977519434     4.137452126065    18.998403162730
         C            1.225311925931     0.707538180353    -0.640770246652    12.000000000000
         C            1.225323886559    -0.707539003137    -0.653101056222    12.000000000000
         C           -0.000006123424     1.414965805524    -0.653634679743    12.000000000000
         C            2.456448784457     1.418327778612    -0.637883389252    12.000000000000
         C            0.000010857787    -1.414976607201    -0.643435122418    12.000000000000
         C           -1.225300918401     0.707545265418    -0.638518726329    12.000000000000
         C            2.456437785828    -1.418323412447    -0.655346213079    12.000000000000
         C           -0.000001302470     2.836800922715    -0.656038229877    12.000000000000
         C            3.681826727978     0.709317847435    -0.654997423281    12.000000000000
         C            2.455120079373     2.834223552923    -0.655099980242    12.000000000000
         C            3.681821135726    -0.709333947995    -0.638924939263    12.000000000000
         C           -1.225313568180    -0.707527624110    -0.652028294795    12.000000000000
         C            1.226699611710     3.543469375428    -0.638740907332    12.000000000000
         C            0.000004815365    -2.836782247802    -0.638586954797    12.000000000000
         C           -2.456436002341     1.418316809719    -0.638483330483    12.000000000000
         C            2.455123448287    -2.834230137155    -0.639076847630    12.000000000000
         C           -1.226714334082     3.543468955184    -0.638637574113    12.000000000000
         C            4.914517325709     1.427172763923    -0.648516740251    12.000000000000
         C            3.693150221984     3.542795183979    -0.648466940615    12.000000000000
         C           -2.456437569560    -1.418313389406    -0.655371251203    12.000000000000
         C            1.226704872451    -3.543474350473    -0.654711038082    12.000000000000
         C           -2.455125368000     2.834216554068    -0.655093603895    12.000000000000
         C            4.914524411290    -1.427187018510    -0.645543997517    12.000000000000
         C            1.221424644206     4.970133956694    -0.645405563257    12.000000000000
         C            4.893008259828     2.825187891460    -0.647300071893    12.000000000000
         C           -1.226696977981    -3.543471105643    -0.654443833672    12.000000000000
         C           -3.681818946018     0.709324858166    -0.654984742801    12.000000000000
         C            3.693147131658    -3.542801449957    -0.645426106956    12.000000000000
         C           -1.221432221486     4.970128189296    -0.645222067884    12.000000000000
         C            6.134771003434     0.680547838539    -0.647746965702    12.000000000000
         C            3.656788911118     4.972953135001    -0.647558302833    12.000000000000
         C           -2.455126877226    -2.834215201627    -0.639321205428    12.000000000000
         C           -3.681819148553    -0.709325812035    -0.638807317684    12.000000000000
         C            4.893012648421    -2.825200214198    -0.646688919997    12.000000000000
         C           -0.000001042605     5.650447257466    -0.646453376591    12.000000000000
         C            6.134775142840    -0.680554962641    -0.646481645186    12.000000000000
         C            2.478131513363     5.653576642765    -0.646269523183    12.000000000000
         C            1.221422435245    -4.970127163499    -0.648205060280    12.000000000000
         C           -3.693162353457     3.542796845626    -0.648301433156    12.000000000000
         C           -1.221428490437    -4.970118412162    -0.648317822113    12.000000000000
         C           -4.914521777434     1.427175338429    -0.648439795244    12.000000000000
         C            3.656787050187    -4.972955334806    -0.646107802299    12.000000000000
         C           -2.478138499598     5.653574313962    -0.645984998174    12.000000000000
         C           -3.693141708056    -3.542790327545    -0.645542233112    12.000000000000
         C           -4.914512452545    -1.427181108594    -0.645509300343    12.000000000000
         C           -0.000005978418    -5.650438395580    -0.646848880713    12.000000000000
         C           -4.893020453593     2.825188490353    -0.647310153753    12.000000000000
         C            2.478126023806    -5.653573652455    -0.647198403091    12.000000000000
         C           -3.656798679750     4.972956073475    -0.647381622458    12.000000000000
         C           -4.892999448349    -2.825191875626    -0.646842955695    12.000000000000
         C           -2.478128467575    -5.653566278573    -0.647473590738    12.000000000000
         C           -6.134770472823     0.680548657690    -0.647772517404    12.000000000000
         C           -3.656788802681    -4.972944131537    -0.646322090115    12.000000000000
         C           -6.134765012405    -0.680554024048    -0.646502120981    12.000000000000
         H            5.835288526324     3.369275786388    -0.642940746230     1.007825032230
         H            7.073859203255     1.228217140333    -0.647285322308     1.007825032230
         H            4.600663294682     5.512380693887    -0.647053102081     1.007825032230
         H            5.835283417813    -3.369306165295    -0.651143387312     1.007825032230
         H           -0.000012120798     6.738530565570    -0.650802621599     1.007825032230
         H            7.073861202338    -1.228227051310    -0.646990383280     1.007825032230
         H            2.473313762307     6.740684182828    -0.646736244113     1.007825032230
         H            4.600668521889    -5.512376237742    -0.646517799467     1.007825032230
         H           -2.473318650030     6.740681611040    -0.646434897488     1.007825032230
         H           -0.000010237720    -6.738528285018    -0.642319195728     1.007825032230
         H           -5.835301883836     3.369270841730    -0.642804724082     1.007825032230
         H            2.473307954339    -6.740685482995    -0.646628072666     1.007825032230
         H           -4.600674810700     5.512377918037    -0.646887773757     1.007825032230
         H           -5.835279476327    -3.369289072346    -0.651422693193     1.007825032230
         H           -2.473300316932    -6.740679186706    -0.647077389210     1.007825032230
         H           -7.073857736260     1.228220364274    -0.647369313789     1.007825032230
         H           -4.600673755577    -5.512362778353    -0.646690107490     1.007825032230
         H           -7.073856903901    -1.228220740543    -0.647085239746     1.007825032230

  Charge       = 0
  Multiplicity = 1
  Basis Set: JUN-CC-PVDZ
    Blend: JUN-CC-PVDZ
  Basis Set: (JUN-CC-PVDZ AUX)
    Blend: JUN-CC-PVDZ-JKFIT

    Orbital Energies [Eh]
    ---------------------

    Doubly Occupied:

       1A    -11.260628     2A    -11.260197     3A    -11.260171
       4A    -11.259479     5A    -11.259460     6A    -11.259298
       7A    -11.259087     8A    -11.259015     9A    -11.259004
      10A    -11.258691    11A    -11.258681    12A    -11.258614
      13A    -11.258552    14A    -11.258549    15A    -11.258546
      16A    -11.258514    17A    -11.258512    18A    -11.258494
      19A    -11.258482    20A    -11.258476    21A    -11.258470
      22A    -11.258378    23A    -11.258363    24A    -11.258072
      25A    -11.257403    26A    -11.257342    27A    -11.257339
      28A    -11.257205    29A    -11.257205    30A    -11.257120
      31A    -11.256496    32A    -11.256427    33A    -11.256424
      34A    -11.256316    35A    -11.256315    36A    -11.256268
      37A    -11.252360    38A    -11.252359    39A    -11.252359
      40A    -11.252357    41A    -11.252356    42A    -11.252354
      43A    -11.251486    44A    -11.251484    45A    -11.251481
      46A    -11.251477    47A    -11.251472    48A    -11.251470
      49A    -11.250922    50A    -11.250921    51A    -11.250921
      52A    -11.250917    53A    -11.250917    54A    -11.250916
      55A     -1.244193    56A     -1.219945    57A     -1.219932
      58A     -1.189660    59A     -1.189649    60A     -1.181071
      61A     -1.157668    62A     -1.149093    63A     -1.135616
      64A     -1.135612    65A     -1.113301    66A     -1.113295
      67A     -1.082551    68A     -1.082549    69A     -1.078726
      70A     -1.066086    71A     -1.066083    72A     -1.039514
      73A     -1.024404    74A     -1.021893    75A     -1.021857
      76A     -1.017835    77A     -1.012897    78A     -0.987145
      79A     -0.987097    80A     -0.961988    81A     -0.961940
      82A     -0.894404    83A     -0.894378    84A     -0.888068
      85A     -0.886320    86A     -0.886255    87A     -0.881520
      88A     -0.881477    89A     -0.862011    90A     -0.837507
      91A     -0.818326    92A     -0.816743    93A     -0.812261
      94A     -0.812249    95A     -0.794795    96A     -0.794786
      97A     -0.746753    98A     -0.744983    99A     -0.733545
     100A     -0.733531   101A     -0.732292   102A     -0.732270
     103A     -0.716618   104A     -0.699083   105A     -0.699079
     106A     -0.693702   107A     -0.693691   108A     -0.661340
     109A     -0.653235   110A     -0.651286   111A     -0.650359
     112A     -0.650354   113A     -0.639471   114A     -0.639468
     115A     -0.629835   116A     -0.627648   117A     -0.627626
     118A     -0.606477   119A     -0.605895   120A     -0.601787
     121A     -0.599849   122A     -0.599824   123A     -0.593756
     124A     -0.591349   125A     -0.591347   126A     -0.585374
     127A     -0.576432   128A     -0.576382   129A     -0.567426
     130A     -0.567412   131A     -0.566081   132A     -0.566058
     133A     -0.558850   134A     -0.554956   135A     -0.554952
     136A     -0.538702   137A     -0.538698   138A     -0.538250
     139A     -0.538247   140A     -0.529831   141A     -0.528208
     142A     -0.522984   143A     -0.522979   144A     -0.500611
     145A     -0.495679   146A     -0.493346   147A     -0.487907
     148A     -0.485194   149A     -0.481875   150A     -0.481867
     151A     -0.470427   152A     -0.470376   153A     -0.451156
     154A     -0.451074   155A     -0.439148   156A     -0.439140
     157A     -0.404825   158A     -0.404800   159A     -0.403453
     160A     -0.375502   161A     -0.375501   162A     -0.349204
     163A     -0.337667   164A     -0.336645   165A     -0.336568
     166A     -0.311178   167A     -0.298175   168A     -0.284426
     169A     -0.284380   170A     -0.225004   171A     -0.224934

  @DF-RHF Final Energy: -2055.89229887388046

   => Energetics <=

    Nuclear Repulsion Energy =           6452.5568002797781446
    One-Electron Energy =              -15636.4478331363097823
    Two-Electron Energy =                7127.9987339826520838
    Total Energy =                      -2055.8922988738804634
 Dipole X            :          0.0000720            0.0000112            0.0000832
 Dipole Y            :          0.0001258           -0.0000531            0.0000727
 Dipole Z            :        418.0837107         -418.0891618           -0.0054512
 Magnitude           :                                                    0.0054523

    SAPT Results
  --------------------------------------------------------------------------------------------------------
    Electrostatics                  9.98066254 [mEh]       6.26296030 [kcal/mol]      26.20422589 [kJ/mol]
      Elst10,r                      9.98066254 [mEh]       6.26296030 [kcal/mol]      26.20422589 [kJ/mol]

    Exchange                        0.01099704 [mEh]       0.00690075 [kcal/mol]       0.02887272 [kJ/mol]
      Exch10                        0.01099704 [mEh]       0.00690075 [kcal/mol]       0.02887272 [kJ/mol]
      Exch10(S^2)                   0.01099720 [mEh]       0.00690085 [kcal/mol]       0.02887314 [kJ/mol]

    Induction                      -4.68420493 [mEh]      -2.93938297 [kcal/mol]     -12.29837835 [kJ/mol]
      Ind20,r                      -4.73543991 [mEh]      -2.97153341 [kcal/mol]     -12.43289578 [kJ/mol]
      Exch-Ind20,r                  0.00448689 [mEh]       0.00281556 [kcal/mol]       0.01178032 [kJ/mol]
      delta HF,r (2)                0.04674810 [mEh]       0.02933487 [kcal/mol]       0.12273711 [kJ/mol]

    Dispersion                     -1.25009538 [mEh]      -0.78444670 [kcal/mol]      -3.28212498 [kJ/mol]
      Disp20                       -1.25592323 [mEh]      -0.78810372 [kcal/mol]      -3.29742598 [kJ/mol]
      Exch-Disp20                   0.00582785 [mEh]       0.00365703 [kcal/mol]       0.01530101 [kJ/mol]
      Disp20 (SS)                  -0.62796161 [mEh]      -0.39405186 [kcal/mol]      -1.64871299 [kJ/mol]
      Disp20 (OS)                  -0.62796161 [mEh]      -0.39405186 [kcal/mol]      -1.64871299 [kJ/mol]
      Exch-Disp20 (SS)              0.00432398 [mEh]       0.00271334 [kcal/mol]       0.01135260 [kJ/mol]
      Exch-Disp20 (OS)              0.00150387 [mEh]       0.00094369 [kcal/mol]       0.00394841 [kJ/mol]

  Total HF                          5.30745465 [mEh]       3.33047807 [kcal/mol]      13.93472026 [kJ/mol]
  Total SAPT0                       4.05735927 [mEh]       2.54603138 [kcal/mol]      10.65259529 [kJ/mol]

  Special recipe for scaled SAPT0 (see Manual):
    Electrostatics sSAPT0           9.98066254 [mEh]       6.26296030 [kcal/mol]      26.20422589 [kJ/mol]
    Exchange sSAPT0                 0.01099704 [mEh]       0.00690075 [kcal/mol]       0.02887272 [kJ/mol]
    Induction sSAPT0               -4.68420512 [mEh]      -2.93938309 [kcal/mol]     -12.29837886 [kJ/mol]
    Dispersion sSAPT0              -1.25009564 [mEh]      -0.78444686 [kcal/mol]      -3.28212564 [kJ/mol]
  Total sSAPT0                      4.05735882 [mEh]       2.54603110 [kcal/mol]      10.65259411 [kJ/mol]
  --------------------------------------------------------------------------------------------------------

*** Psi4 exiting successfully. Buy a developer a beer!
