                               Psi4 1.9 release

  ==> Input File <==

--------------------------------------------------------------------------
memory 32 GB # how much memory is available ! Depends on the nodes/cores !

molecule dimer {
# monomer A
-1 1    # Charge and multiplicity
B -1.977592e-04  2.742729e-04 -6.199966
F  1.123153e-16  1.430594e-17 -4.787181
F  1.147860e+00  6.757812e-01 -6.671107
F  1.191806e-02 -1.332011e+00 -6.670905
F -1.159666e+00  6.560735e-01 -6.670826
--
# monomer B
0 1     # Charge and multiplicity
C   1.22531237526482      0.70753866091955      0.00613762728373
C   1.22532433589282     -0.70753852257020     -0.00619318228664
C   -0.00000567409046      1.41496628609039     -0.00672680580738
C   2.45644923379077      1.41832825917820      0.00902448468363
C   0.00001130712078     -1.41497612663474      0.00347275151708
C   -1.22530046906674      0.70754574598412      0.00838914760619
C   2.45643823516184     -1.41832293188077     -0.00843833914343
C   -0.00000085313587      2.83680140328112     -0.00913035594137
C   3.68182717731192      0.70931832800114     -0.00808954934571
C   2.45512052870677      2.83422403348893     -0.00819210630633
C   3.68182158506039     -0.70933346742900      0.00798293467272
C   -1.22531311884624     -0.70752714354401     -0.00512042085974
C   1.22670006104402      3.54346985599427      0.00816696660346
C   0.00000526469929     -2.83678176723568      0.00832091913869
C   -2.45643555300670      1.41831729028492      0.00842454345199
C   2.45512389762097     -2.83422965658853      0.00783102630520
C   -1.22671388474763      3.54346943575023      0.00827029982280
C   4.91451777504333      1.42717324448953     -0.00160886631602
C   3.69315067131765      3.54279566454522     -0.00155906667985
C   -2.45643712022637     -1.41831290883911     -0.00846337726810
C   1.22670532178455     -3.54347386990643     -0.00780316414624
C   -2.45512491866593      2.83421703463423     -0.00818572995999
C   4.91452486062398     -1.42718653794377      0.00136387641845
C   1.22142509354026      4.97013443726031      0.00150231067809
C   4.89300870916237      2.82518837202648     -0.00039219795739
C   -1.22669652864725     -3.54347062507680     -0.00753595973677
C   -3.68181849668397      0.70932533873199     -0.00807686886569
C   3.69314758099218     -3.54280096939050      0.00148176697923
C   -1.22143177215231      4.97012866986289      0.00168580605083
C   6.13477145276790      0.68054831910577     -0.00083909176631
C   3.65678936045204      4.97295361556775     -0.00065042889723
C   -2.45512642789169     -2.83421472106065      0.00758666850712
C   -3.68181869921921     -0.70932533146830      0.00810055625144
C   4.89301309775526     -2.82519973363176      0.00021895393805
C   -0.00000059327114      5.65044773803267      0.00045449734393
C   6.13477559217374     -0.68055448207492      0.00042622874941
C   2.47813196269732      5.65357712333155      0.00063835075260
C   1.22142288457925     -4.97012668293268     -0.00129718634452
C   -3.69316190412301      3.54279732619245     -0.00139355922051
C   -1.22142804110313     -4.97011793159564     -0.00140994817719
C   -4.91452132810043      1.42717581899491     -0.00153192130862
C   3.65678749952045     -4.97295485423912      0.00080007163680
C   -2.47813805026426      5.65357479452875      0.00092287576113
C   -3.69314125872231     -3.54278984697859      0.00136564082345
C   -4.91451200321153     -1.42718062802730      0.00139857359209
C   -0.00000552908399     -5.65043791501335      0.00005899322272
C   -4.89302000425900      2.82518897091939     -0.00040227981744
C   2.47812647313991     -5.65357317188818     -0.00029052915548
C   -3.65679823041642      4.97295655404175     -0.00047374852278
C   -4.89299899901461     -2.82519139505969      0.00006491824035
C   -2.47812801824129     -5.65356579800621     -0.00056571680280
C   -6.13477002348955      0.68054913825639     -0.00086464346868
C   -3.65678835334731     -4.97294365097028      0.00058578382008
C   -6.13476456307132     -0.68055354348201      0.00040575295444
H   5.83528897565761      3.36927626695423      0.00396712770529
H   7.07385965258860      1.22821762089947     -0.00037744837300
H   4.60066374401555      5.51238117445323     -0.00014522814529
H   5.83528386714679     -3.36930568472863     -0.00423551337640
H   -0.00001167146422      6.73853104613662     -0.00389474766392
H   7.07386165167227     -1.22822657074368     -0.00008250934481
H   2.47331421164041      6.74068466339473      0.00017162982210
H   4.60066897122302     -5.51237575717576      0.00039007446835
H   -2.47331820069565      6.74068209160650      0.00047297644710
H   -0.00000978838621     -6.73852780445195      0.00458867820736
H   -5.83530143450167      3.36927132229595      0.00410314985360
H   2.47330840367253     -6.74068500242887      0.00027980126949
H   -4.60067436136587      5.51237839860371      0.00002010017831
H   -5.83527902699321     -3.36928859177951     -0.00451481925734
H   -2.47329986759855     -6.74067870613986     -0.00016951527498
H   -7.07385728692578      1.22822084484047     -0.00046143985387
H   -4.60067330624313     -5.51236229778631      0.00021776644566
H   -7.07385645456741     -1.22822025997701     -0.00017736581114

    units angstrom      # Angstroms are the default
    no_reorient         # Geometry fixed, default
    symmetry c1         # C1 symmetry, default
}

set {
    scf_type DF         # Density fitting, faster than exact integrals
    freeze_core True    # Freeze core electrons
    basis jun-cc-pVDZ   # Jun-cc-pVDZ basis set, recommended for sSAPT0 in https://doi.org/10.1063/1.4867135
}

energy('ssapt0')        # Compute sSAPT0 energy, includes also SAPT0
--------------------------------------------------------------------------

  //              Dimer HF             //
    Molecular point group: c1
  Charge       = -1
  Multiplicity = 1
  Basis Set: JUN-CC-PVDZ
    Blend: JUN-CC-PVDZ
  Basis Set: (JUN-CC-PVDZ AUX)
    Blend: JUN-CC-PVDZ-JKFIT
  @DF-RHF Final Energy: -2478.65854145783078
    Total Energy =                      -2478.6585414578312339
 Dipole X            :         -0.0004947            0.0000481           -0.0004466
 Dipole Y            :          0.0010137           -0.0001453            0.0008684
 Dipole Z            :        -28.5219285           38.0082234            9.4862949
 Magnitude           :                                                    9.4862949
  //            Monomer A HF           //
    Molecular point group: c1
  Multiplicity = 1
  Basis Set: JUN-CC-PVDZ
    Blend: JUN-CC-PVDZ
  Basis Set: (JUN-CC-PVDZ AUX)
    Blend: JUN-CC-PVDZ-JKFIT
  @DF-RHF Final Energy:  -422.77164976550341
    Total Energy =                       -422.7716497655034118
  //            Monomer B HF           //
    Molecular point group: c1

    Geometry (in Angstrom), charge = 0, multiplicity = 1:

       Center              X                  Y                   Z               Mass
    ------------   -----------------  -----------------  -----------------  -----------------
      Gh(B)          -0.000198161052     0.000273808717    -5.483741847969    11.009305360000
      Gh(F)          -0.000000401852    -0.000000464183    -4.070956847969    18.998403162730
      Gh(F)           1.147859598148     0.675780735817    -5.954882847969    18.998403162730
      Gh(F)           0.011917658148    -1.332011464183    -5.954680847969    18.998403162730
      Gh(F)          -1.159666401852     0.656073035817    -5.954601847969    18.998403162730
         C            1.225311973413     0.707538196736     0.722361779314    12.000000000000
         C            1.225323934041    -0.707538986754     0.710030969744    12.000000000000
         C           -0.000006075942     1.414965821907     0.709497346223    12.000000000000
         C            2.456448831939     1.418327794995     0.725248636714    12.000000000000
         C            0.000010905269    -1.414976590818     0.719696903548    12.000000000000
         C           -1.225300870919     0.707545281801     0.724613299637    12.000000000000
         C            2.456437833310    -1.418323396064     0.707785812887    12.000000000000
         C           -0.000001254988     2.836800939098     0.707093796089    12.000000000000
         C            3.681826775460     0.709317863818     0.708134602685    12.000000000000
         C            2.455120126855     2.834223569306     0.708032045724    12.000000000000
         C            3.681821183209    -0.709333931612     0.724207086703    12.000000000000
         C           -1.225313520698    -0.707527607727     0.711103731171    12.000000000000
         C            1.226699659192     3.543469391811     0.724391118634    12.000000000000
         C            0.000004862847    -2.836782231419     0.724545071169    12.000000000000
         C           -2.456435954859     1.418316826102     0.724648695483    12.000000000000
         C            2.455123495769    -2.834230120772     0.724055178336    12.000000000000
         C           -1.226714286599     3.543468971567     0.724494451853    12.000000000000
         C            4.914517373191     1.427172780306     0.714615285715    12.000000000000
         C            3.693150269466     3.542795200362     0.714665085351    12.000000000000
         C           -2.456437522078    -1.418313373022     0.707760774762    12.000000000000
         C            1.226704919933    -3.543474334090     0.708420987884    12.000000000000
         C           -2.455125320518     2.834216570451     0.708038422071    12.000000000000
         C            4.914524458772    -1.427187002127     0.717588028449    12.000000000000
         C            1.221424691688     4.970133973077     0.717726462709    12.000000000000
         C            4.893008307311     2.825187907843     0.715831954073    12.000000000000
         C           -1.226696930499    -3.543471089260     0.708688192294    12.000000000000
         C           -3.681818898536     0.709324874549     0.708147283165    12.000000000000
         C            3.693147179140    -3.542801433574     0.717705919010    12.000000000000
         C           -1.221432174004     4.970128205680     0.717909958081    12.000000000000
         C            6.134771050916     0.680547854922     0.715385060264    12.000000000000
         C            3.656788958600     4.972953151384     0.715573723133    12.000000000000
         C           -2.455126829744    -2.834215185244     0.723810820538    12.000000000000
         C           -3.681819101071    -0.709325795652     0.724324708282    12.000000000000
         C            4.893012695903    -2.825200197815     0.716443105969    12.000000000000
         C           -0.000000995123     5.650447273849     0.716678649374    12.000000000000
         C            6.134775190322    -0.680554946258     0.716650380780    12.000000000000
         C            2.478131560845     5.653576659148     0.716862502783    12.000000000000
         C            1.221422482727    -4.970127147116     0.714926965686    12.000000000000
         C           -3.693162305975     3.542796862009     0.714830592810    12.000000000000
         C           -1.221428442955    -4.970118395779     0.714814203853    12.000000000000
         C           -4.914521729952     1.427175354812     0.714692230722    12.000000000000
         C            3.656787097669    -4.972955318422     0.717024223667    12.000000000000
         C           -2.478138452116     5.653574330345     0.717147027792    12.000000000000
         C           -3.693141660574    -3.542790311162     0.717589792854    12.000000000000
         C           -4.914512405063    -1.427181092211     0.717622725623    12.000000000000
         C           -0.000005930936    -5.650438379197     0.716283145253    12.000000000000
         C           -4.893020406111     2.825188506736     0.715821872213    12.000000000000
         C            2.478126071288    -5.653573636072     0.715933622875    12.000000000000
         C           -3.656798632268     4.972956089858     0.715750403508    12.000000000000
         C           -4.892999400866    -2.825191859243     0.716289070271    12.000000000000
         C           -2.478128420093    -5.653566262190     0.715658435228    12.000000000000
         C           -6.134770425341     0.680548674073     0.715359508562    12.000000000000
         C           -3.656788755199    -4.972944115154     0.716809935851    12.000000000000
         C           -6.134764964923    -0.680554007665     0.716629904985    12.000000000000
         H            5.835288573806     3.369275802771     0.720191279736     1.007825032230
         H            7.073859250737     1.228217156716     0.715846703658     1.007825032230
         H            4.600663342164     5.512380710270     0.716078923885     1.007825032230
         H            5.835283465295    -3.369306148912     0.711988638654     1.007825032230
         H           -0.000012073316     6.738530581953     0.712329404367     1.007825032230
         H            7.073861249820    -1.228227034927     0.716141642686     1.007825032230
         H            2.473313809789     6.740684199211     0.716395781853     1.007825032230
         H            4.600668569371    -5.512376221359     0.716614226499     1.007825032230
         H           -2.473318602548     6.740681627423     0.716697128478     1.007825032230
         H           -0.000010190238    -6.738528268635     0.720812830238     1.007825032230
         H           -5.835301836354     3.369270858113     0.720327301884     1.007825032230
         H            2.473308001821    -6.740685466612     0.716503953300     1.007825032230
         H           -4.600674763218     5.512377934420     0.716244252209     1.007825032230
         H           -5.835279428845    -3.369289055963     0.711709332773     1.007825032230
         H           -2.473300269450    -6.740679170323     0.716054636756     1.007825032230
         H           -7.073857688778     1.228220380657     0.715762712177     1.007825032230
         H           -4.600673708095    -5.512362761970     0.716441918476     1.007825032230
         H           -7.073856856419    -1.228220724160     0.716046786219     1.007825032230

  Charge       = 0
  Multiplicity = 1
  Basis Set: JUN-CC-PVDZ
    Blend: JUN-CC-PVDZ
  Basis Set: (JUN-CC-PVDZ AUX)
    Blend: JUN-CC-PVDZ-JKFIT

    Orbital Energies [Eh]
    ---------------------

    Doubly Occupied:

       1A    -11.260656     2A    -11.260211     3A    -11.260209
       4A    -11.259484     5A    -11.259484     6A    -11.259307
       7A    -11.259096     8A    -11.259021     9A    -11.259020
      10A    -11.258706    11A    -11.258703    12A    -11.258630
      13A    -11.258570    14A    -11.258565    15A    -11.258563
      16A    -11.258532    17A    -11.258526    18A    -11.258511
      19A    -11.258494    20A    -11.258489    21A    -11.258484
      22A    -11.258389    23A    -11.258385    24A    -11.258095
      25A    -11.257419    26A    -11.257356    27A    -11.257355
      28A    -11.257219    29A    -11.257219    30A    -11.257134
      31A    -11.256512    32A    -11.256441    33A    -11.256440
      34A    -11.256330    35A    -11.256330    36A    -11.256283
      37A    -11.252374    38A    -11.252374    39A    -11.252372
      40A    -11.252371    41A    -11.252369    42A    -11.252367
      43A    -11.251500    44A    -11.251498    45A    -11.251497
      46A    -11.251491    47A    -11.251490    48A    -11.251486
      49A    -11.250936    50A    -11.250935    51A    -11.250934
      52A    -11.250931    53A    -11.250930    54A    -11.250929
      55A     -1.244218    56A     -1.219962    57A     -1.219962
      58A     -1.189680    59A     -1.189673    60A     -1.181093
      61A     -1.157688    62A     -1.149116    63A     -1.135638
      64A     -1.135631    65A     -1.113321    66A     -1.113316
      67A     -1.082574    68A     -1.082567    69A     -1.078749
      70A     -1.066106    71A     -1.066102    72A     -1.039537
      73A     -1.024430    74A     -1.021919    75A     -1.021875
      76A     -1.017856    77A     -1.012915    78A     -0.987168
      79A     -0.987122    80A     -0.962009    81A     -0.961959
      82A     -0.894425    83A     -0.894399    84A     -0.888092
      85A     -0.886339    86A     -0.886281    87A     -0.881549
      88A     -0.881501    89A     -0.862032    90A     -0.837523
      91A     -0.818351    92A     -0.816765    93A     -0.812283
      94A     -0.812274    95A     -0.794815    96A     -0.794805
      97A     -0.746782    98A     -0.745004    99A     -0.733565
     100A     -0.733556   101A     -0.732314   102A     -0.732290
     103A     -0.716640   104A     -0.699108   105A     -0.699097
     106A     -0.693728   107A     -0.693712   108A     -0.661362
     109A     -0.653252   110A     -0.651312   111A     -0.650378
     112A     -0.650372   113A     -0.639493   114A     -0.639491
     115A     -0.629860   116A     -0.627670   117A     -0.627654
     118A     -0.606506   119A     -0.605909   120A     -0.601811
     121A     -0.599876   122A     -0.599845   123A     -0.593781
     124A     -0.591380   125A     -0.591370   126A     -0.585391
     127A     -0.576396   128A     -0.576391   129A     -0.567445
     130A     -0.567430   131A     -0.566099   132A     -0.566079
     133A     -0.558872   134A     -0.554976   135A     -0.554970
     136A     -0.538721   137A     -0.538719   138A     -0.538259
     139A     -0.538253   140A     -0.529853   141A     -0.528252
     142A     -0.523006   143A     -0.523000   144A     -0.500632
     145A     -0.495692   146A     -0.493367   147A     -0.487919
     148A     -0.485220   149A     -0.481899   150A     -0.481891
     151A     -0.470411   152A     -0.470393   153A     -0.451180
     154A     -0.451102   155A     -0.439162   156A     -0.439153
     157A     -0.404832   158A     -0.404809   159A     -0.403476
     160A     -0.375517   161A     -0.375514   162A     -0.349219
     163A     -0.337667   164A     -0.336652   165A     -0.336595
     166A     -0.311196   167A     -0.298189   168A     -0.284440
     169A     -0.284386   170A     -0.225020   171A     -0.224954

  @DF-RHF Final Energy: -2055.89213553979016

   => Energetics <=

    Nuclear Repulsion Energy =           6452.5568002797772351
    One-Electron Energy =              -15636.4412575855294563
    Two-Electron Energy =                7127.9923217659625152
    Total Energy =                      -2055.8921355397897059
 Dipole X            :          0.0000442            0.0000419            0.0000861
 Dipole Y            :          0.0000359           -0.0000426           -0.0000067
 Dipole Z            :       -462.8812882          462.8844392            0.0031510
 Magnitude           :                                                    0.0031522

    SAPT Results
  --------------------------------------------------------------------------------------------------------
    Electrostatics                  8.81271582 [mEh]       5.53006267 [kcal/mol]      23.13778219 [kJ/mol]
      Elst10,r                      8.81271582 [mEh]       5.53006267 [kcal/mol]      23.13778219 [kJ/mol]

    Exchange                        0.00265898 [mEh]       0.00166854 [kcal/mol]       0.00698116 [kJ/mol]
      Exch10                        0.00265898 [mEh]       0.00166854 [kcal/mol]       0.00698116 [kJ/mol]
      Exch10(S^2)                   0.00265903 [mEh]       0.00166857 [kcal/mol]       0.00698128 [kJ/mol]

    Induction                      -3.57152734 [mEh]      -2.24116724 [kcal/mol]      -9.37704373 [kJ/mol]
      Ind20,r                      -3.60800934 [mEh]      -2.26406004 [kcal/mol]      -9.47282721 [kJ/mol]
      Exch-Ind20,r                  0.00275508 [mEh]       0.00172884 [kcal/mol]       0.00723346 [kJ/mol]
      delta HF,r (2)                0.03372692 [mEh]       0.02116396 [kcal/mol]       0.08855002 [kJ/mol]

    Dispersion                     -0.82568034 [mEh]      -0.51812224 [kcal/mol]      -2.16782345 [kJ/mol]
      Disp20                       -0.82823868 [mEh]      -0.51972762 [kcal/mol]      -2.17454035 [kJ/mol]
      Exch-Disp20                   0.00255833 [mEh]       0.00160538 [kcal/mol]       0.00671690 [kJ/mol]
      Disp20 (SS)                  -0.41411934 [mEh]      -0.25986381 [kcal/mol]      -1.08727018 [kJ/mol]
      Disp20 (OS)                  -0.41411934 [mEh]      -0.25986381 [kcal/mol]      -1.08727018 [kJ/mol]
      Exch-Disp20 (SS)              0.00191839 [mEh]       0.00120381 [kcal/mol]       0.00503673 [kJ/mol]
      Exch-Disp20 (OS)              0.00063994 [mEh]       0.00040157 [kcal/mol]       0.00168017 [kJ/mol]

  Total HF                          5.24384746 [mEh]       3.29056396 [kcal/mol]      13.76771962 [kJ/mol]
  Total SAPT0                       4.41816712 [mEh]       2.77244172 [kcal/mol]      11.59989617 [kJ/mol]

  Special recipe for scaled SAPT0 (see Manual):
    Electrostatics sSAPT0           8.81271582 [mEh]       5.53006267 [kcal/mol]      23.13778219 [kJ/mol]
    Exchange sSAPT0                 0.00265898 [mEh]       0.00166854 [kcal/mol]       0.00698116 [kJ/mol]
    Induction sSAPT0               -3.57152734 [mEh]      -2.24116724 [kcal/mol]      -9.37704373 [kJ/mol]
    Dispersion sSAPT0              -0.82568034 [mEh]      -0.51812224 [kcal/mol]      -2.16782345 [kJ/mol]
  Total sSAPT0                      4.41816712 [mEh]       2.77244172 [kcal/mol]      11.59989617 [kJ/mol]
  --------------------------------------------------------------------------------------------------------

*** Psi4 exiting successfully. Buy a developer a beer!
