                               Psi4 1.9 release

  ==> Input File <==

--------------------------------------------------------------------------
memory 32 GB # how much memory is available ! Depends on the nodes/cores !

molecule dimer {
# monomer A
-1 1    # Charge and multiplicity
B -1.977592e-04  2.742729e-04 -2.599966
F  1.123153e-16  1.430594e-17 -1.187181
F  1.147860e+00  6.757812e-01 -3.071107
F  1.191806e-02 -1.332011e+00 -3.070905
F -1.159666e+00  6.560735e-01 -3.070826
--
# monomer B
0 1     # Charge and multiplicity
C   1.22531237526482      0.70753866091955      0.00613762728373
C   1.22532433589282     -0.70753852257020     -0.00619318228664
C   -0.00000567409046      1.41496628609039     -0.00672680580738
C   2.45644923379077      1.41832825917820      0.00902448468363
C   0.00001130712078     -1.41497612663474      0.00347275151708
C   -1.22530046906674      0.70754574598412      0.00838914760619
C   2.45643823516184     -1.41832293188077     -0.00843833914343
C   -0.00000085313587      2.83680140328112     -0.00913035594137
C   3.68182717731192      0.70931832800114     -0.00808954934571
C   2.45512052870677      2.83422403348893     -0.00819210630633
C   3.68182158506039     -0.70933346742900      0.00798293467272
C   -1.22531311884624     -0.70752714354401     -0.00512042085974
C   1.22670006104402      3.54346985599427      0.00816696660346
C   0.00000526469929     -2.83678176723568      0.00832091913869
C   -2.45643555300670      1.41831729028492      0.00842454345199
C   2.45512389762097     -2.83422965658853      0.00783102630520
C   -1.22671388474763      3.54346943575023      0.00827029982280
C   4.91451777504333      1.42717324448953     -0.00160886631602
C   3.69315067131765      3.54279566454522     -0.00155906667985
C   -2.45643712022637     -1.41831290883911     -0.00846337726810
C   1.22670532178455     -3.54347386990643     -0.00780316414624
C   -2.45512491866593      2.83421703463423     -0.00818572995999
C   4.91452486062398     -1.42718653794377      0.00136387641845
C   1.22142509354026      4.97013443726031      0.00150231067809
C   4.89300870916237      2.82518837202648     -0.00039219795739
C   -1.22669652864725     -3.54347062507680     -0.00753595973677
C   -3.68181849668397      0.70932533873199     -0.00807686886569
C   3.69314758099218     -3.54280096939050      0.00148176697923
C   -1.22143177215231      4.97012866986289      0.00168580605083
C   6.13477145276790      0.68054831910577     -0.00083909176631
C   3.65678936045204      4.97295361556775     -0.00065042889723
C   -2.45512642789169     -2.83421472106065      0.00758666850712
C   -3.68181869921921     -0.70932533146830      0.00810055625144
C   4.89301309775526     -2.82519973363176      0.00021895393805
C   -0.00000059327114      5.65044773803267      0.00045449734393
C   6.13477559217374     -0.68055448207492      0.00042622874941
C   2.47813196269732      5.65357712333155      0.00063835075260
C   1.22142288457925     -4.97012668293268     -0.00129718634452
C   -3.69316190412301      3.54279732619245     -0.00139355922051
C   -1.22142804110313     -4.97011793159564     -0.00140994817719
C   -4.91452132810043      1.42717581899491     -0.00153192130862
C   3.65678749952045     -4.97295485423912      0.00080007163680
C   -2.47813805026426      5.65357479452875      0.00092287576113
C   -3.69314125872231     -3.54278984697859      0.00136564082345
C   -4.91451200321153     -1.42718062802730      0.00139857359209
C   -0.00000552908399     -5.65043791501335      0.00005899322272
C   -4.89302000425900      2.82518897091939     -0.00040227981744
C   2.47812647313991     -5.65357317188818     -0.00029052915548
C   -3.65679823041642      4.97295655404175     -0.00047374852278
C   -4.89299899901461     -2.82519139505969      0.00006491824035
C   -2.47812801824129     -5.65356579800621     -0.00056571680280
C   -6.13477002348955      0.68054913825639     -0.00086464346868
C   -3.65678835334731     -4.97294365097028      0.00058578382008
C   -6.13476456307132     -0.68055354348201      0.00040575295444
H   5.83528897565761      3.36927626695423      0.00396712770529
H   7.07385965258860      1.22821762089947     -0.00037744837300
H   4.60066374401555      5.51238117445323     -0.00014522814529
H   5.83528386714679     -3.36930568472863     -0.00423551337640
H   -0.00001167146422      6.73853104613662     -0.00389474766392
H   7.07386165167227     -1.22822657074368     -0.00008250934481
H   2.47331421164041      6.74068466339473      0.00017162982210
H   4.60066897122302     -5.51237575717576      0.00039007446835
H   -2.47331820069565      6.74068209160650      0.00047297644710
H   -0.00000978838621     -6.73852780445195      0.00458867820736
H   -5.83530143450167      3.36927132229595      0.00410314985360
H   2.47330840367253     -6.74068500242887      0.00027980126949
H   -4.60067436136587      5.51237839860371      0.00002010017831
H   -5.83527902699321     -3.36928859177951     -0.00451481925734
H   -2.47329986759855     -6.74067870613986     -0.00016951527498
H   -7.07385728692578      1.22822084484047     -0.00046143985387
H   -4.60067330624313     -5.51236229778631      0.00021776644566
H   -7.07385645456741     -1.22822025997701     -0.00017736581114

    units angstrom      # Angstroms are the default
    no_reorient         # Geometry fixed, default
    symmetry c1         # C1 symmetry, default
}

set {
    scf_type DF         # Density fitting, faster than exact integrals
    freeze_core True    # Freeze core electrons
    basis jun-cc-pVDZ   # Jun-cc-pVDZ basis set, recommended for sSAPT0 in https://doi.org/10.1063/1.4867135
}

energy('ssapt0')        # Compute sSAPT0 energy, includes also SAPT0
--------------------------------------------------------------------------

  //              Dimer HF             //
    Molecular point group: c1
  Charge       = -1
  Multiplicity = 1
  Basis Set: JUN-CC-PVDZ
    Blend: JUN-CC-PVDZ
  Basis Set: (JUN-CC-PVDZ AUX)
    Blend: JUN-CC-PVDZ-JKFIT
  @DF-RHF Final Energy: -2478.31936249613864
    Total Energy =                      -2478.3193624961386377
 Dipole X            :         -0.0001712            0.0000481           -0.0001231
 Dipole Y            :          0.0004646           -0.0001453            0.0003193
 Dipole Z            :        -13.4696752           15.9390227            2.4693475
 Magnitude           :                                                    2.4693475
  //            Monomer A HF           //
    Molecular point group: c1
  Multiplicity = 1
  Basis Set: JUN-CC-PVDZ
    Blend: JUN-CC-PVDZ
  Basis Set: (JUN-CC-PVDZ AUX)
    Blend: JUN-CC-PVDZ-JKFIT
  @DF-RHF Final Energy:  -422.77700561286179
    Total Energy =                       -422.7770056128617853
  //            Monomer B HF           //
    Molecular point group: c1

    Geometry (in Angstrom), charge = 0, multiplicity = 1:

       Center              X                  Y                   Z               Mass
    ------------   -----------------  -----------------  -----------------  -----------------
      Gh(B)          -0.000198161052     0.000273808717    -2.299612652325    11.009305360000
      Gh(F)          -0.000000401852    -0.000000464183    -0.886827652325    18.998403162730
      Gh(F)           1.147859598148     0.675780735817    -2.770753652325    18.998403162730
      Gh(F)           0.011917658148    -1.332011464183    -2.770551652325    18.998403162730
      Gh(F)          -1.159666401852     0.656073035817    -2.770472652325    18.998403162730
         C            1.225311973413     0.707538196736     0.306490974959    12.000000000000
         C            1.225323934041    -0.707538986754     0.294160165388    12.000000000000
         C           -0.000006075942     1.414965821907     0.293626541868    12.000000000000
         C            2.456448831939     1.418327794995     0.309377832359    12.000000000000
         C            0.000010905269    -1.414976590818     0.303826099192    12.000000000000
         C           -1.225300870919     0.707545281801     0.308742495281    12.000000000000
         C            2.456437833310    -1.418323396064     0.291915008532    12.000000000000
         C           -0.000001254988     2.836800939098     0.291222991734    12.000000000000
         C            3.681826775460     0.709317863818     0.292263798329    12.000000000000
         C            2.455120126855     2.834223569306     0.292161241369    12.000000000000
         C            3.681821183209    -0.709333931612     0.308336282348    12.000000000000
         C           -1.225313520698    -0.707527607727     0.295232926815    12.000000000000
         C            1.226699659192     3.543469391811     0.308520314278    12.000000000000
         C            0.000004862847    -2.836782231419     0.308674266814    12.000000000000
         C           -2.456435954859     1.418316826102     0.308777891127    12.000000000000
         C            2.455123495769    -2.834230120772     0.308184373980    12.000000000000
         C           -1.226714286599     3.543468971567     0.308623647498    12.000000000000
         C            4.914517373191     1.427172780306     0.298744481359    12.000000000000
         C            3.693150269466     3.542795200362     0.298794280995    12.000000000000
         C           -2.456437522078    -1.418313373022     0.291889970407    12.000000000000
         C            1.226704919933    -3.543474334090     0.292550183529    12.000000000000
         C           -2.455125320518     2.834216570451     0.292167617715    12.000000000000
         C            4.914524458772    -1.427187002127     0.301717224093    12.000000000000
         C            1.221424691688     4.970133973077     0.301855658353    12.000000000000
         C            4.893008307311     2.825187907843     0.299961149718    12.000000000000
         C           -1.226696930499    -3.543471089260     0.292817387938    12.000000000000
         C           -3.681818898536     0.709324874549     0.292276478809    12.000000000000
         C            3.693147179140    -3.542801433574     0.301835114654    12.000000000000
         C           -1.221432174004     4.970128205680     0.302039153726    12.000000000000
         C            6.134771050916     0.680547854922     0.299514255909    12.000000000000
         C            3.656788958600     4.972953151384     0.299702918778    12.000000000000
         C           -2.455126829744    -2.834215185244     0.307940016182    12.000000000000
         C           -3.681819101071    -0.709325795652     0.308453903926    12.000000000000
         C            4.893012695903    -2.825200197815     0.300572301613    12.000000000000
         C           -0.000000995123     5.650447273849     0.300807845019    12.000000000000
         C            6.134775190322    -0.680554946258     0.300779576424    12.000000000000
         C            2.478131560845     5.653576659148     0.300991698428    12.000000000000
         C            1.221422482727    -4.970127147116     0.299056161331    12.000000000000
         C           -3.693162305975     3.542796862009     0.298959788455    12.000000000000
         C           -1.221428442955    -4.970118395779     0.298943399498    12.000000000000
         C           -4.914521729952     1.427175354812     0.298821426366    12.000000000000
         C            3.656787097669    -4.972955318422     0.301153419312    12.000000000000
         C           -2.478138452116     5.653574330345     0.301276223436    12.000000000000
         C           -3.693141660574    -3.542790311162     0.301718988498    12.000000000000
         C           -4.914512405063    -1.427181092211     0.301751921267    12.000000000000
         C           -0.000005930936    -5.650438379197     0.300412340898    12.000000000000
         C           -4.893020406111     2.825188506736     0.299951067858    12.000000000000
         C            2.478126071288    -5.653573636072     0.300062818520    12.000000000000
         C           -3.656798632268     4.972956089858     0.299879599152    12.000000000000
         C           -4.892999400866    -2.825191859243     0.300418265915    12.000000000000
         C           -2.478128420093    -5.653566262190     0.299787630872    12.000000000000
         C           -6.134770425341     0.680548674073     0.299488704206    12.000000000000
         C           -3.656788755199    -4.972944115154     0.300939131495    12.000000000000
         C           -6.134764964923    -0.680554007665     0.300759100629    12.000000000000
         H            5.835288573806     3.369275802771     0.304320475380     1.007825032230
         H            7.073859250737     1.228217156716     0.299975899302     1.007825032230
         H            4.600663342164     5.512380710270     0.300208119530     1.007825032230
         H            5.835283465295    -3.369306148912     0.296117834299     1.007825032230
         H           -0.000012073316     6.738530581953     0.296458600011     1.007825032230
         H            7.073861249820    -1.228227034927     0.300270838330     1.007825032230
         H            2.473313809789     6.740684199211     0.300524977497     1.007825032230
         H            4.600668569371    -5.512376221359     0.300743422143     1.007825032230
         H           -2.473318602548     6.740681627423     0.300826324122     1.007825032230
         H           -0.000010190238    -6.738528268635     0.304942025882     1.007825032230
         H           -5.835301836354     3.369270858113     0.304456497529     1.007825032230
         H            2.473308001821    -6.740685466612     0.300633148945     1.007825032230
         H           -4.600674763218     5.512377934420     0.300373447853     1.007825032230
         H           -5.835279428845    -3.369289055963     0.295838528418     1.007825032230
         H           -2.473300269450    -6.740679170323     0.300183832400     1.007825032230
         H           -7.073857688778     1.228220380657     0.299891907821     1.007825032230
         H           -4.600673708095    -5.512362761970     0.300571114121     1.007825032230
         H           -7.073856856419    -1.228220724160     0.300175981864     1.007825032230

  Charge       = 0
  Multiplicity = 1
  Basis Set: JUN-CC-PVDZ
    Blend: JUN-CC-PVDZ
  Basis Set: (JUN-CC-PVDZ AUX)
    Blend: JUN-CC-PVDZ-JKFIT

    Orbital Energies [Eh]
    ---------------------

    Doubly Occupied:

       1A    -11.260602     2A    -11.260149     3A    -11.260147
       4A    -11.259392     5A    -11.259391     6A    -11.259204
       7A    -11.258965     8A    -11.258893     9A    -11.258892
      10A    -11.258575    11A    -11.258572    12A    -11.258470
      13A    -11.258415    14A    -11.258414    15A    -11.258409
      16A    -11.258376    17A    -11.258370    18A    -11.258353
      19A    -11.258348    20A    -11.258344    21A    -11.258339
      22A    -11.258269    23A    -11.258264    24A    -11.258015
      25A    -11.257250    26A    -11.257189    27A    -11.257189
      28A    -11.257056    29A    -11.257056    30A    -11.256973
      31A    -11.256341    32A    -11.256272    33A    -11.256271
      34A    -11.256163    35A    -11.256163    36A    -11.256117
      37A    -11.252243    38A    -11.252243    39A    -11.252241
      40A    -11.252240    41A    -11.252237    42A    -11.252236
      43A    -11.251336    44A    -11.251334    45A    -11.251334
      46A    -11.251321    47A    -11.251320    48A    -11.251317
      49A    -11.250805    50A    -11.250804    51A    -11.250802
      52A    -11.250800    53A    -11.250798    54A    -11.250797
      55A     -1.243883    56A     -1.219703    57A     -1.219702
      58A     -1.189457    59A     -1.189450    60A     -1.180753
      61A     -1.157495    62A     -1.148901    63A     -1.135346
      64A     -1.135339    65A     -1.113128    66A     -1.113123
      67A     -1.082320    68A     -1.082313    69A     -1.078434
      70A     -1.065922    71A     -1.065918    72A     -1.039317
      73A     -1.024145    74A     -1.021586    75A     -1.021543
      76A     -1.017671    77A     -1.012736    78A     -0.986914
      79A     -0.986868    80A     -0.961798    81A     -0.961748
      82A     -0.894214    83A     -0.894188    84A     -0.887752
      85A     -0.886036    86A     -0.885978    87A     -0.881276
      88A     -0.881228    89A     -0.861823    90A     -0.837369
      91A     -0.818127    92A     -0.816484    93A     -0.812001
      94A     -0.811992    95A     -0.794619    96A     -0.794608
      97A     -0.746488    98A     -0.744745    99A     -0.733272
     100A     -0.733263   101A     -0.732105   102A     -0.732081
     103A     -0.716367   104A     -0.698897   105A     -0.698886
     106A     -0.693476   107A     -0.693461   108A     -0.661157
     109A     -0.652957   110A     -0.651017   111A     -0.650179
     112A     -0.650173   113A     -0.639291   114A     -0.639289
     115A     -0.629595   116A     -0.627396   117A     -0.627380
     118A     -0.606490   119A     -0.605775   120A     -0.601549
     121A     -0.599650   122A     -0.599619   123A     -0.593550
     124A     -0.591038   125A     -0.591027   126A     -0.585234
     127A     -0.576368   128A     -0.576362   129A     -0.567264
     130A     -0.567249   131A     -0.565821   132A     -0.565802
     133A     -0.558586   134A     -0.554756   135A     -0.554749
     136A     -0.538520   137A     -0.538518   138A     -0.538143
     139A     -0.538137   140A     -0.529634   141A     -0.528193
     142A     -0.522785   143A     -0.522779   144A     -0.500435
     145A     -0.495552   146A     -0.493160   147A     -0.487796
     148A     -0.484976   149A     -0.481652   150A     -0.481644
     151A     -0.470342   152A     -0.470324   153A     -0.450862
     154A     -0.450784   155A     -0.439025   156A     -0.439016
     157A     -0.404678   158A     -0.404655   159A     -0.403335
     160A     -0.375389   161A     -0.375387   162A     -0.349073
     163A     -0.337520   164A     -0.336469   165A     -0.336411
     166A     -0.311016   167A     -0.298092   168A     -0.284259
     169A     -0.284205   170A     -0.224824   171A     -0.224758

  @DF-RHF Final Energy: -2055.89513956486280

   => Energetics <=

    Nuclear Repulsion Energy =           6452.5568002797772351
    One-Electron Energy =              -15636.5131608421852434
    Two-Electron Energy =                7128.0612209975452060
    Total Energy =                      -2055.8951395648628022
 Dipole X            :          0.0000037            0.0000419            0.0000456
 Dipole Y            :          0.0000707           -0.0000426            0.0000282
 Dipole Z            :       -194.1155173          194.1128213           -0.0026961
 Magnitude           :                                                    0.0026966

    SAPT Results
  --------------------------------------------------------------------------------------------------------
    Electrostatics               -264.73557660 [mEh]    -166.12408236 [kcal/mol]    -695.06316061 [kJ/mol]
      Elst10,r                   -264.73557660 [mEh]    -166.12408236 [kcal/mol]    -695.06316061 [kJ/mol]

    Exchange                      648.69352174 [mEh]     407.06133047 [kcal/mol]    1703.14460669 [kJ/mol]
      Exch10                      648.69352174 [mEh]     407.06133047 [kcal/mol]    1703.14460669 [kJ/mol]
      Exch10(S^2)                 610.82178813 [mEh]     383.29645884 [kcal/mol]    1603.71238379 [kJ/mol]

    Induction                     -31.17526355 [mEh]     -19.56277323 [kcal/mol]     -81.85064318 [kJ/mol]
      Ind20,r                    -365.45170796 [mEh]    -229.32440895 [kcal/mol]    -959.49332707 [kJ/mol]
      Exch-Ind20,r                266.87709437 [mEh]     167.46790505 [kcal/mol]     700.68571473 [kJ/mol]
      delta HF,r (2)               67.39935004 [mEh]      42.29373068 [kcal/mol]     176.95696915 [kJ/mol]

    Dispersion                    -63.41423273 [mEh]     -39.79303181 [kcal/mol]    -166.49404509 [kJ/mol]
      Disp20                     -101.21576815 [mEh]     -63.51385341 [kcal/mol]    -265.74196267 [kJ/mol]
      Exch-Disp20                  37.80153542 [mEh]      23.72082160 [kcal/mol]      99.24791758 [kJ/mol]
      Disp20 (SS)                 -50.60788408 [mEh]     -31.75692670 [kcal/mol]    -132.87098133 [kJ/mol]
      Disp20 (OS)                 -50.60788408 [mEh]     -31.75692670 [kcal/mol]    -132.87098133 [kJ/mol]
      Exch-Disp20 (SS)             18.30864681 [mEh]      11.48884933 [kcal/mol]      48.06934559 [kJ/mol]
      Exch-Disp20 (OS)             19.49288861 [mEh]      12.23197227 [kcal/mol]      51.17857199 [kJ/mol]

  Total HF                        352.78268159 [mEh]     221.37447488 [kcal/mol]     926.23080290 [kJ/mol]
  Total SAPT0                     289.36844886 [mEh]     181.58144307 [kcal/mol]     759.73675781 [kJ/mol]

  Special recipe for scaled SAPT0 (see Manual):
    Electrostatics sSAPT0        -264.73557660 [mEh]    -166.12408236 [kcal/mol]    -695.06316061 [kJ/mol]
    Exchange sSAPT0               648.69352174 [mEh]     407.06133047 [kcal/mol]    1703.14460669 [kJ/mol]
    Induction sSAPT0               21.60626408 [mEh]      13.55813540 [kcal/mol]      56.72723853 [kJ/mol]
    Dispersion sSAPT0             -55.93804676 [mEh]     -35.10165429 [kcal/mol]    -146.86532155 [kJ/mol]
  Total sSAPT0                    349.62616246 [mEh]     219.39372922 [kcal/mol]     917.94336307 [kJ/mol]
  --------------------------------------------------------------------------------------------------------

*** Psi4 exiting successfully. Buy a developer a beer!
