                               Psi4 1.9 release

  ==> Input File <==

--------------------------------------------------------------------------
memory 64 GB # how much memory is available ! Depends on the nodes/cores !

molecule dimer {
# monomer A
-1 1    # Charge and multiplicity
B -0.000046  0.000337 4.199994
F -1.153597  0.000048 5.015641
F  1.153661 -0.000581 5.015641
F -0.000019 -1.153637 3.384360
F -0.000019  1.153978 3.384360
--
# monomer B
0 1     # Charge and multiplicity
C   -3.66844126402057      7.80375217008252      0.00190004133558
C   -4.84759871934653      7.13124183134024     -0.00046653359696
C   -4.89495929917518      5.69633040353158     -0.00103944469517
C   -3.65374067877320      4.98073034095895      0.00662099703436
C   -2.40942512149445      7.11398103667468      0.00209438359570
C   -2.42547734410473      5.68112195090346     -0.00491050527438
C   -1.19474401643570      7.78614419430947      0.00356656413763
C   0.03795902893699      7.09942164575698      0.00139585983271
C   0.03033258741920      5.66948955970466     -0.00408752508301
C   -1.20098450790502      4.96927034791531      0.00488220885047
C   1.27795782581485      7.77285944319479      0.00277170839332
C   2.48535808472416      7.08769688523756      0.00049722048857
C   2.48612868491717      5.65477081024076     -0.00644052849921
C   1.25408291964399      4.95607811366431      0.00518741308898
C   3.75171459140595      7.76391215098033      0.00062407186893
C   4.92356605618520      7.07878077698995     -0.00143240883900
C   4.95560727132542      5.64344746336949     -0.00159282164606
C   3.70680153420475      4.94121020833308      0.00349873852374
H   -3.65852113775815      8.89082741913536      0.00358502958574
H   -1.18921332975660      8.87412108735996      0.00753844057883
H   1.28429423888630      8.86083343548850      0.00693053253426
H   3.75354208679975      8.85103527897216      0.00214659618464
H   5.86995870320703      7.61379483465560     -0.00235777588134
H   -5.78823170750226      7.67630221293400     -0.00202638095293
C   -6.09197395869619      4.99326001364347     -0.00291168518608
C   -6.12866148031747      3.58258016879823     -0.00171050815740
C   -3.66457974004527      3.56418217974434     -0.00463560277484
C   -4.89429820469869      2.86108077590057      0.00453338221034
C   -2.43733499489796      2.84761165708481      0.00719617576166
C   -1.20922785759670      3.54788693497833     -0.00648285103018
C   1.24714157216223      3.53468075142962     -0.00729145743546
C   0.01517603956900      2.83311183930540      0.00439272578912
C   2.46764517244071      2.82128997725533      0.00449278391269
C   3.70254947457969      3.52466015442405     -0.00899517692985
C   6.14498038638375      4.92757236613191     -0.00282626685777
C   6.16658835886151      3.51658447594213     -0.00065971342101
C   4.92460995845939      2.80840792535402      0.00587903281610
H   7.08990550964105      5.46688776622306     -0.00658814770723
H   -7.03104175110130      5.54268795285765     -0.00714490013730
C   -7.33969804112295      2.85841153457957     -0.00333767559888
C   -7.36488195805880      1.47032337158330     -0.00157213747140
C   -4.90350460894690      1.44442681216000     -0.00628840166334
C   -6.13225715261081      0.73993935705394      0.00600164231964
C   -3.67687480051673      0.72669714267312      0.00433931473643
C   -2.44565658606518      1.42964113326212     -0.00597039546461
C   -1.22360068130162      0.71532450163492      0.00545886906656
C   0.00763786931376      1.41738314923765      0.00392452278437
C   1.23121980774686      0.70211669058719     -0.01490206287210
C   2.46082110053113      1.40329203612573      0.00460244601878
C   3.68443025419614      0.68719842821222      0.00377365974158
C   4.91870890153864      1.39173456118907     -0.00862816189375
C   7.36980207796101      2.77948220318441     -0.00242013321349
C   7.38016266612146      1.39121750785509     -0.00087345036788
C   6.13979953912259      0.67411862320065      0.00545489144369
H   -8.27919079934664      3.40711804112415     -0.00763522772059
H   8.31511347147953      3.31811809662368     -0.00663070901292
C   -8.59175593758115      0.72483255304480     -0.00123170985383
C   -8.59902460370342     -0.63263980622873      0.00089141472904
C   -6.13981313911873     -0.67413663715361     -0.00609792660607
C   -7.38018411213749     -1.39126618958160      0.00131813493501
C   -4.91868448025621     -1.39175501803000      0.00624257154343
C   -3.68443829568458     -0.68723731573599     -0.00478966852105
C   -2.46081704024768     -1.40334517882457      0.00575341766833
C   -1.23116201232071     -0.70217386488055     -0.00636696112346
C   -0.00756962538737     -1.41741884941102      0.00108956317991
C   1.22364771588843     -0.71527537726392      0.01109518512883
C   2.44567064933149     -1.42964328900682     -0.00065482763106
C   3.67686670284649     -0.72670743155550     -0.00479541202602
C   6.13224884641929     -0.73997883984993     -0.00632338623858
C   4.90351914550401     -1.44445752054090      0.00751768830159
C   8.59901484869081      0.63260386666793     -0.00101133422380
C   8.59174548810050     -0.72485086719319      0.00072504603735
C   7.36486276438985     -1.47033266560598      0.00049486934466
H   -9.52830597181814      1.27684744919284     -0.00270163681798
H   9.54141097460619      1.17457248844457     -0.00206336648518
C   -7.36983790976868     -2.77954514593389      0.00312634335708
C   -4.92459910905015     -2.80843725734101     -0.00460528907921
C   -6.16662249566744     -3.51665219282533      0.00169655107992
C   -3.70251035970491     -3.52468154912026      0.00571878010666
C   -2.46764698511392     -2.82132596280400     -0.00632585824990
C   -0.01513347410770     -2.83314164539971     -0.00604426974092
C   -1.24712184122656     -3.53473217556300      0.00551968366725
C   1.20924506964357     -3.54791467864352      0.00805871345849
C   2.43733602215464     -2.84764173817541     -0.00608104485234
C   4.89430234377080     -2.86112296828604     -0.00526030478103
C   3.66461525504104     -3.56421984553201      0.00761911515957
C   6.12863901474565     -3.58258405771778      0.00096495711699
C   7.33967266469532     -2.85841330737039      0.00248018319869
H   -9.54144911125902     -1.17456346666430      0.00226083090216
H   9.52826186807155     -1.27691907390448      0.00197485379837
H   -8.31516504384864     -3.31814985321231      0.00729857188773
H   8.27915514249207     -3.40714078989363      0.00681973918158
C   -6.14499418870218     -4.92764727278338      0.00302254913999
C   -3.70678334799751     -4.94126171411716     -0.00679841894792
C   -4.95559005800169     -5.64349397349412      0.00116871569699
C   -2.48612132622665     -5.65478557440947      0.00614125209662
C   -1.25405833548005     -4.95612205000132     -0.00503435388927
C   1.20101257386816     -4.96928038819302     -0.00385322963129
C   -0.03033667441341     -5.66952030313900      0.00398997003238
C   3.65375010132847     -4.98074377541453     -0.00309522988330
C   2.42549269587528     -5.68117463552727      0.00628170066869
C   6.09196561781097     -4.99325796338655      0.00325918379042
C   4.89497644461045     -5.69634842095790      0.00202298796027
H   -7.08989238804069     -5.46699984223871      0.00742531082125
H   7.03105520920009     -5.54265853633254      0.00683896355417
C   -4.92354532219813     -7.07882109967734      0.00061394679214
C   -2.48534208823777     -7.08772807792913     -0.00189594564379
C   -3.75168589177895     -7.76394715763627     -0.00170126671874
C   -0.03794895698805     -7.09946487446944     -0.00168022049625
C   -1.27795610040136     -7.77290438466689     -0.00366491325785
C   2.40944432072629     -7.11402201200282     -0.00081701968533
C   1.19474993715296     -7.78618536556242     -0.00296931056689
C   4.84762105249800     -7.13126211057943      0.00168979497423
C   3.66847160587561     -7.80378799294376     -0.00065863938960
H   -5.86994035041618     -7.61383059804164      0.00215798365757
H   5.78824962538815     -7.67633218931421      0.00281691445618
H   -3.75352693944918     -8.85107156923607     -0.00353718114765
H   -1.28430440589466     -8.86087539249706     -0.00809229711623
H   1.18922157469537     -8.87416062058945     -0.00706194725726
H   3.65854661482387     -8.89086063405326     -0.00231318081200

    units angstrom      # Angstroms are the default
    no_reorient         # Geometry fixed, default
    symmetry c1         # C1 symmetry, default
}

set {
    scf_type DF         # Density fitting, faster than exact integrals
    freeze_core True    # Freeze core electrons
    basis jun-cc-pVDZ   # Jun-cc-pVDZ basis set, recommended for sSAPT0 in https://doi.org/10.1063/1.4867135
}

energy('ssapt0')        # Compute sSAPT0 energy, includes also SAPT0
--------------------------------------------------------------------------

  //              Dimer HF             //
    Molecular point group: c1
  Charge       = -1
  Multiplicity = 1
  Basis Set: JUN-CC-PVDZ
    Blend: JUN-CC-PVDZ
  Basis Set: (JUN-CC-PVDZ AUX)
    Blend: JUN-CC-PVDZ-JKFIT
  @DF-RHF Final Energy: -4073.11242308388728
    Total Energy =                      -4073.1124230838868243
 Dipole X            :          0.0010542           -0.0001188            0.0009353
 Dipole Y            :          0.0014017           -0.0002727            0.0011290
 Dipole Z            :         19.0416351          -24.9951826           -5.9535475
 Magnitude           :                                                    5.9535477
  //            Monomer A HF           //
    Molecular point group: c1
  Multiplicity = 1
  Basis Set: JUN-CC-PVDZ
    Blend: JUN-CC-PVDZ
  Basis Set: (JUN-CC-PVDZ AUX)
    Blend: JUN-CC-PVDZ-JKFIT
  @DF-RHF Final Energy:  -422.77285276670182
    Total Energy =                       -422.7728527667018170
  //            Monomer B HF           //
    Molecular point group: c1

    Geometry (in Angstrom), charge = 0, multiplicity = 1:

       Center              X                  Y                   Z               Mass
    ------------   -----------------  -----------------  -----------------  -----------------
      Gh(B)          -0.000050191042     0.000351518223     3.910713713051    11.009305360000
      Gh(F)          -1.153601191042     0.000062518223     4.726360713051    18.998403162730
      Gh(F)           1.153656808958    -0.000566481777     4.726360713051    18.998403162730
      Gh(F)          -0.000023191042    -1.153622481777     3.095079713051    18.998403162730
      Gh(F)          -0.000023191042     1.153992518223     3.095079713051    18.998403162730
         C           -3.668445455062     7.803766688305    -0.287380245613    12.000000000000
         C           -4.847602910388     7.131256349563    -0.289746820546    12.000000000000
         C           -4.894963490217     5.696344921754    -0.290319731644    12.000000000000
         C           -3.653744869815     4.980744859182    -0.282659289914    12.000000000000
         C           -2.409429312536     7.113995554897    -0.287185903353    12.000000000000
         C           -2.425481535146     5.681136469126    -0.294190792223    12.000000000000
         C           -1.194748207477     7.786158712532    -0.285713722811    12.000000000000
         C            0.037954837895     7.099436163980    -0.287884427116    12.000000000000
         C            0.030328396378     5.669504077927    -0.293367812032    12.000000000000
         C           -1.200988698947     4.969284866138    -0.284398078098    12.000000000000
         C            1.277953634773     7.772873961417    -0.286508578555    12.000000000000
         C            2.485353893683     7.087711403460    -0.288783066460    12.000000000000
         C            2.486124493876     5.654785328463    -0.295720815448    12.000000000000
         C            1.254078728602     4.956092631887    -0.284092873860    12.000000000000
         C            3.751710400364     7.763926669203    -0.288656215080    12.000000000000
         C            4.923561865144     7.078795295213    -0.290712695788    12.000000000000
         C            4.955603080284     5.643461981592    -0.290873108595    12.000000000000
         C            3.706797343163     4.941224726556    -0.285781548425    12.000000000000
         H           -3.658525328800     8.890841937358    -0.285695257363     1.007825032230
         H           -1.189217520798     8.874135605583    -0.281741846370     1.007825032230
         H            1.284290047845     8.860847953711    -0.282349754414     1.007825032230
         H            3.753537895758     8.851049797195    -0.287133690764     1.007825032230
         H            5.869954512165     7.613809352878    -0.291638062830     1.007825032230
         H           -5.788235898544     7.676316731157    -0.291306667902     1.007825032230
         C           -6.091978149738     4.993274531866    -0.292191972135    12.000000000000
         C           -6.128665671359     3.582594687021    -0.290990795106    12.000000000000
         C           -3.664583931087     3.564196697967    -0.293915889723    12.000000000000
         C           -4.894302395740     2.861095294123    -0.284746904738    12.000000000000
         C           -2.437339185940     2.847626175307    -0.282084111187    12.000000000000
         C           -1.209232048638     3.547901453201    -0.295763137979    12.000000000000
         C            1.247137381121     3.534695269652    -0.296571744384    12.000000000000
         C            0.015171848527     2.833126357528    -0.284887561159    12.000000000000
         C            2.467640981399     2.821304495478    -0.284787503036    12.000000000000
         C            3.702545283538     3.524674672647    -0.298275463878    12.000000000000
         C            6.144976195342     4.927586884354    -0.292106553806    12.000000000000
         C            6.166584167820     3.516598994165    -0.289940000370    12.000000000000
         C            4.924605767418     2.808422443577    -0.283401254132    12.000000000000
         H            7.089901318599     5.466902284446    -0.295868434656     1.007825032230
         H           -7.031045942143     5.542702471080    -0.296425187086     1.007825032230
         C           -7.339702232165     2.858426052802    -0.292617962547    12.000000000000
         C           -7.364886149100     1.470337889806    -0.290852424420    12.000000000000
         C           -4.903508799989     1.444441330383    -0.295568688612    12.000000000000
         C           -6.132261343652     0.739953875277    -0.283278644629    12.000000000000
         C           -3.676878991558     0.726711660896    -0.284940972212    12.000000000000
         C           -2.445660777107     1.429655651485    -0.295250682413    12.000000000000
         C           -1.223604872343     0.715339019858    -0.283821417882    12.000000000000
         C            0.007633678272     1.417397667460    -0.285355764164    12.000000000000
         C            1.231215616705     0.702131208810    -0.304182349821    12.000000000000
         C            2.460816909489     1.403306554348    -0.284677840930    12.000000000000
         C            3.684426063155     0.687212946435    -0.285506627207    12.000000000000
         C            4.918704710497     1.391749079412    -0.297908448842    12.000000000000
         C            7.369797886919     2.779496721407    -0.291700420162    12.000000000000
         C            7.380158475080     1.391232026078    -0.290153737316    12.000000000000
         C            6.139795348081     0.674133141423    -0.283825395505    12.000000000000
         H           -8.279194990388     3.407132559347    -0.296915514669     1.007825032230
         H            8.315109280438     3.318132614846    -0.295910995961     1.007825032230
         C           -8.591760128623     0.724847071267    -0.290511996802    12.000000000000
         C           -8.599028794745    -0.632625288006    -0.288388872220    12.000000000000
         C           -6.139817330160    -0.674122118931    -0.295378213555    12.000000000000
         C           -7.380188303179    -1.391251671359    -0.287962152014    12.000000000000
         C           -4.918688671298    -1.391740499807    -0.283037715405    12.000000000000
         C           -3.684442486726    -0.687222797513    -0.294069955470    12.000000000000
         C           -2.460821231289    -1.403330660602    -0.283526869280    12.000000000000
         C           -1.231166203362    -0.702159346658    -0.295647248072    12.000000000000
         C           -0.007573816429    -1.417404331188    -0.288190723769    12.000000000000
         C            1.223643524847    -0.715260859041    -0.278185101820    12.000000000000
         C            2.445666458290    -1.429628770784    -0.289935114580    12.000000000000
         C            3.676862511805    -0.726692913333    -0.294075698975    12.000000000000
         C            6.132244655378    -0.739964321627    -0.295603673187    12.000000000000
         C            4.903514954462    -1.444443002318    -0.281762598647    12.000000000000
         C            8.599010657649     0.632618384891    -0.290291621172    12.000000000000
         C            8.591741297059    -0.724836348971    -0.288555240911    12.000000000000
         C            7.364858573348    -1.470318147383    -0.288785417604    12.000000000000
         H           -9.528310162860     1.276861967415    -0.291981923767     1.007825032230
         H            9.541406783565     1.174587006667    -0.291343653434     1.007825032230
         C           -7.369842100810    -2.779530627711    -0.286153943591    12.000000000000
         C           -4.924603300092    -2.808422739118    -0.293885576028    12.000000000000
         C           -6.166626686709    -3.516637674603    -0.287583735869    12.000000000000
         C           -3.702514550747    -3.524667030898    -0.283561506842    12.000000000000
         C           -2.467651176156    -2.821311444581    -0.295606145198    12.000000000000
         C           -0.015137665149    -2.833127127177    -0.295324556689    12.000000000000
         C           -1.247126032268    -3.534717657340    -0.283760603281    12.000000000000
         C            1.209240878602    -3.547900160421    -0.281221573490    12.000000000000
         C            2.437331831113    -2.847627219953    -0.295361331801    12.000000000000
         C            4.894298152729    -2.861108450063    -0.294540591730    12.000000000000
         C            3.664611063999    -3.564205327309    -0.281661171789    12.000000000000
         C            6.128634823704    -3.582569539495    -0.288315329832    12.000000000000
         C            7.339668473654    -2.858398789148    -0.286800103750    12.000000000000
         H           -9.541453302301    -1.174548948442    -0.287019456046     1.007825032230
         H            9.528257677030    -1.276904555682    -0.287305433150     1.007825032230
         H           -8.315169234890    -3.318135334990    -0.281981715061     1.007825032230
         H            8.279150951450    -3.407126271671    -0.282460547767     1.007825032230
         C           -6.144998379744    -4.927632754561    -0.286257737809    12.000000000000
         C           -3.706787539039    -4.941247195895    -0.296078705896    12.000000000000
         C           -4.955594249043    -5.643479455272    -0.288111571252    12.000000000000
         C           -2.486125517268    -5.654771056187    -0.283139034852    12.000000000000
         C           -1.254062526522    -4.956107531779    -0.294314640838    12.000000000000
         C            1.201008382827    -4.969265869970    -0.293133516580    12.000000000000
         C           -0.030340865455    -5.669505784916    -0.285290316916    12.000000000000
         C            3.653745910287    -4.980729257192    -0.292375516832    12.000000000000
         C            2.425488504834    -5.681160117305    -0.282998586280    12.000000000000
         C            6.091961426769    -4.993243445164    -0.286021103158    12.000000000000
         C            4.894972253569    -5.696333902735    -0.287257298988    12.000000000000
         H           -7.089896579082    -5.466985324016    -0.281854976127     1.007825032230
         H            7.031051018158    -5.542644018110    -0.282441323394     1.007825032230
         C           -4.923549513240    -7.078806581455    -0.288666340156    12.000000000000
         C           -2.485346279279    -7.087713559707    -0.291176232592    12.000000000000
         C           -3.751690082821    -7.763932639414    -0.290981553667    12.000000000000
         C           -0.037953148030    -7.099450356247    -0.290960507445    12.000000000000
         C           -1.277960291443    -7.772889866444    -0.292945200206    12.000000000000
         C            2.409440129685    -7.114007493780    -0.290097306634    12.000000000000
         C            1.194745746111    -7.786170847340    -0.292249597515    12.000000000000
         C            4.847616861456    -7.131247592357    -0.287590491974    12.000000000000
         C            3.668467414834    -7.803773474721    -0.289938926338    12.000000000000
         H           -5.869944541458    -7.613816079819    -0.287122303291     1.007825032230
         H            5.788245434347    -7.676317671092    -0.286463372492     1.007825032230
         H           -3.753531130491    -8.851057051013    -0.292817468096     1.007825032230
         H           -1.284308596936    -8.860860874274    -0.297372584065     1.007825032230
         H            1.189217383654    -8.874146102367    -0.296342234206     1.007825032230
         H            3.658542423782    -8.890846115831    -0.291593467761     1.007825032230

  Charge       = 0
  Multiplicity = 1
  Basis Set: JUN-CC-PVDZ
    Blend: JUN-CC-PVDZ
  Basis Set: (JUN-CC-PVDZ AUX)
    Blend: JUN-CC-PVDZ-JKFIT

    Orbital Energies [Eh]
    ---------------------

    Doubly Occupied:

       1A    -11.264108     2A    -11.263792     3A    -11.263716
       4A    -11.263388     5A    -11.263321     6A    -11.263298
       7A    -11.263184     8A    -11.263151     9A    -11.263127
      10A    -11.262924    11A    -11.262794    12A    -11.262791
      13A    -11.262302    14A    -11.262295    15A    -11.262270
      16A    -11.262246    17A    -11.262153    18A    -11.262140
      19A    -11.262102    20A    -11.262063    21A    -11.262043
      22A    -11.261952    23A    -11.261922    24A    -11.261785
      25A    -11.261775    26A    -11.261760    27A    -11.261740
      28A    -11.261711    29A    -11.261694    30A    -11.261604
      31A    -11.261586    32A    -11.261581    33A    -11.261575
      34A    -11.261557    35A    -11.261551    36A    -11.261535
      37A    -11.261354    38A    -11.261345    39A    -11.261338
      40A    -11.261332    41A    -11.261326    42A    -11.261322
      43A    -11.261311    44A    -11.261294    45A    -11.261291
      46A    -11.261265    47A    -11.261262    48A    -11.261256
      49A    -11.261090    50A    -11.261061    51A    -11.261057
      52A    -11.260999    53A    -11.260969    54A    -11.260922
      55A    -11.259941    56A    -11.259929    57A    -11.259923
      58A    -11.259898    59A    -11.259890    60A    -11.259877
      61A    -11.259312    62A    -11.259286    63A    -11.259283
      64A    -11.259231    65A    -11.259228    66A    -11.259199
      67A    -11.258944    68A    -11.258928    69A    -11.258921
      70A    -11.258898    71A    -11.258890    72A    -11.258880
      73A    -11.254543    74A    -11.254542    75A    -11.254539
      76A    -11.254537    77A    -11.254534    78A    -11.254532
      79A    -11.253677    80A    -11.253675    81A    -11.253671
      82A    -11.253670    83A    -11.253670    84A    -11.253666
      85A    -11.253592    86A    -11.253591    87A    -11.253587
      88A    -11.253585    89A    -11.253585    90A    -11.253581
      91A    -11.253071    92A    -11.253070    93A    -11.253068
      94A    -11.253064    95A    -11.253061    96A    -11.253060
      97A     -1.253970    98A     -1.239032    99A     -1.239017
     100A     -1.220489   101A     -1.220487   102A     -1.215460
     103A     -1.201066   104A     -1.195631   105A     -1.188168
     106A     -1.188161   107A     -1.173791   108A     -1.173785
     109A     -1.155655   110A     -1.155651   111A     -1.152735
     112A     -1.144748   113A     -1.144743   114A     -1.128594
     115A     -1.114740   116A     -1.113186   117A     -1.112500
     118A     -1.112492   119A     -1.111642   120A     -1.088456
     121A     -1.088436   122A     -1.076984   123A     -1.076983
     124A     -1.067639   125A     -1.067612   126A     -1.064993
     127A     -1.046825   128A     -1.046819   129A     -1.040506
     130A     -1.038758   131A     -1.038757   132A     -1.025266
     133A     -1.021406   134A     -1.021359   135A     -1.007205
     136A     -1.006838   137A     -1.003819   138A     -1.000512
     139A     -1.000467   140A     -0.991097   141A     -0.971013
     142A     -0.970965   143A     -0.955905   144A     -0.955851
     145A     -0.905617   146A     -0.905571   147A     -0.905570
     148A     -0.905532   149A     -0.904354   150A     -0.892388
     151A     -0.892338   152A     -0.890391   153A     -0.890325
     154A     -0.889482   155A     -0.872239   156A     -0.869076
     157A     -0.851563   158A     -0.847890   159A     -0.847870
     160A     -0.845620   161A     -0.843043   162A     -0.834590
     163A     -0.834575   164A     -0.828136   165A     -0.828135
     166A     -0.784572   167A     -0.784559   168A     -0.783685
     169A     -0.783652   170A     -0.782309   171A     -0.782294
     172A     -0.782056   173A     -0.767016   174A     -0.760814
     175A     -0.750594   176A     -0.733507   177A     -0.727092
     178A     -0.727084   179A     -0.725108   180A     -0.724562
     181A     -0.724549   182A     -0.718509   183A     -0.713794
     184A     -0.713787   185A     -0.699593   186A     -0.699589
     187A     -0.686140   188A     -0.685978   189A     -0.685977
     190A     -0.682199   191A     -0.682184   192A     -0.678790
     193A     -0.653643   194A     -0.650891   195A     -0.650863
     196A     -0.649834   197A     -0.649813   198A     -0.649586
     199A     -0.640940   200A     -0.640927   201A     -0.640110
     202A     -0.639183   203A     -0.636036   204A     -0.636015
     205A     -0.629164   206A     -0.617745   207A     -0.615323
     208A     -0.615305   209A     -0.608823   210A     -0.608816
     211A     -0.599163   212A     -0.599086   213A     -0.598762
     214A     -0.598636   215A     -0.598600   216A     -0.598051
     217A     -0.595088   218A     -0.595076   219A     -0.594742
     220A     -0.594253   221A     -0.591973   222A     -0.591970
     223A     -0.587409   224A     -0.577812   225A     -0.577803
     226A     -0.575675   227A     -0.575670   228A     -0.573402
     229A     -0.569590   230A     -0.568154   231A     -0.568136
     232A     -0.566775   233A     -0.566759   234A     -0.560930
     235A     -0.558731   236A     -0.558720   237A     -0.558444
     238A     -0.554388   239A     -0.550562   240A     -0.547491
     241A     -0.544274   242A     -0.535065   243A     -0.534967
     244A     -0.533553   245A     -0.533531   246A     -0.528094
     247A     -0.528080   248A     -0.527808   249A     -0.517177
     250A     -0.517143   251A     -0.515361   252A     -0.515354
     253A     -0.509662   254A     -0.509643   255A     -0.498046
     256A     -0.496468   257A     -0.496440   258A     -0.493801
     259A     -0.493781   260A     -0.489453   261A     -0.481469
     262A     -0.477427   263A     -0.477421   264A     -0.474012
     265A     -0.469459   266A     -0.466544   267A     -0.466538
     268A     -0.458808   269A     -0.446704   270A     -0.446640
     271A     -0.441042   272A     -0.440777   273A     -0.440759
     274A     -0.434693   275A     -0.433917   276A     -0.407381
     277A     -0.407358   278A     -0.386409   279A     -0.386355
     280A     -0.385739   281A     -0.385736   282A     -0.383756
     283A     -0.354319   284A     -0.354308   285A     -0.350666
     286A     -0.338107   287A     -0.335621   288A     -0.335525
     289A     -0.332719   290A     -0.332710   291A     -0.307065
     292A     -0.301940   293A     -0.301889   294A     -0.300852
     295A     -0.286179   296A     -0.256476   297A     -0.253511
     298A     -0.253445   299A     -0.204267   300A     -0.204181

  @DF-RHF Final Energy: -3650.33963216596658

   => Energetics <=

    Nuclear Repulsion Energy =          15611.4211649754324753
    One-Electron Energy =              -36072.1338672240090091
    Two-Electron Energy =               16810.3730700826090469
    Total Energy =                      -3650.3396321659674868
 Dipole X            :         -0.0003151            0.0001983           -0.0001168
 Dipole Y            :          0.0011731           -0.0013163           -0.0001432
 Dipole Z            :        327.9917414         -327.9929176           -0.0011762
 Magnitude           :                                                    0.0011907

    SAPT Results
  --------------------------------------------------------------------------------------------------------
    Electrostatics                 11.20310901 [mEh]       7.03005704 [kcal/mol]      29.41375865 [kJ/mol]
      Elst10,r                     11.20310901 [mEh]       7.03005704 [kcal/mol]      29.41375865 [kJ/mol]

    Exchange                        2.36363096 [mEh]       1.48320082 [kcal/mol]       6.20571222 [kJ/mol]
      Exch10                        2.36363096 [mEh]       1.48320082 [kcal/mol]       6.20571222 [kJ/mol]
      Exch10(S^2)                   2.36313467 [mEh]       1.48288939 [kcal/mol]       6.20440922 [kJ/mol]

    Induction                     -13.50489118 [mEh]      -8.47444716 [kcal/mol]     -35.45708692 [kJ/mol]
      Ind20,r                     -13.94180200 [mEh]      -8.74861284 [kcal/mol]     -36.60419611 [kJ/mol]
      Exch-Ind20,r                  0.57656739 [mEh]       0.36180150 [kcal/mol]       1.51377747 [kJ/mol]
      delta HF,r (2)               -0.13965657 [mEh]      -0.08763582 [kcal/mol]      -0.36666827 [kJ/mol]

    Dispersion                     -5.86280067 [mEh]      -3.67896297 [kcal/mol]     -15.39278105 [kJ/mol]
      Disp20                       -6.27085067 [mEh]      -3.93501820 [kcal/mol]     -16.46411617 [kJ/mol]
      Exch-Disp20                   0.40805000 [mEh]       0.25605524 [kcal/mol]       1.07133512 [kJ/mol]
      Disp20 (SS)                  -3.13542534 [mEh]      -1.96750910 [kcal/mol]      -8.23205808 [kJ/mol]
      Disp20 (OS)                  -3.13542534 [mEh]      -1.96750910 [kcal/mol]      -8.23205808 [kJ/mol]
      Exch-Disp20 (SS)              0.25063845 [mEh]       0.15727800 [kcal/mol]       0.65805116 [kJ/mol]
      Exch-Disp20 (OS)              0.15741155 [mEh]       0.09877724 [kcal/mol]       0.41328396 [kJ/mol]

  Total HF                          0.06184878 [mEh]       0.03881070 [kcal/mol]       0.16238395 [kJ/mol]
  Total SAPT0                      -5.80095189 [mEh]      -3.64015227 [kcal/mol]     -15.23039710 [kJ/mol]

  Special recipe for scaled SAPT0 (see Manual):
    Electrostatics sSAPT0          11.20310901 [mEh]       7.03005704 [kcal/mol]      29.41375865 [kJ/mol]
    Exchange sSAPT0                 2.36363096 [mEh]       1.48320082 [kcal/mol]       6.20571222 [kJ/mol]
    Induction sSAPT0              -13.50452785 [mEh]      -8.47421916 [kcal/mol]     -35.45613298 [kJ/mol]
    Dispersion sSAPT0              -5.86254353 [mEh]      -3.67880161 [kcal/mol]     -15.39210593 [kJ/mol]
  Total sSAPT0                     -5.80033142 [mEh]      -3.63976292 [kcal/mol]     -15.22876804 [kJ/mol]
  --------------------------------------------------------------------------------------------------------

*** Psi4 exiting successfully. Buy a developer a beer!
