                               Psi4 1.9 release

  ==> Input File <==

--------------------------------------------------------------------------
memory 80 GB # how much memory is available ! Depends on the nodes/cores !

molecule dimer {
# monomer A
-1 1    # Charge and multiplicity
B -1.977592e-04  2.742729e-04 -2.899966
F  1.123153e-16  1.430594e-17 -1.487181
F  1.147860e+00  6.757812e-01 -3.371107
F  1.191806e-02 -1.332011e+00 -3.370905
F -1.159666e+00  6.560735e-01 -3.370826
--
# monomer B
0 1     # Charge and multiplicity
C   -3.66844126402057      7.80375217008252      0.00190004133558
C   -4.84759871934653      7.13124183134024     -0.00046653359696
C   -4.89495929917518      5.69633040353158     -0.00103944469517
C   -3.65374067877320      4.98073034095895      0.00662099703436
C   -2.40942512149445      7.11398103667468      0.00209438359570
C   -2.42547734410473      5.68112195090346     -0.00491050527438
C   -1.19474401643570      7.78614419430947      0.00356656413763
C   0.03795902893699      7.09942164575698      0.00139585983271
C   0.03033258741920      5.66948955970466     -0.00408752508301
C   -1.20098450790502      4.96927034791531      0.00488220885047
C   1.27795782581485      7.77285944319479      0.00277170839332
C   2.48535808472416      7.08769688523756      0.00049722048857
C   2.48612868491717      5.65477081024076     -0.00644052849921
C   1.25408291964399      4.95607811366431      0.00518741308898
C   3.75171459140595      7.76391215098033      0.00062407186893
C   4.92356605618520      7.07878077698995     -0.00143240883900
C   4.95560727132542      5.64344746336949     -0.00159282164606
C   3.70680153420475      4.94121020833308      0.00349873852374
H   -3.65852113775815      8.89082741913536      0.00358502958574
H   -1.18921332975660      8.87412108735996      0.00753844057883
H   1.28429423888630      8.86083343548850      0.00693053253426
H   3.75354208679975      8.85103527897216      0.00214659618464
H   5.86995870320703      7.61379483465560     -0.00235777588134
H   -5.78823170750226      7.67630221293400     -0.00202638095293
C   -6.09197395869619      4.99326001364347     -0.00291168518608
C   -6.12866148031747      3.58258016879823     -0.00171050815740
C   -3.66457974004527      3.56418217974434     -0.00463560277484
C   -4.89429820469869      2.86108077590057      0.00453338221034
C   -2.43733499489796      2.84761165708481      0.00719617576166
C   -1.20922785759670      3.54788693497833     -0.00648285103018
C   1.24714157216223      3.53468075142962     -0.00729145743546
C   0.01517603956900      2.83311183930540      0.00439272578912
C   2.46764517244071      2.82128997725533      0.00449278391269
C   3.70254947457969      3.52466015442405     -0.00899517692985
C   6.14498038638375      4.92757236613191     -0.00282626685777
C   6.16658835886151      3.51658447594213     -0.00065971342101
C   4.92460995845939      2.80840792535402      0.00587903281610
H   7.08990550964105      5.46688776622306     -0.00658814770723
H   -7.03104175110130      5.54268795285765     -0.00714490013730
C   -7.33969804112295      2.85841153457957     -0.00333767559888
C   -7.36488195805880      1.47032337158330     -0.00157213747140
C   -4.90350460894690      1.44442681216000     -0.00628840166334
C   -6.13225715261081      0.73993935705394      0.00600164231964
C   -3.67687480051673      0.72669714267312      0.00433931473643
C   -2.44565658606518      1.42964113326212     -0.00597039546461
C   -1.22360068130162      0.71532450163492      0.00545886906656
C   0.00763786931376      1.41738314923765      0.00392452278437
C   1.23121980774686      0.70211669058719     -0.01490206287210
C   2.46082110053113      1.40329203612573      0.00460244601878
C   3.68443025419614      0.68719842821222      0.00377365974158
C   4.91870890153864      1.39173456118907     -0.00862816189375
C   7.36980207796101      2.77948220318441     -0.00242013321349
C   7.38016266612146      1.39121750785509     -0.00087345036788
C   6.13979953912259      0.67411862320065      0.00545489144369
H   -8.27919079934664      3.40711804112415     -0.00763522772059
H   8.31511347147953      3.31811809662368     -0.00663070901292
C   -8.59175593758115      0.72483255304480     -0.00123170985383
C   -8.59902460370342     -0.63263980622873      0.00089141472904
C   -6.13981313911873     -0.67413663715361     -0.00609792660607
C   -7.38018411213749     -1.39126618958160      0.00131813493501
C   -4.91868448025621     -1.39175501803000      0.00624257154343
C   -3.68443829568458     -0.68723731573599     -0.00478966852105
C   -2.46081704024768     -1.40334517882457      0.00575341766833
C   -1.23116201232071     -0.70217386488055     -0.00636696112346
C   -0.00756962538737     -1.41741884941102      0.00108956317991
C   1.22364771588843     -0.71527537726392      0.01109518512883
C   2.44567064933149     -1.42964328900682     -0.00065482763106
C   3.67686670284649     -0.72670743155550     -0.00479541202602
C   6.13224884641929     -0.73997883984993     -0.00632338623858
C   4.90351914550401     -1.44445752054090      0.00751768830159
C   8.59901484869081      0.63260386666793     -0.00101133422380
C   8.59174548810050     -0.72485086719319      0.00072504603735
C   7.36486276438985     -1.47033266560598      0.00049486934466
H   -9.52830597181814      1.27684744919284     -0.00270163681798
H   9.54141097460619      1.17457248844457     -0.00206336648518
C   -7.36983790976868     -2.77954514593389      0.00312634335708
C   -4.92459910905015     -2.80843725734101     -0.00460528907921
C   -6.16662249566744     -3.51665219282533      0.00169655107992
C   -3.70251035970491     -3.52468154912026      0.00571878010666
C   -2.46764698511392     -2.82132596280400     -0.00632585824990
C   -0.01513347410770     -2.83314164539971     -0.00604426974092
C   -1.24712184122656     -3.53473217556300      0.00551968366725
C   1.20924506964357     -3.54791467864352      0.00805871345849
C   2.43733602215464     -2.84764173817541     -0.00608104485234
C   4.89430234377080     -2.86112296828604     -0.00526030478103
C   3.66461525504104     -3.56421984553201      0.00761911515957
C   6.12863901474565     -3.58258405771778      0.00096495711699
C   7.33967266469532     -2.85841330737039      0.00248018319869
H   -9.54144911125902     -1.17456346666430      0.00226083090216
H   9.52826186807155     -1.27691907390448      0.00197485379837
H   -8.31516504384864     -3.31814985321231      0.00729857188773
H   8.27915514249207     -3.40714078989363      0.00681973918158
C   -6.14499418870218     -4.92764727278338      0.00302254913999
C   -3.70678334799751     -4.94126171411716     -0.00679841894792
C   -4.95559005800169     -5.64349397349412      0.00116871569699
C   -2.48612132622665     -5.65478557440947      0.00614125209662
C   -1.25405833548005     -4.95612205000132     -0.00503435388927
C   1.20101257386816     -4.96928038819302     -0.00385322963129
C   -0.03033667441341     -5.66952030313900      0.00398997003238
C   3.65375010132847     -4.98074377541453     -0.00309522988330
C   2.42549269587528     -5.68117463552727      0.00628170066869
C   6.09196561781097     -4.99325796338655      0.00325918379042
C   4.89497644461045     -5.69634842095790      0.00202298796027
H   -7.08989238804069     -5.46699984223871      0.00742531082125
H   7.03105520920009     -5.54265853633254      0.00683896355417
C   -4.92354532219813     -7.07882109967734      0.00061394679214
C   -2.48534208823777     -7.08772807792913     -0.00189594564379
C   -3.75168589177895     -7.76394715763627     -0.00170126671874
C   -0.03794895698805     -7.09946487446944     -0.00168022049625
C   -1.27795610040136     -7.77290438466689     -0.00366491325785
C   2.40944432072629     -7.11402201200282     -0.00081701968533
C   1.19474993715296     -7.78618536556242     -0.00296931056689
C   4.84762105249800     -7.13126211057943      0.00168979497423
C   3.66847160587561     -7.80378799294376     -0.00065863938960
H   -5.86994035041618     -7.61383059804164      0.00215798365757
H   5.78824962538815     -7.67633218931421      0.00281691445618
H   -3.75352693944918     -8.85107156923607     -0.00353718114765
H   -1.28430440589466     -8.86087539249706     -0.00809229711623
H   1.18922157469537     -8.87416062058945     -0.00706194725726
H   3.65854661482387     -8.89086063405326     -0.00231318081200

    units angstrom      # Angstroms are the default
    no_reorient         # Geometry fixed, default
    symmetry c1         # C1 symmetry, default
}

set {
    scf_type DF         # Density fitting, faster than exact integrals
    freeze_core True    # Freeze core electrons
    basis jun-cc-pVDZ   # Jun-cc-pVDZ basis set, recommended for sSAPT0 in https://doi.org/10.1063/1.4867135
}

energy('ssapt0')        # Compute sSAPT0 energy, includes also SAPT0
--------------------------------------------------------------------------

  //              Dimer HF             //
    Molecular point group: c1
  Charge       = -1
  Multiplicity = 1
  Basis Set: JUN-CC-PVDZ
    Blend: JUN-CC-PVDZ
  Basis Set: (JUN-CC-PVDZ AUX)
    Blend: JUN-CC-PVDZ-JKFIT
  @DF-RHF Final Energy: -4072.96392652715076
    Total Energy =                      -4072.9639265271507611
 Dipole X            :          0.0006039           -0.0000548            0.0005492
 Dipole Y            :          0.0001796           -0.0002464           -0.0000668
 Dipole Z            :        -14.0179806           17.2579039            3.2399233
 Magnitude           :                                                    3.2399233
  //            Monomer A HF           //
    Molecular point group: c1
  Multiplicity = 1
  Basis Set: JUN-CC-PVDZ
    Blend: JUN-CC-PVDZ
  Basis Set: (JUN-CC-PVDZ AUX)
    Blend: JUN-CC-PVDZ-JKFIT
  @DF-RHF Final Energy:  -422.77580351140659
    Total Energy =                       -422.7758035114065933
  //            Monomer B HF           //
    Molecular point group: c1

    Geometry (in Angstrom), charge = 0, multiplicity = 1:

       Center              X                  Y                   Z               Mass
    ------------   -----------------  -----------------  -----------------  -----------------
      Gh(B)          -0.000201921932     0.000288800891    -2.700230125504    11.009305360000
      Gh(F)          -0.000004162732     0.000014527991    -1.287445125504    18.998403162730
      Gh(F)           1.147855837268     0.675795727991    -3.171371125504    18.998403162730
      Gh(F)           0.011913897268    -1.331996472009    -3.171169125504    18.998403162730
      Gh(F)          -1.159670162732     0.656088027991    -3.171090125504    18.998403162730
         C           -3.668445426752     7.803766698073     0.201635915831    12.000000000000
         C           -4.847602882078     7.131256359331     0.199269340899    12.000000000000
         C           -4.894963461907     5.696344931522     0.198696429800    12.000000000000
         C           -3.653744841505     4.980744868950     0.206356871530    12.000000000000
         C           -2.409429284226     7.113995564665     0.201830258091    12.000000000000
         C           -2.425481506836     5.681136478894     0.194825369221    12.000000000000
         C           -1.194748179167     7.786158722300     0.203302438633    12.000000000000
         C            0.037954866205     7.099436173748     0.201131734328    12.000000000000
         C            0.030328424687     5.669504087695     0.195648349413    12.000000000000
         C           -1.200988670637     4.969284875906     0.204618083346    12.000000000000
         C            1.277953663083     7.772873971185     0.202507582889    12.000000000000
         C            2.485353921992     7.087711413228     0.200233094984    12.000000000000
         C            2.486124522185     5.654785338231     0.193295345996    12.000000000000
         C            1.254078756912     4.956092641655     0.204923287585    12.000000000000
         C            3.751710428674     7.763926678971     0.200359946364    12.000000000000
         C            4.923561893453     7.078795304981     0.198303465657    12.000000000000
         C            4.955603108594     5.643461991360     0.198143052849    12.000000000000
         C            3.706797371473     4.941224736324     0.203234613019    12.000000000000
         H           -3.658525300490     8.890841947126     0.203320904081     1.007825032230
         H           -1.189217492488     8.874135615351     0.207274315074     1.007825032230
         H            1.284290076155     8.860847963479     0.206666407030     1.007825032230
         H            3.753537924068     8.851049806963     0.201882470680     1.007825032230
         H            5.869954540475     7.613809362646     0.197378098614     1.007825032230
         H           -5.788235870234     7.676316740925     0.197709493543     1.007825032230
         C           -6.091978121428     4.993274541634     0.196824189309    12.000000000000
         C           -6.128665643049     3.582594696789     0.198025366338    12.000000000000
         C           -3.664583902777     3.564196707735     0.195100271721    12.000000000000
         C           -4.894302367430     2.861095303891     0.204269256706    12.000000000000
         C           -2.437339157630     2.847626185075     0.206932050257    12.000000000000
         C           -1.209232020328     3.547901462969     0.193253023465    12.000000000000
         C            1.247137409430     3.534695279420     0.192444417060    12.000000000000
         C            0.015171876837     2.833126367296     0.204128600285    12.000000000000
         C            2.467641009709     2.821304505246     0.204228658408    12.000000000000
         C            3.702545311848     3.524674682415     0.190740697566    12.000000000000
         C            6.144976223652     4.927586894122     0.196909607638    12.000000000000
         C            6.166584196130     3.516599003933     0.199076161075    12.000000000000
         C            4.924605795728     2.808422453345     0.205614907312    12.000000000000
         H            7.089901346909     5.466902294214     0.193147726788     1.007825032230
         H           -7.031045913833     5.542702480848     0.192590974358     1.007825032230
         C           -7.339702203855     2.858426062570     0.196398198897    12.000000000000
         C           -7.364886120791     1.470337899574     0.198163737024    12.000000000000
         C           -4.903508771679     1.444441340151     0.193447472832    12.000000000000
         C           -6.132261315343     0.739953885044     0.205737516815    12.000000000000
         C           -3.676878963248     0.726711670664     0.204075189232    12.000000000000
         C           -2.445660748797     1.429655661253     0.193765479031    12.000000000000
         C           -1.223604844033     0.715339029625     0.205194743562    12.000000000000
         C            0.007633706582     1.417397677228     0.203660397280    12.000000000000
         C            1.231215645015     0.702131218578     0.184833811623    12.000000000000
         C            2.460816937799     1.403306564116     0.204338320514    12.000000000000
         C            3.684426091464     0.687212956203     0.203509534237    12.000000000000
         C            4.918704738807     1.391749089180     0.191107712602    12.000000000000
         C            7.369797915229     2.779496731175     0.197315741282    12.000000000000
         C            7.380158503390     1.391232035846     0.198862424128    12.000000000000
         C            6.139795376391     0.674133151191     0.205190765939    12.000000000000
         H           -8.279194962078     3.407132569115     0.192100646775     1.007825032230
         H            8.315109308748     3.318132624614     0.193105165483     1.007825032230
         C           -8.591760100313     0.724847081035     0.198504164642    12.000000000000
         C           -8.599028766435    -0.632625278238     0.200627289225    12.000000000000
         C           -6.139817301850    -0.674122109163     0.193637947889    12.000000000000
         C           -7.380188274869    -1.391251661591     0.201054009431    12.000000000000
         C           -4.918688642988    -1.391740490039     0.205978446039    12.000000000000
         C           -3.684442458416    -0.687222787745     0.194946205974    12.000000000000
         C           -2.460821202979    -1.403330650834     0.205489292164    12.000000000000
         C           -1.231166175052    -0.702159336890     0.193368913372    12.000000000000
         C           -0.007573788119    -1.417404321420     0.200825437675    12.000000000000
         C            1.223643553157    -0.715260849273     0.210831059624    12.000000000000
         C            2.445666486600    -1.429628761016     0.199081046864    12.000000000000
         C            3.676862540115    -0.726692903565     0.194940462470    12.000000000000
         C            6.132244683688    -0.739964311859     0.193412488257    12.000000000000
         C            4.903514982772    -1.444442992550     0.207253562797    12.000000000000
         C            8.599010685959     0.632618394658     0.198724540272    12.000000000000
         C            8.591741325369    -0.724836339203     0.200460920533    12.000000000000
         C            7.364858601658    -1.470318137615     0.200230743840    12.000000000000
         H           -9.528310134550     1.276861977183     0.197034237678     1.007825032230
         H            9.541406811874     1.174587016435     0.197672508010     1.007825032230
         C           -7.369842072500    -2.779530617943     0.202862217853    12.000000000000
         C           -4.924603271782    -2.808422729350     0.195130585416    12.000000000000
         C           -6.166626658399    -3.516637664835     0.201432425575    12.000000000000
         C           -3.702514522437    -3.524667021130     0.205454654602    12.000000000000
         C           -2.467651147846    -2.821311434813     0.193410016246    12.000000000000
         C           -0.015137636839    -2.833127117409     0.193691604755    12.000000000000
         C           -1.247126003958    -3.534717647572     0.205255558163    12.000000000000
         C            1.209240906912    -3.547900150653     0.207794587954    12.000000000000
         C            2.437331859423    -2.847627210185     0.193654829643    12.000000000000
         C            4.894298181039    -2.861108440295     0.194475569714    12.000000000000
         C            3.664611092309    -3.564205317541     0.207354989655    12.000000000000
         C            6.128634852014    -3.582569529727     0.200700831613    12.000000000000
         C            7.339668501964    -2.858398779380     0.202216057694    12.000000000000
         H           -9.541453273991    -1.174548938674     0.201996705398     1.007825032230
         H            9.528257705340    -1.276904545914     0.201710728294     1.007825032230
         H           -8.315169206580    -3.318135325222     0.207034446383     1.007825032230
         H            8.279150979760    -3.407126261903     0.206555613677     1.007825032230
         C           -6.144998351434    -4.927632744793     0.202758423636    12.000000000000
         C           -3.706787510729    -4.941247186127     0.192937455548    12.000000000000
         C           -4.955594220733    -5.643479445504     0.200904590193    12.000000000000
         C           -2.486125488958    -5.654771046419     0.205877126592    12.000000000000
         C           -1.254062498212    -4.956107522011     0.194701520606    12.000000000000
         C            1.201008411136    -4.969265860202     0.195882644864    12.000000000000
         C           -0.030340837145    -5.669505775148     0.203725844528    12.000000000000
         C            3.653745938597    -4.980729247424     0.196640644612    12.000000000000
         C            2.425488533144    -5.681160107537     0.206017575164    12.000000000000
         C            6.091961455079    -4.993243435396     0.202995058286    12.000000000000
         C            4.894972281879    -5.696333892967     0.201758862456    12.000000000000
         H           -7.089896550772    -5.466985314248     0.207161185317     1.007825032230
         H            7.031051046468    -5.542644008342     0.206574838050     1.007825032230
         C           -4.923549484930    -7.078806571687     0.200349821288    12.000000000000
         C           -2.485346250970    -7.087713549939     0.197839928852    12.000000000000
         C           -3.751690054511    -7.763932629646     0.198034607777    12.000000000000
         C           -0.037953119720    -7.099450346479     0.198055653999    12.000000000000
         C           -1.277960263133    -7.772889856676     0.196070961238    12.000000000000
         C            2.409440157995    -7.114007484012     0.198918854810    12.000000000000
         C            1.194745774421    -7.786170837572     0.196766563929    12.000000000000
         C            4.847616889766    -7.131247582589     0.201425669470    12.000000000000
         C            3.668467443144    -7.803773464953     0.199077235106    12.000000000000
         H           -5.869944513148    -7.613816070051     0.201893858153     1.007825032230
         H            5.788245462656    -7.676317661324     0.202552788952     1.007825032230
         H           -3.753531102181    -8.851057041246     0.196198693348     1.007825032230
         H           -1.284308568626    -8.860860864507     0.191643577379     1.007825032230
         H            1.189217411964    -8.874146092599     0.192673927238     1.007825032230
         H            3.658542452092    -8.890846106063     0.197422693684     1.007825032230

  Charge       = 0
  Multiplicity = 1
  Basis Set: JUN-CC-PVDZ
    Blend: JUN-CC-PVDZ
  Basis Set: (JUN-CC-PVDZ AUX)
    Blend: JUN-CC-PVDZ-JKFIT

    Orbital Energies [Eh]
    ---------------------

    Doubly Occupied:

       1A    -11.264074     2A    -11.263707     3A    -11.263700
       4A    -11.263275     5A    -11.263273     6A    -11.263238
       7A    -11.263092     8A    -11.263090     9A    -11.263084
      10A    -11.262851    11A    -11.262729    12A    -11.262725
      13A    -11.262234    14A    -11.262230    15A    -11.262210
      16A    -11.262210    17A    -11.262095    18A    -11.262093
      19A    -11.262044    20A    -11.262006    21A    -11.262003
      22A    -11.261898    23A    -11.261895    24A    -11.261741
      25A    -11.261738    26A    -11.261715    27A    -11.261707
      28A    -11.261670    29A    -11.261662    30A    -11.261565
      31A    -11.261545    32A    -11.261540    33A    -11.261536
      34A    -11.261512    35A    -11.261509    36A    -11.261488
      37A    -11.261325    38A    -11.261317    39A    -11.261311
      40A    -11.261306    41A    -11.261300    42A    -11.261296
      43A    -11.261276    44A    -11.261258    45A    -11.261255
      46A    -11.261231    47A    -11.261229    48A    -11.261222
      49A    -11.261033    50A    -11.261000    51A    -11.260996
      52A    -11.260918    53A    -11.260916    54A    -11.260858
      55A    -11.259905    56A    -11.259892    57A    -11.259889
      58A    -11.259860    59A    -11.259858    60A    -11.259841
      61A    -11.259276    62A    -11.259251    63A    -11.259247
      64A    -11.259195    65A    -11.259192    66A    -11.259163
      67A    -11.258907    68A    -11.258889    69A    -11.258887
      70A    -11.258859    71A    -11.258857    72A    -11.258845
      73A    -11.254526    74A    -11.254524    75A    -11.254520
      76A    -11.254519    77A    -11.254518    78A    -11.254517
      79A    -11.253646    80A    -11.253645    81A    -11.253643
      82A    -11.253642    83A    -11.253639    84A    -11.253637
      85A    -11.253562    86A    -11.253561    87A    -11.253559
      88A    -11.253558    89A    -11.253554    90A    -11.253553
      91A    -11.253053    92A    -11.253051    93A    -11.253047
      94A    -11.253047    95A    -11.253046    96A    -11.253045
      97A     -1.253874    98A     -1.238962    99A     -1.238961
     100A     -1.220444   101A     -1.220439   102A     -1.215367
     103A     -1.201029   104A     -1.195590   105A     -1.188086
     106A     -1.188084   107A     -1.173754   108A     -1.173751
     109A     -1.155589   110A     -1.155585   111A     -1.152646
     112A     -1.144713   113A     -1.144710   114A     -1.128540
     115A     -1.114677   116A     -1.113150   117A     -1.112425
     118A     -1.112410   119A     -1.111611   120A     -1.088400
     121A     -1.088385   122A     -1.076950   123A     -1.076948
     124A     -1.067580   125A     -1.067550   126A     -1.064916
     127A     -1.046779   128A     -1.046772   129A     -1.040453
     130A     -1.038724   131A     -1.038723   132A     -1.025196
     133A     -1.021313   134A     -1.021263   135A     -1.007161
     136A     -1.006790   137A     -1.003774   138A     -1.000449
     139A     -1.000401   140A     -0.991065   141A     -0.970951
     142A     -0.970903   143A     -0.955865   144A     -0.955810
     145A     -0.905542   146A     -0.905538   147A     -0.905501
     148A     -0.905495   149A     -0.904263   150A     -0.892316
     151A     -0.892257   152A     -0.890319   153A     -0.890262
     154A     -0.889424   155A     -0.872201   156A     -0.869051
     157A     -0.851523   158A     -0.847822   159A     -0.847800
     160A     -0.845556   161A     -0.842988   162A     -0.834543
     163A     -0.834530   164A     -0.828100   165A     -0.828097
     166A     -0.784523   167A     -0.784512   168A     -0.783619
     169A     -0.783593   170A     -0.782254   171A     -0.782234
     172A     -0.781989   173A     -0.766973   174A     -0.760743
     175A     -0.750523   176A     -0.733470   177A     -0.727046
     178A     -0.727032   179A     -0.725054   180A     -0.724521
     181A     -0.724502   182A     -0.718436   183A     -0.713721
     184A     -0.713715   185A     -0.699549   186A     -0.699537
     187A     -0.686063   188A     -0.685942   189A     -0.685938
     190A     -0.682156   191A     -0.682146   192A     -0.678727
     193A     -0.653593   194A     -0.650839   195A     -0.650809
     196A     -0.649760   197A     -0.649744   198A     -0.649549
     199A     -0.640869   200A     -0.640842   201A     -0.640071
     202A     -0.639150   203A     -0.635978   204A     -0.635951
     205A     -0.629116   206A     -0.617730   207A     -0.615288
     208A     -0.615268   209A     -0.608779   210A     -0.608772
     211A     -0.599109   212A     -0.599074   213A     -0.598707
     214A     -0.598573   215A     -0.598551   216A     -0.597977
     217A     -0.595049   218A     -0.595036   219A     -0.594693
     220A     -0.594175   221A     -0.591916   222A     -0.591913
     223A     -0.587336   224A     -0.577785   225A     -0.577776
     226A     -0.575639   227A     -0.575635   228A     -0.573361
     229A     -0.569584   230A     -0.568081   231A     -0.568058
     232A     -0.566718   233A     -0.566708   234A     -0.560902
     235A     -0.558677   236A     -0.558658   237A     -0.558414
     238A     -0.554338   239A     -0.550532   240A     -0.547464
     241A     -0.544244   242A     -0.535011   243A     -0.534974
     244A     -0.533503   245A     -0.533482   246A     -0.528055
     247A     -0.528040   248A     -0.527736   249A     -0.517106
     250A     -0.517072   251A     -0.515333   252A     -0.515327
     253A     -0.509622   254A     -0.509606   255A     -0.498004
     256A     -0.496419   257A     -0.496392   258A     -0.493744
     259A     -0.493732   260A     -0.489450   261A     -0.481432
     262A     -0.477402   263A     -0.477399   264A     -0.473971
     265A     -0.469407   266A     -0.466491   267A     -0.466486
     268A     -0.458764   269A     -0.446622   270A     -0.446562
     271A     -0.441004   272A     -0.440762   273A     -0.440736
     274A     -0.434670   275A     -0.433894   276A     -0.407341
     277A     -0.407316   278A     -0.386357   279A     -0.386308
     280A     -0.385720   281A     -0.385718   282A     -0.383727
     283A     -0.354311   284A     -0.354294   285A     -0.350620
     286A     -0.338029   287A     -0.335532   288A     -0.335463
     289A     -0.332695   290A     -0.332688   291A     -0.307011
     292A     -0.301877   293A     -0.301815   294A     -0.300837
     295A     -0.286141   296A     -0.256459   297A     -0.253425
     298A     -0.253373   299A     -0.204230   300A     -0.204141

  @DF-RHF Final Energy: -3650.34066206098714

   => Energetics <=

    Nuclear Repulsion Energy =          15611.4211649754324753
    One-Electron Energy =              -36072.1639708110160427
    Two-Electron Energy =               16810.4021437745977892
    Total Energy =                      -3650.3406620609857782
 Dipole X            :          0.0003961            0.0002304            0.0006266
 Dipole Y            :          0.0014133           -0.0013052            0.0001081
 Dipole Z            :       -226.4711759          226.4710520           -0.0001239
 Magnitude           :                                                    0.0006478

    SAPT Results
  --------------------------------------------------------------------------------------------------------
    Electrostatics               -121.85310710 [mEh]     -76.46397911 [kcal/mol]    -319.92528861 [kJ/mol]
      Elst10,r                   -121.85310710 [mEh]     -76.46397911 [kcal/mol]    -319.92528861 [kJ/mol]

    Exchange                      314.58672974 [mEh]     197.40615324 [kcal/mol]     825.94734514 [kJ/mol]
      Exch10                      314.58672974 [mEh]     197.40615324 [kcal/mol]     825.94734514 [kJ/mol]
      Exch10(S^2)                 304.54062096 [mEh]     191.10212480 [kcal/mol]     799.57129016 [kJ/mol]

    Induction                     -40.19457740 [mEh]     -25.22247811 [kcal/mol]    -105.53084842 [kJ/mol]
      Ind20,r                    -178.16252987 [mEh]    -111.79867537 [kcal/mol]    -467.76565773 [kJ/mol]
      Exch-Ind20,r                130.28107836 [mEh]      81.75261092 [kcal/mol]     342.05292410 [kJ/mol]
      delta HF,r (2)                7.68687411 [mEh]       4.82358633 [kcal/mol]      20.18188521 [kJ/mol]

    Dispersion                    -42.11188483 [mEh]     -26.42560669 [kcal/mol]    -110.56473839 [kJ/mol]
      Disp20                      -62.92724415 [mEh]     -39.48744186 [kcal/mol]    -165.21545676 [kJ/mol]
      Exch-Disp20                  20.81535932 [mEh]      13.06183518 [kcal/mol]      54.65071838 [kJ/mol]
      Disp20 (SS)                 -31.46362208 [mEh]     -19.74372093 [kcal/mol]     -82.60772838 [kJ/mol]
      Disp20 (OS)                 -31.46362208 [mEh]     -19.74372093 [kcal/mol]     -82.60772838 [kJ/mol]
      Exch-Disp20 (SS)             10.63175041 [mEh]       6.67152411 [kcal/mol]      27.91365686 [kJ/mol]
      Exch-Disp20 (OS)             10.18360891 [mEh]       6.39031107 [kcal/mol]      26.73706151 [kJ/mol]

  Total HF                        152.53904524 [mEh]      95.71969601 [kcal/mol]     400.49120811 [kJ/mol]
  Total SAPT0                     110.42716041 [mEh]      69.29408932 [kcal/mol]     289.92646972 [kJ/mol]

  Special recipe for scaled SAPT0 (see Manual):
    Electrostatics sSAPT0        -121.85310710 [mEh]     -76.46397911 [kcal/mol]    -319.92528861 [kJ/mol]
    Exchange sSAPT0               314.58672974 [mEh]     197.40615324 [kcal/mol]     825.94734514 [kJ/mol]
    Induction sSAPT0              -26.87155091 [mEh]     -16.86215277 [kcal/mol]     -70.55124720 [kJ/mol]
    Dispersion sSAPT0             -39.98322895 [mEh]     -25.08985496 [kcal/mol]    -104.97595314 [kJ/mol]
  Total sSAPT0                    125.87884278 [mEh]      78.99016639 [kcal/mol]     330.49485619 [kJ/mol]
  --------------------------------------------------------------------------------------------------------

*** Psi4 exiting successfully. Buy a developer a beer!
