                               Psi4 1.9 release

  ==> Input File <==

--------------------------------------------------------------------------
memory 80 GB # how much memory is available ! Depends on the nodes/cores !

molecule dimer {
# monomer A
+1 1    # Charge and multiplicity
C  0.680067 -0.008042 -5.315929
C -0.680504 -0.006014 -5.315545
N -1.085635 -0.005016 -3.997221
C  0.000108 -0.001740 -3.215820
C -2.477365  0.044390 -3.529242
N  1.085222 -0.005016 -3.997221
H  1.385146 -0.015870 -6.133368
H -1.385302 -0.006204 -6.133214
H -0.000009  0.000007 -2.134731
C  2.478117 -0.021908 -3.532123
H  2.490592  0.005437 -2.441870
H  2.967028 -0.935354 -3.879299
H  3.001428  0.853575 -3.923595
H -2.857359  1.066461 -3.609201
H -3.082679 -0.625694 -4.142306
H -2.518128 -0.282594 -2.489294
--
# monomer B
0 1     # Charge and multiplicity
C   -3.66844126402057      7.80375217008252      0.00190004133558
C   -4.84759871934653      7.13124183134024     -0.00046653359696
C   -4.89495929917518      5.69633040353158     -0.00103944469517
C   -3.65374067877320      4.98073034095895      0.00662099703436
C   -2.40942512149445      7.11398103667468      0.00209438359570
C   -2.42547734410473      5.68112195090346     -0.00491050527438
C   -1.19474401643570      7.78614419430947      0.00356656413763
C   0.03795902893699      7.09942164575698      0.00139585983271
C   0.03033258741920      5.66948955970466     -0.00408752508301
C   -1.20098450790502      4.96927034791531      0.00488220885047
C   1.27795782581485      7.77285944319479      0.00277170839332
C   2.48535808472416      7.08769688523756      0.00049722048857
C   2.48612868491717      5.65477081024076     -0.00644052849921
C   1.25408291964399      4.95607811366431      0.00518741308898
C   3.75171459140595      7.76391215098033      0.00062407186893
C   4.92356605618520      7.07878077698995     -0.00143240883900
C   4.95560727132542      5.64344746336949     -0.00159282164606
C   3.70680153420475      4.94121020833308      0.00349873852374
H   -3.65852113775815      8.89082741913536      0.00358502958574
H   -1.18921332975660      8.87412108735996      0.00753844057883
H   1.28429423888630      8.86083343548850      0.00693053253426
H   3.75354208679975      8.85103527897216      0.00214659618464
H   5.86995870320703      7.61379483465560     -0.00235777588134
H   -5.78823170750226      7.67630221293400     -0.00202638095293
C   -6.09197395869619      4.99326001364347     -0.00291168518608
C   -6.12866148031747      3.58258016879823     -0.00171050815740
C   -3.66457974004527      3.56418217974434     -0.00463560277484
C   -4.89429820469869      2.86108077590057      0.00453338221034
C   -2.43733499489796      2.84761165708481      0.00719617576166
C   -1.20922785759670      3.54788693497833     -0.00648285103018
C   1.24714157216223      3.53468075142962     -0.00729145743546
C   0.01517603956900      2.83311183930540      0.00439272578912
C   2.46764517244071      2.82128997725533      0.00449278391269
C   3.70254947457969      3.52466015442405     -0.00899517692985
C   6.14498038638375      4.92757236613191     -0.00282626685777
C   6.16658835886151      3.51658447594213     -0.00065971342101
C   4.92460995845939      2.80840792535402      0.00587903281610
H   7.08990550964105      5.46688776622306     -0.00658814770723
H   -7.03104175110130      5.54268795285765     -0.00714490013730
C   -7.33969804112295      2.85841153457957     -0.00333767559888
C   -7.36488195805880      1.47032337158330     -0.00157213747140
C   -4.90350460894690      1.44442681216000     -0.00628840166334
C   -6.13225715261081      0.73993935705394      0.00600164231964
C   -3.67687480051673      0.72669714267312      0.00433931473643
C   -2.44565658606518      1.42964113326212     -0.00597039546461
C   -1.22360068130162      0.71532450163492      0.00545886906656
C   0.00763786931376      1.41738314923765      0.00392452278437
C   1.23121980774686      0.70211669058719     -0.01490206287210
C   2.46082110053113      1.40329203612573      0.00460244601878
C   3.68443025419614      0.68719842821222      0.00377365974158
C   4.91870890153864      1.39173456118907     -0.00862816189375
C   7.36980207796101      2.77948220318441     -0.00242013321349
C   7.38016266612146      1.39121750785509     -0.00087345036788
C   6.13979953912259      0.67411862320065      0.00545489144369
H   -8.27919079934664      3.40711804112415     -0.00763522772059
H   8.31511347147953      3.31811809662368     -0.00663070901292
C   -8.59175593758115      0.72483255304480     -0.00123170985383
C   -8.59902460370342     -0.63263980622873      0.00089141472904
C   -6.13981313911873     -0.67413663715361     -0.00609792660607
C   -7.38018411213749     -1.39126618958160      0.00131813493501
C   -4.91868448025621     -1.39175501803000      0.00624257154343
C   -3.68443829568458     -0.68723731573599     -0.00478966852105
C   -2.46081704024768     -1.40334517882457      0.00575341766833
C   -1.23116201232071     -0.70217386488055     -0.00636696112346
C   -0.00756962538737     -1.41741884941102      0.00108956317991
C   1.22364771588843     -0.71527537726392      0.01109518512883
C   2.44567064933149     -1.42964328900682     -0.00065482763106
C   3.67686670284649     -0.72670743155550     -0.00479541202602
C   6.13224884641929     -0.73997883984993     -0.00632338623858
C   4.90351914550401     -1.44445752054090      0.00751768830159
C   8.59901484869081      0.63260386666793     -0.00101133422380
C   8.59174548810050     -0.72485086719319      0.00072504603735
C   7.36486276438985     -1.47033266560598      0.00049486934466
H   -9.52830597181814      1.27684744919284     -0.00270163681798
H   9.54141097460619      1.17457248844457     -0.00206336648518
C   -7.36983790976868     -2.77954514593389      0.00312634335708
C   -4.92459910905015     -2.80843725734101     -0.00460528907921
C   -6.16662249566744     -3.51665219282533      0.00169655107992
C   -3.70251035970491     -3.52468154912026      0.00571878010666
C   -2.46764698511392     -2.82132596280400     -0.00632585824990
C   -0.01513347410770     -2.83314164539971     -0.00604426974092
C   -1.24712184122656     -3.53473217556300      0.00551968366725
C   1.20924506964357     -3.54791467864352      0.00805871345849
C   2.43733602215464     -2.84764173817541     -0.00608104485234
C   4.89430234377080     -2.86112296828604     -0.00526030478103
C   3.66461525504104     -3.56421984553201      0.00761911515957
C   6.12863901474565     -3.58258405771778      0.00096495711699
C   7.33967266469532     -2.85841330737039      0.00248018319869
H   -9.54144911125902     -1.17456346666430      0.00226083090216
H   9.52826186807155     -1.27691907390448      0.00197485379837
H   -8.31516504384864     -3.31814985321231      0.00729857188773
H   8.27915514249207     -3.40714078989363      0.00681973918158
C   -6.14499418870218     -4.92764727278338      0.00302254913999
C   -3.70678334799751     -4.94126171411716     -0.00679841894792
C   -4.95559005800169     -5.64349397349412      0.00116871569699
C   -2.48612132622665     -5.65478557440947      0.00614125209662
C   -1.25405833548005     -4.95612205000132     -0.00503435388927
C   1.20101257386816     -4.96928038819302     -0.00385322963129
C   -0.03033667441341     -5.66952030313900      0.00398997003238
C   3.65375010132847     -4.98074377541453     -0.00309522988330
C   2.42549269587528     -5.68117463552727      0.00628170066869
C   6.09196561781097     -4.99325796338655      0.00325918379042
C   4.89497644461045     -5.69634842095790      0.00202298796027
H   -7.08989238804069     -5.46699984223871      0.00742531082125
H   7.03105520920009     -5.54265853633254      0.00683896355417
C   -4.92354532219813     -7.07882109967734      0.00061394679214
C   -2.48534208823777     -7.08772807792913     -0.00189594564379
C   -3.75168589177895     -7.76394715763627     -0.00170126671874
C   -0.03794895698805     -7.09946487446944     -0.00168022049625
C   -1.27795610040136     -7.77290438466689     -0.00366491325785
C   2.40944432072629     -7.11402201200282     -0.00081701968533
C   1.19474993715296     -7.78618536556242     -0.00296931056689
C   4.84762105249800     -7.13126211057943      0.00168979497423
C   3.66847160587561     -7.80378799294376     -0.00065863938960
H   -5.86994035041618     -7.61383059804164      0.00215798365757
H   5.78824962538815     -7.67633218931421      0.00281691445618
H   -3.75352693944918     -8.85107156923607     -0.00353718114765
H   -1.28430440589466     -8.86087539249706     -0.00809229711623
H   1.18922157469537     -8.87416062058945     -0.00706194725726
H   3.65854661482387     -8.89086063405326     -0.00231318081200

    units angstrom      # Angstroms are the default
    no_reorient         # Geometry fixed, default
    symmetry c1         # C1 symmetry, default
}

set {
    scf_type DF         # Density fitting, faster than exact integrals
    freeze_core True    # Freeze core electrons
    basis jun-cc-pVDZ   # Jun-cc-pVDZ basis set, recommended for sSAPT0 in https://doi.org/10.1063/1.4867135
}

energy('ssapt0')        # Compute sSAPT0 energy, includes also SAPT0
--------------------------------------------------------------------------

  //              Dimer HF             //
    Molecular point group: c1
  Charge       = 1
  Multiplicity = 1
  Basis Set: JUN-CC-PVDZ
    Blend: JUN-CC-PVDZ
  Basis Set: (JUN-CC-PVDZ AUX)
    Blend: JUN-CC-PVDZ-JKFIT
  @DF-RHF Final Energy: -3953.65678740729027
    Total Energy =                      -3953.6567874072898121
 Dipole X            :         -0.0017235            0.0004804           -0.0012431
 Dipole Y            :         -0.0514091            0.0561130            0.0047039
 Dipole Z            :         18.1967230          -23.0139532           -4.8172302
 Magnitude           :                                                    4.8172327
  //            Monomer A HF           //
    Molecular point group: c1
  Multiplicity = 1
  Basis Set: JUN-CC-PVDZ
    Blend: JUN-CC-PVDZ
  Basis Set: (JUN-CC-PVDZ AUX)
    Blend: JUN-CC-PVDZ-JKFIT
  @DF-RHF Final Energy:  -303.29846546134075
    Total Energy =                       -303.2984654613407542
  //            Monomer B HF           //
    Molecular point group: c1

    Geometry (in Angstrom), charge = 0, multiplicity = 1:

       Center              X                  Y                   Z               Mass
    ------------   -----------------  -----------------  -----------------  -----------------
      Gh(C)           0.680062820275    -0.008027535675    -5.003341447889    12.000000000000
      Gh(C)          -0.680508179725    -0.005999535675    -5.002957447889    12.000000000000
      Gh(N)          -1.085639179725    -0.005001535675    -3.684633447889    14.003074004430
      Gh(C)           0.000103820275    -0.001725535675    -2.903232447889    12.000000000000
      Gh(C)          -2.477369179725     0.044404464325    -3.216654447889    12.000000000000
      Gh(N)           1.085217820275    -0.005001535675    -3.684633447889    14.003074004430
      Gh(H)           1.385141820275    -0.015855535675    -5.820780447889     1.007825032230
      Gh(H)          -1.385306179725    -0.006189535675    -5.820626447889     1.007825032230
      Gh(H)          -0.000013179725     0.000021464325    -1.822143447889     1.007825032230
      Gh(C)           2.478112820275    -0.021893535675    -3.219535447889    12.000000000000
      Gh(H)           2.490587820275     0.005451464325    -2.129282447889     1.007825032230
      Gh(H)           2.967023820275    -0.935339535675    -3.566711447889     1.007825032230
      Gh(H)           3.001423820275     0.853589464325    -3.611007447889     1.007825032230
      Gh(H)          -2.857363179725     1.066475464325    -3.296613447889     1.007825032230
      Gh(H)          -3.082683179725    -0.625679535675    -3.829718447889     1.007825032230
      Gh(H)          -2.518132179725    -0.282579535675    -2.176706447889     1.007825032230
         C           -3.668445443746     7.803766634408     0.314487593446    12.000000000000
         C           -4.847602899072     7.131256295665     0.312121018514    12.000000000000
         C           -4.894963478901     5.696344867857     0.311548107415    12.000000000000
         C           -3.653744858499     4.980744805284     0.319208549145    12.000000000000
         C           -2.409429301220     7.113995501000     0.314681935706    12.000000000000
         C           -2.425481523830     5.681136415228     0.307677046836    12.000000000000
         C           -1.194748196161     7.786158658634     0.316154116248    12.000000000000
         C            0.037954849212     7.099436110082     0.313983411943    12.000000000000
         C            0.030328407694     5.669504024030     0.308500027028    12.000000000000
         C           -1.200988687630     4.969284812240     0.317469760961    12.000000000000
         C            1.277953646089     7.772873907520     0.315359260504    12.000000000000
         C            2.485353904999     7.087711349563     0.313084772599    12.000000000000
         C            2.486124505192     5.654785274566     0.306147023611    12.000000000000
         C            1.254078739919     4.956092577989     0.317774965200    12.000000000000
         C            3.751710411681     7.763926615305     0.313211623980    12.000000000000
         C            4.923561876460     7.078795241315     0.311155143272    12.000000000000
         C            4.955603091600     5.643461927694     0.310994730465    12.000000000000
         C            3.706797354479     4.941224672658     0.316086290634    12.000000000000
         H           -3.658525317484     8.890841883460     0.316172581696     1.007825032230
         H           -1.189217509482     8.874135551685     0.320125992689     1.007825032230
         H            1.284290059161     8.860847899813     0.319518084645     1.007825032230
         H            3.753537907074     8.851049743297     0.314734148295     1.007825032230
         H            5.869954523482     7.613809298981     0.310229776229     1.007825032230
         H           -5.788235887228     7.676316677259     0.310561171158     1.007825032230
         C           -6.091978138422     4.993274477968     0.309675866925    12.000000000000
         C           -6.128665660043     3.582594633123     0.310877043953    12.000000000000
         C           -3.664583919771     3.564196644069     0.307951949336    12.000000000000
         C           -4.894302384424     2.861095240226     0.317120934321    12.000000000000
         C           -2.437339174623     2.847626121410     0.319783727872    12.000000000000
         C           -1.209232037322     3.547901399303     0.306104701080    12.000000000000
         C            1.247137392437     3.534695215755     0.305296094675    12.000000000000
         C            0.015171859844     2.833126303630     0.316980277900    12.000000000000
         C            2.467640992715     2.821304441580     0.317080336023    12.000000000000
         C            3.702545294854     3.524674618749     0.303592375181    12.000000000000
         C            6.144976206658     4.927586830457     0.309761285253    12.000000000000
         C            6.166584179136     3.516598940267     0.311927838690    12.000000000000
         C            4.924605778734     2.808422389679     0.318466584927    12.000000000000
         H            7.089901329916     5.466902230548     0.305999404403     1.007825032230
         H           -7.031045930827     5.542702417183     0.305442651973     1.007825032230
         C           -7.339702220848     2.858425998905     0.309249876512    12.000000000000
         C           -7.364886137784     1.470337835908     0.311015414639    12.000000000000
         C           -4.903508788672     1.444441276485     0.306299150447    12.000000000000
         C           -6.132261332336     0.739953821379     0.318589194430    12.000000000000
         C           -3.676878980242     0.726711606998     0.316926866847    12.000000000000
         C           -2.445660765791     1.429655597587     0.306617156646    12.000000000000
         C           -1.223604861027     0.715338965960     0.318046421177    12.000000000000
         C            0.007633689588     1.417397613563     0.316512074895    12.000000000000
         C            1.231215628021     0.702131154912     0.297685489239    12.000000000000
         C            2.460816920806     1.403306500451     0.317189998129    12.000000000000
         C            3.684426074471     0.687212892537     0.316361211852    12.000000000000
         C            4.918704721813     1.391749025514     0.303959390217    12.000000000000
         C            7.369797898236     2.779496667509     0.310167418897    12.000000000000
         C            7.380158486396     1.391231972180     0.311714101743    12.000000000000
         C            6.139795359397     0.674133087526     0.318042443554    12.000000000000
         H           -8.279194979072     3.407132505449     0.304952324390     1.007825032230
         H            8.315109291754     3.318132560949     0.305956843098     1.007825032230
         C           -8.591760117307     0.724847017370     0.311355842257    12.000000000000
         C           -8.599028783429    -0.632625341904     0.313478966840    12.000000000000
         C           -6.139817318844    -0.674122172829     0.306489625505    12.000000000000
         C           -7.380188291863    -1.391251725257     0.313905687046    12.000000000000
         C           -4.918688659982    -1.391740553705     0.318830123654    12.000000000000
         C           -3.684442475410    -0.687222851411     0.307797883590    12.000000000000
         C           -2.460821219973    -1.403330714500     0.318340969779    12.000000000000
         C           -1.231166192046    -0.702159400556     0.306220590987    12.000000000000
         C           -0.007573805113    -1.417404385086     0.313677115291    12.000000000000
         C            1.223643536163    -0.715260912939     0.323682737239    12.000000000000
         C            2.445666469606    -1.429628824682     0.311932724480    12.000000000000
         C            3.676862523121    -0.726692967231     0.307792140085    12.000000000000
         C            6.132244666694    -0.739964375525     0.306264165872    12.000000000000
         C            4.903514965779    -1.444443056216     0.320105240412    12.000000000000
         C            8.599010668965     0.632618330993     0.311576217887    12.000000000000
         C            8.591741308375    -0.724836402868     0.313312598148    12.000000000000
         C            7.364858584664    -1.470318201281     0.313082421455    12.000000000000
         H           -9.528310151544     1.276861913518     0.309885915293     1.007825032230
         H            9.541406794881     1.174586952770     0.310524185625     1.007825032230
         C           -7.369842089494    -2.779530681609     0.315713895468    12.000000000000
         C           -4.924603288776    -2.808422793016     0.307982263031    12.000000000000
         C           -6.166626675393    -3.516637728500     0.314284103191    12.000000000000
         C           -3.702514539430    -3.524667084795     0.318306332217    12.000000000000
         C           -2.467651164839    -2.821311498479     0.306261693861    12.000000000000
         C           -0.015137653833    -2.833127181075     0.306543282370    12.000000000000
         C           -1.247126020952    -3.534717711238     0.318107235778    12.000000000000
         C            1.209240889918    -3.547900214319     0.320646265569    12.000000000000
         C            2.437331842429    -2.847627273850     0.306506507258    12.000000000000
         C            4.894298164045    -2.861108503961     0.307327247330    12.000000000000
         C            3.664611075316    -3.564205381207     0.320206667270    12.000000000000
         C            6.128634835020    -3.582569593393     0.313552509228    12.000000000000
         C            7.339668484970    -2.858398843045     0.315067735309    12.000000000000
         H           -9.541453290984    -1.174549002339     0.314848383013     1.007825032230
         H            9.528257688346    -1.276904609579     0.314562405909     1.007825032230
         H           -8.315169223574    -3.318135388887     0.319886123998     1.007825032230
         H            8.279150962767    -3.407126325569     0.319407291292     1.007825032230
         C           -6.144998368428    -4.927632808458     0.315610101251    12.000000000000
         C           -3.706787527723    -4.941247249792     0.305789133163    12.000000000000
         C           -4.955594237727    -5.643479509169     0.313756267808    12.000000000000
         C           -2.486125505952    -5.654771110084     0.318728804207    12.000000000000
         C           -1.254062515205    -4.956107585676     0.307553198221    12.000000000000
         C            1.201008394143    -4.969265923868     0.308734322479    12.000000000000
         C           -0.030340854139    -5.669505838814     0.316577522143    12.000000000000
         C            3.653745921603    -4.980729311090     0.309492322227    12.000000000000
         C            2.425488516150    -5.681160171202     0.318869252779    12.000000000000
         C            6.091961438086    -4.993243499062     0.315846735901    12.000000000000
         C            4.894972264885    -5.696333956633     0.314610540071    12.000000000000
         H           -7.089896567766    -5.466985377914     0.320012862932     1.007825032230
         H            7.031051029475    -5.542644072008     0.319426515665     1.007825032230
         C           -4.923549501924    -7.078806635352     0.313201498903    12.000000000000
         C           -2.485346267963    -7.087713613604     0.310691606467    12.000000000000
         C           -3.751690071504    -7.763932693311     0.310886285392    12.000000000000
         C           -0.037953136713    -7.099450410144     0.310907331614    12.000000000000
         C           -1.277960280127    -7.772889920342     0.308922638853    12.000000000000
         C            2.409440141001    -7.114007547678     0.311770532425    12.000000000000
         C            1.194745757428    -7.786170901237     0.309618241544    12.000000000000
         C            4.847616872773    -7.131247646254     0.314277347085    12.000000000000
         C            3.668467426150    -7.803773528619     0.311928912721    12.000000000000
         H           -5.869944530142    -7.613816133717     0.314745535768     1.007825032230
         H            5.788245445663    -7.676317724989     0.315404466567     1.007825032230
         H           -3.753531119175    -8.851057104911     0.309050370963     1.007825032230
         H           -1.284308585620    -8.860860928172     0.304495254994     1.007825032230
         H            1.189217394970    -8.874146156264     0.305525604853     1.007825032230
         H            3.658542435098    -8.890846169728     0.310274371299     1.007825032230

  Charge       = 0
  Multiplicity = 1
  Basis Set: JUN-CC-PVDZ
    Blend: JUN-CC-PVDZ
  Basis Set: (JUN-CC-PVDZ AUX)
    Blend: JUN-CC-PVDZ-JKFIT

    Orbital Energies [Eh]
    ---------------------

    Doubly Occupied:

       1A    -11.264033     2A    -11.263714     3A    -11.263644
       4A    -11.263293     5A    -11.263285     6A    -11.263226
       7A    -11.263123     8A    -11.263088     9A    -11.263050
      10A    -11.262860    11A    -11.262734    12A    -11.262719
      13A    -11.262239    14A    -11.262229    15A    -11.262219
      16A    -11.262163    17A    -11.262085    18A    -11.262069
      19A    -11.262027    20A    -11.261984    21A    -11.261977
      22A    -11.261876    23A    -11.261854    24A    -11.261709
      25A    -11.261707    26A    -11.261679    27A    -11.261672
      28A    -11.261634    29A    -11.261628    30A    -11.261536
      31A    -11.261518    32A    -11.261512    33A    -11.261503
      34A    -11.261491    35A    -11.261473    36A    -11.261463
      37A    -11.261288    38A    -11.261280    39A    -11.261273
      40A    -11.261271    41A    -11.261255    42A    -11.261248
      43A    -11.261240    44A    -11.261227    45A    -11.261218
      46A    -11.261198    47A    -11.261191    48A    -11.261186
      49A    -11.261032    50A    -11.261018    51A    -11.260975
      52A    -11.260936    53A    -11.260893    54A    -11.260853
      55A    -11.259865    56A    -11.259852    57A    -11.259848
      58A    -11.259821    59A    -11.259817    60A    -11.259801
      61A    -11.259236    62A    -11.259213    63A    -11.259203
      64A    -11.259158    65A    -11.259148    66A    -11.259122
      67A    -11.258868    68A    -11.258849    69A    -11.258847
      70A    -11.258820    71A    -11.258815    72A    -11.258804
      73A    -11.254494    74A    -11.254491    75A    -11.254485
      76A    -11.254484    77A    -11.254469    78A    -11.254460
      79A    -11.253616    80A    -11.253612    81A    -11.253598
      82A    -11.253592    83A    -11.253591    84A    -11.253585
      85A    -11.253532    86A    -11.253528    87A    -11.253512
      88A    -11.253506    89A    -11.253504    90A    -11.253497
      91A    -11.253022    92A    -11.253019    93A    -11.253013
      94A    -11.253012    95A    -11.252998    96A    -11.252988
      97A     -1.253832    98A     -1.238916    99A     -1.238877
     100A     -1.220385   101A     -1.220366   102A     -1.215342
     103A     -1.200965   104A     -1.195527   105A     -1.188051
     106A     -1.188025   107A     -1.173691   108A     -1.173690
     109A     -1.155530   110A     -1.155524   111A     -1.152620
     112A     -1.144653   113A     -1.144652   114A     -1.128475
     115A     -1.114617   116A     -1.113096   117A     -1.112396
     118A     -1.112359   119A     -1.111553   120A     -1.088341
     121A     -1.088318   122A     -1.076896   123A     -1.076895
     124A     -1.067527   125A     -1.067485   126A     -1.064875
     127A     -1.046719   128A     -1.046707   129A     -1.040390
     130A     -1.038673   131A     -1.038664   132A     -1.025139
     133A     -1.021283   134A     -1.021211   135A     -1.007104
     136A     -1.006715   137A     -1.003715   138A     -1.000396
     139A     -1.000335   140A     -0.991014   141A     -0.970902
     142A     -0.970846   143A     -0.955812   144A     -0.955751
     145A     -0.905489   146A     -0.905470   147A     -0.905445
     148A     -0.905438   149A     -0.904214   150A     -0.892245
     151A     -0.892195   152A     -0.890257   153A     -0.890205
     154A     -0.889353   155A     -0.872148   156A     -0.869002
     157A     -0.851459   158A     -0.847757   159A     -0.847750
     160A     -0.845492   161A     -0.842915   162A     -0.834470
     163A     -0.834466   164A     -0.828055   165A     -0.828044
     166A     -0.784467   167A     -0.784457   168A     -0.783566
     169A     -0.783552   170A     -0.782190   171A     -0.782173
     172A     -0.781932   173A     -0.766901   174A     -0.760685
     175A     -0.750472   176A     -0.733414   177A     -0.726997
     178A     -0.726949   179A     -0.724985   180A     -0.724461
     181A     -0.724422   182A     -0.718381   183A     -0.713670
     184A     -0.713662   185A     -0.699497   186A     -0.699469
     187A     -0.686019   188A     -0.685881   189A     -0.685865
     190A     -0.682087   191A     -0.682078   192A     -0.678686
     193A     -0.653542   194A     -0.650786   195A     -0.650749
     196A     -0.649702   197A     -0.649696   198A     -0.649487
     199A     -0.640834   200A     -0.640781   201A     -0.640004
     202A     -0.639084   203A     -0.635926   204A     -0.635891
     205A     -0.629046   206A     -0.617711   207A     -0.615231
     208A     -0.615201   209A     -0.608715   210A     -0.608708
     211A     -0.599164   212A     -0.599069   213A     -0.598654
     214A     -0.598495   215A     -0.598473   216A     -0.597930
     217A     -0.594988   218A     -0.594974   219A     -0.594633
     220A     -0.594111   221A     -0.591859   222A     -0.591855
     223A     -0.587273   224A     -0.577738   225A     -0.577714
     226A     -0.575679   227A     -0.575637   228A     -0.573293
     229A     -0.569545   230A     -0.568041   231A     -0.568015
     232A     -0.566657   233A     -0.566650   234A     -0.560847
     235A     -0.558629   236A     -0.558576   237A     -0.558359
     238A     -0.554274   239A     -0.550539   240A     -0.547410
     241A     -0.544220   242A     -0.534980   243A     -0.534935
     244A     -0.533452   245A     -0.533435   246A     -0.528000
     247A     -0.527977   248A     -0.527673   249A     -0.517058
     250A     -0.517036   251A     -0.515304   252A     -0.515299
     253A     -0.509559   254A     -0.509547   255A     -0.497936
     256A     -0.496369   257A     -0.496315   258A     -0.493763
     259A     -0.493702   260A     -0.489393   261A     -0.481367
     262A     -0.477362   263A     -0.477360   264A     -0.473904
     265A     -0.469329   266A     -0.466423   267A     -0.466418
     268A     -0.458762   269A     -0.446554   270A     -0.446505
     271A     -0.440969   272A     -0.440730   273A     -0.440673
     274A     -0.434631   275A     -0.433851   276A     -0.407306
     277A     -0.407293   278A     -0.386341   279A     -0.386279
     280A     -0.385678   281A     -0.385671   282A     -0.383680
     283A     -0.354255   284A     -0.354234   285A     -0.350595
     286A     -0.338010   287A     -0.335502   288A     -0.335478
     289A     -0.332660   290A     -0.332644   291A     -0.306982
     292A     -0.301859   293A     -0.301795   294A     -0.300791
     295A     -0.286098   296A     -0.256428   297A     -0.253403
     298A     -0.253364   299A     -0.204184   300A     -0.204109

  @DF-RHF Final Energy: -3650.34153181462170

   => Energetics <=

    Nuclear Repulsion Energy =          15611.4211649754306563
    One-Electron Energy =              -36072.1921116906742100
    Two-Electron Energy =               16810.4294149006236694
    Total Energy =                      -3650.3415318146217032
 Dipole X            :         -0.0008236            0.0002112           -0.0006124
 Dipole Y            :          0.0016398           -0.0013774            0.0002624
 Dipole Z            :       -354.4214089          354.4263101            0.0049012
 Magnitude           :                                                    0.0049463

    SAPT Results
  --------------------------------------------------------------------------------------------------------
    Electrostatics                -17.69370665 [mEh]     -11.10296855 [kcal/mol]     -46.45482042 [kJ/mol]
      Elst10,r                    -17.69370665 [mEh]     -11.10296855 [kcal/mol]     -46.45482042 [kJ/mol]

    Exchange                       22.82791442 [mEh]      14.32473256 [kcal/mol]      59.93468105 [kJ/mol]
      Exch10                       22.82791442 [mEh]      14.32473256 [kcal/mol]      59.93468105 [kJ/mol]
      Exch10(S^2)                  22.67349287 [mEh]      14.22783158 [kcal/mol]      59.52924733 [kJ/mol]

    Induction                     -21.92433909 [mEh]     -13.75773049 [kcal/mol]     -57.56234436 [kJ/mol]
      Ind20,r                     -23.32895619 [mEh]     -14.63914103 [kcal/mol]     -61.25016605 [kJ/mol]
      Exch-Ind20,r                  5.61130834 [mEh]       3.52114914 [kcal/mol]      14.73248802 [kJ/mol]
      delta HF,r (2)               -4.20669124 [mEh]      -2.63973861 [kcal/mol]     -11.04466633 [kJ/mol]

    Dispersion                    -28.45083715 [mEh]     -17.85316985 [kcal/mol]     -74.69766265 [kJ/mol]
      Disp20                      -30.45583089 [mEh]     -19.11132241 [kcal/mol]     -79.96177297 [kJ/mol]
      Exch-Disp20                   2.00499373 [mEh]       1.25815256 [kcal/mol]       5.26411032 [kJ/mol]
      Disp20 (SS)                 -15.22791544 [mEh]      -9.55566121 [kcal/mol]     -39.98088649 [kJ/mol]
      Disp20 (OS)                 -15.22791544 [mEh]      -9.55566121 [kcal/mol]     -39.98088649 [kJ/mol]
      Exch-Disp20 (SS)              1.19974987 [mEh]       0.75285441 [kcal/mol]       3.14994285 [kJ/mol]
      Exch-Disp20 (OS)              0.80524386 [mEh]       0.50529815 [kcal/mol]       2.11416747 [kJ/mol]

  Total HF                        -16.79013133 [mEh]     -10.53596647 [kcal/mol]     -44.08248373 [kJ/mol]
  Total SAPT0                     -45.24096848 [mEh]     -28.38913632 [kcal/mol]    -118.78014638 [kJ/mol]

  Special recipe for scaled SAPT0 (see Manual):
    Electrostatics sSAPT0         -17.69370665 [mEh]     -11.10296855 [kcal/mol]     -46.45482042 [kJ/mol]
    Exchange sSAPT0                22.82791442 [mEh]      14.32473256 [kcal/mol]      59.93468105 [kJ/mol]
    Induction sSAPT0              -21.80890626 [mEh]     -13.68529529 [kcal/mol]     -57.25927550 [kJ/mol]
    Dispersion sSAPT0             -28.40959150 [mEh]     -17.82728781 [kcal/mol]     -74.58937220 [kJ/mol]
  Total sSAPT0                    -45.08428999 [mEh]     -28.29081909 [kcal/mol]    -118.36878707 [kJ/mol]
  --------------------------------------------------------------------------------------------------------

*** Psi4 exiting successfully. Buy a developer a beer!
