                               Psi4 1.9 release

  ==> Input File <==

--------------------------------------------------------------------------
memory 64 GB # how much memory is available ! Depends on the nodes/cores !

molecule dimer {
# monomer A
+1 1    # Charge and multiplicity
C  0.680067 -1.215929 7.008042
C -0.680504 -1.215545 7.006014
N -1.085635  0.102779 7.005016
C  0.000108  0.884180 7.001740
C -2.477365  0.570758 6.955610
N  1.085222  0.102779 7.005016
H  1.385146 -2.033368 7.015870
H -1.385302 -2.033214 7.006204
H -0.000009  1.965269 6.999993
C  2.478117  0.567877 7.021908
H  2.490592  1.658130 6.994563
H  2.967028  0.220701 7.935354
H  3.001428  0.176405 6.146425
H -2.857359  0.490799 5.933539
H -3.082679 -0.042306 7.625694
H -2.518128  1.610706 7.282594
--
# monomer B
0 1     # Charge and multiplicity
C   -3.66844126402057      7.80375217008252      0.00190004133558
C   -4.84759871934653      7.13124183134024     -0.00046653359696
C   -4.89495929917518      5.69633040353158     -0.00103944469517
C   -3.65374067877320      4.98073034095895      0.00662099703436
C   -2.40942512149445      7.11398103667468      0.00209438359570
C   -2.42547734410473      5.68112195090346     -0.00491050527438
C   -1.19474401643570      7.78614419430947      0.00356656413763
C   0.03795902893699      7.09942164575698      0.00139585983271
C   0.03033258741920      5.66948955970466     -0.00408752508301
C   -1.20098450790502      4.96927034791531      0.00488220885047
C   1.27795782581485      7.77285944319479      0.00277170839332
C   2.48535808472416      7.08769688523756      0.00049722048857
C   2.48612868491717      5.65477081024076     -0.00644052849921
C   1.25408291964399      4.95607811366431      0.00518741308898
C   3.75171459140595      7.76391215098033      0.00062407186893
C   4.92356605618520      7.07878077698995     -0.00143240883900
C   4.95560727132542      5.64344746336949     -0.00159282164606
C   3.70680153420475      4.94121020833308      0.00349873852374
H   -3.65852113775815      8.89082741913536      0.00358502958574
H   -1.18921332975660      8.87412108735996      0.00753844057883
H   1.28429423888630      8.86083343548850      0.00693053253426
H   3.75354208679975      8.85103527897216      0.00214659618464
H   5.86995870320703      7.61379483465560     -0.00235777588134
H   -5.78823170750226      7.67630221293400     -0.00202638095293
C   -6.09197395869619      4.99326001364347     -0.00291168518608
C   -6.12866148031747      3.58258016879823     -0.00171050815740
C   -3.66457974004527      3.56418217974434     -0.00463560277484
C   -4.89429820469869      2.86108077590057      0.00453338221034
C   -2.43733499489796      2.84761165708481      0.00719617576166
C   -1.20922785759670      3.54788693497833     -0.00648285103018
C   1.24714157216223      3.53468075142962     -0.00729145743546
C   0.01517603956900      2.83311183930540      0.00439272578912
C   2.46764517244071      2.82128997725533      0.00449278391269
C   3.70254947457969      3.52466015442405     -0.00899517692985
C   6.14498038638375      4.92757236613191     -0.00282626685777
C   6.16658835886151      3.51658447594213     -0.00065971342101
C   4.92460995845939      2.80840792535402      0.00587903281610
H   7.08990550964105      5.46688776622306     -0.00658814770723
H   -7.03104175110130      5.54268795285765     -0.00714490013730
C   -7.33969804112295      2.85841153457957     -0.00333767559888
C   -7.36488195805880      1.47032337158330     -0.00157213747140
C   -4.90350460894690      1.44442681216000     -0.00628840166334
C   -6.13225715261081      0.73993935705394      0.00600164231964
C   -3.67687480051673      0.72669714267312      0.00433931473643
C   -2.44565658606518      1.42964113326212     -0.00597039546461
C   -1.22360068130162      0.71532450163492      0.00545886906656
C   0.00763786931376      1.41738314923765      0.00392452278437
C   1.23121980774686      0.70211669058719     -0.01490206287210
C   2.46082110053113      1.40329203612573      0.00460244601878
C   3.68443025419614      0.68719842821222      0.00377365974158
C   4.91870890153864      1.39173456118907     -0.00862816189375
C   7.36980207796101      2.77948220318441     -0.00242013321349
C   7.38016266612146      1.39121750785509     -0.00087345036788
C   6.13979953912259      0.67411862320065      0.00545489144369
H   -8.27919079934664      3.40711804112415     -0.00763522772059
H   8.31511347147953      3.31811809662368     -0.00663070901292
C   -8.59175593758115      0.72483255304480     -0.00123170985383
C   -8.59902460370342     -0.63263980622873      0.00089141472904
C   -6.13981313911873     -0.67413663715361     -0.00609792660607
C   -7.38018411213749     -1.39126618958160      0.00131813493501
C   -4.91868448025621     -1.39175501803000      0.00624257154343
C   -3.68443829568458     -0.68723731573599     -0.00478966852105
C   -2.46081704024768     -1.40334517882457      0.00575341766833
C   -1.23116201232071     -0.70217386488055     -0.00636696112346
C   -0.00756962538737     -1.41741884941102      0.00108956317991
C   1.22364771588843     -0.71527537726392      0.01109518512883
C   2.44567064933149     -1.42964328900682     -0.00065482763106
C   3.67686670284649     -0.72670743155550     -0.00479541202602
C   6.13224884641929     -0.73997883984993     -0.00632338623858
C   4.90351914550401     -1.44445752054090      0.00751768830159
C   8.59901484869081      0.63260386666793     -0.00101133422380
C   8.59174548810050     -0.72485086719319      0.00072504603735
C   7.36486276438985     -1.47033266560598      0.00049486934466
H   -9.52830597181814      1.27684744919284     -0.00270163681798
H   9.54141097460619      1.17457248844457     -0.00206336648518
C   -7.36983790976868     -2.77954514593389      0.00312634335708
C   -4.92459910905015     -2.80843725734101     -0.00460528907921
C   -6.16662249566744     -3.51665219282533      0.00169655107992
C   -3.70251035970491     -3.52468154912026      0.00571878010666
C   -2.46764698511392     -2.82132596280400     -0.00632585824990
C   -0.01513347410770     -2.83314164539971     -0.00604426974092
C   -1.24712184122656     -3.53473217556300      0.00551968366725
C   1.20924506964357     -3.54791467864352      0.00805871345849
C   2.43733602215464     -2.84764173817541     -0.00608104485234
C   4.89430234377080     -2.86112296828604     -0.00526030478103
C   3.66461525504104     -3.56421984553201      0.00761911515957
C   6.12863901474565     -3.58258405771778      0.00096495711699
C   7.33967266469532     -2.85841330737039      0.00248018319869
H   -9.54144911125902     -1.17456346666430      0.00226083090216
H   9.52826186807155     -1.27691907390448      0.00197485379837
H   -8.31516504384864     -3.31814985321231      0.00729857188773
H   8.27915514249207     -3.40714078989363      0.00681973918158
C   -6.14499418870218     -4.92764727278338      0.00302254913999
C   -3.70678334799751     -4.94126171411716     -0.00679841894792
C   -4.95559005800169     -5.64349397349412      0.00116871569699
C   -2.48612132622665     -5.65478557440947      0.00614125209662
C   -1.25405833548005     -4.95612205000132     -0.00503435388927
C   1.20101257386816     -4.96928038819302     -0.00385322963129
C   -0.03033667441341     -5.66952030313900      0.00398997003238
C   3.65375010132847     -4.98074377541453     -0.00309522988330
C   2.42549269587528     -5.68117463552727      0.00628170066869
C   6.09196561781097     -4.99325796338655      0.00325918379042
C   4.89497644461045     -5.69634842095790      0.00202298796027
H   -7.08989238804069     -5.46699984223871      0.00742531082125
H   7.03105520920009     -5.54265853633254      0.00683896355417
C   -4.92354532219813     -7.07882109967734      0.00061394679214
C   -2.48534208823777     -7.08772807792913     -0.00189594564379
C   -3.75168589177895     -7.76394715763627     -0.00170126671874
C   -0.03794895698805     -7.09946487446944     -0.00168022049625
C   -1.27795610040136     -7.77290438466689     -0.00366491325785
C   2.40944432072629     -7.11402201200282     -0.00081701968533
C   1.19474993715296     -7.78618536556242     -0.00296931056689
C   4.84762105249800     -7.13126211057943      0.00168979497423
C   3.66847160587561     -7.80378799294376     -0.00065863938960
H   -5.86994035041618     -7.61383059804164      0.00215798365757
H   5.78824962538815     -7.67633218931421      0.00281691445618
H   -3.75352693944918     -8.85107156923607     -0.00353718114765
H   -1.28430440589466     -8.86087539249706     -0.00809229711623
H   1.18922157469537     -8.87416062058945     -0.00706194725726
H   3.65854661482387     -8.89086063405326     -0.00231318081200

    units angstrom      # Angstroms are the default
    no_reorient         # Geometry fixed, default
    symmetry c1         # C1 symmetry, default
}

set {
    scf_type DF         # Density fitting, faster than exact integrals
    freeze_core True    # Freeze core electrons
    basis jun-cc-pVDZ   # Jun-cc-pVDZ basis set, recommended for sSAPT0 in https://doi.org/10.1063/1.4867135
}

energy('ssapt0')        # Compute sSAPT0 energy, includes also SAPT0
--------------------------------------------------------------------------

  //              Dimer HF             //
    Molecular point group: c1
  Charge       = 1
  Multiplicity = 1
  Basis Set: JUN-CC-PVDZ
    Blend: JUN-CC-PVDZ
  Basis Set: (JUN-CC-PVDZ AUX)
    Blend: JUN-CC-PVDZ-JKFIT
  @DF-RHF Final Energy: -3953.64563614860072
    Total Energy =                      -3953.6456361486016249
 Dipole X            :          0.0017131            0.0004804            0.0021935
 Dipole Y            :         -1.5386064            1.8866171            0.3480107
 Dipole Z            :        -31.2487478           42.4558451           11.2070974
 Magnitude           :                                                   11.2124996
  //            Monomer A HF           //
    Molecular point group: c1
  Multiplicity = 1
  Basis Set: JUN-CC-PVDZ
    Blend: JUN-CC-PVDZ
  Basis Set: (JUN-CC-PVDZ AUX)
    Blend: JUN-CC-PVDZ-JKFIT
  @DF-RHF Final Energy:  -303.29725704086974
    Total Energy =                       -303.2972570408697379
  //            Monomer B HF           //
    Molecular point group: c1

    Geometry (in Angstrom), charge = 0, multiplicity = 1:

       Center              X                  Y                   Z               Mass
    ------------   -----------------  -----------------  -----------------  -----------------
      Gh(C)           0.680062820275    -1.215917226251     6.474342959858    12.000000000000
      Gh(C)          -0.680508179725    -1.215533226251     6.472314959858    12.000000000000
      Gh(N)          -1.085639179725     0.102790773749     6.471316959858    14.003074004430
      Gh(C)           0.000103820275     0.884191773749     6.468040959858    12.000000000000
      Gh(C)          -2.477369179725     0.570769773749     6.421910959858    12.000000000000
      Gh(N)           1.085217820275     0.102790773749     6.471316959858    14.003074004430
      Gh(H)           1.385141820275    -2.033356226251     6.482170959858     1.007825032230
      Gh(H)          -1.385306179725    -2.033202226251     6.472504959858     1.007825032230
      Gh(H)          -0.000013179725     1.965280773749     6.466293959858     1.007825032230
      Gh(C)           2.478112820275     0.567888773749     6.488208959858    12.000000000000
      Gh(H)           2.490587820275     1.658141773750     6.460863959858     1.007825032230
      Gh(H)           2.967023820275     0.220712773749     7.401654959858     1.007825032230
      Gh(H)           3.001423820275     0.176416773749     5.612725959858     1.007825032230
      Gh(H)          -2.857363179725     0.490810773749     5.399839959858     1.007825032230
      Gh(H)          -3.082683179725    -0.042294226251     7.091994959858     1.007825032230
      Gh(H)          -2.518132179725     1.610717773749     6.748894959858     1.007825032230
         C           -3.668445443746     7.803763943832    -0.531798998807    12.000000000000
         C           -4.847602899072     7.131253605090    -0.534165573739    12.000000000000
         C           -4.894963478901     5.696342177281    -0.534738484837    12.000000000000
         C           -3.653744858499     4.980742114708    -0.527078043108    12.000000000000
         C           -2.409429301220     7.113992810424    -0.531604656546    12.000000000000
         C           -2.425481523830     5.681133724653    -0.538609545416    12.000000000000
         C           -1.194748196161     7.786155968059    -0.530132476004    12.000000000000
         C            0.037954849212     7.099433419506    -0.532303180309    12.000000000000
         C            0.030328407694     5.669501333454    -0.537786565225    12.000000000000
         C           -1.200988687630     4.969282121665    -0.528816831292    12.000000000000
         C            1.277953646089     7.772871216944    -0.530927331749    12.000000000000
         C            2.485353904999     7.087708658987    -0.533201819654    12.000000000000
         C            2.486124505192     5.654782583990    -0.540139568641    12.000000000000
         C            1.254078739919     4.956089887414    -0.528511627053    12.000000000000
         C            3.751710411681     7.763923924730    -0.533074968273    12.000000000000
         C            4.923561876460     7.078792550739    -0.535131448981    12.000000000000
         C            4.955603091600     5.643459237119    -0.535291861788    12.000000000000
         C            3.706797354479     4.941221982083    -0.530200301618    12.000000000000
         H           -3.658525317484     8.890839192885    -0.530114010556     1.007825032230
         H           -1.189217509482     8.874132861109    -0.526160599563     1.007825032230
         H            1.284290059161     8.860845209238    -0.526768507608     1.007825032230
         H            3.753537907074     8.851047052722    -0.531552443957     1.007825032230
         H            5.869954523482     7.613806608405    -0.536056816023     1.007825032230
         H           -5.788235887228     7.676313986684    -0.535725421095     1.007825032230
         C           -6.091978138422     4.993271787393    -0.536610725328    12.000000000000
         C           -6.128665660043     3.582591942548    -0.535409548300    12.000000000000
         C           -3.664583919771     3.564193953494    -0.538334642917    12.000000000000
         C           -4.894302384424     2.861092549650    -0.529165657932    12.000000000000
         C           -2.437339174623     2.847623430834    -0.526502864380    12.000000000000
         C           -1.209232037322     3.547898708728    -0.540181891172    12.000000000000
         C            1.247137392437     3.534692525179    -0.540990497578    12.000000000000
         C            0.015171859844     2.833123613055    -0.529306314353    12.000000000000
         C            2.467640992715     2.821301751005    -0.529206256229    12.000000000000
         C            3.702545294854     3.524671928174    -0.542694217072    12.000000000000
         C            6.144976206658     4.927584139881    -0.536525307000    12.000000000000
         C            6.166584179136     3.516596249692    -0.534358753563    12.000000000000
         C            4.924605778734     2.808419699104    -0.527820007326    12.000000000000
         H            7.089901329916     5.466899539973    -0.540287187849     1.007825032230
         H           -7.031045930827     5.542699726607    -0.540843940279     1.007825032230
         C           -7.339702220848     2.858423308329    -0.537036715741    12.000000000000
         C           -7.364886137784     1.470335145333    -0.535271177614    12.000000000000
         C           -4.903508788672     1.444438585909    -0.539987441805    12.000000000000
         C           -6.132261332336     0.739951130803    -0.527697397822    12.000000000000
         C           -3.676878980242     0.726708916423    -0.529359725406    12.000000000000
         C           -2.445660765791     1.429652907012    -0.539669435607    12.000000000000
         C           -1.223604861027     0.715336275384    -0.528240171076    12.000000000000
         C            0.007633689588     1.417394922987    -0.529774517358    12.000000000000
         C            1.231215628021     0.702128464337    -0.548601103014    12.000000000000
         C            2.460816920806     1.403303809875    -0.529096594123    12.000000000000
         C            3.684426074471     0.687210201962    -0.529925380401    12.000000000000
         C            4.918704721813     1.391746334939    -0.542327202036    12.000000000000
         C            7.369797898236     2.779493976934    -0.536119173356    12.000000000000
         C            7.380158486396     1.391229281605    -0.534572490510    12.000000000000
         C            6.139795359397     0.674130396950    -0.528244148698    12.000000000000
         H           -8.279194979072     3.407129814874    -0.541334267863     1.007825032230
         H            8.315109291754     3.318129870373    -0.540329749155     1.007825032230
         C           -8.591760117307     0.724844326794    -0.534930749996    12.000000000000
         C           -8.599028783429    -0.632628032479    -0.532807625413    12.000000000000
         C           -6.139817318844    -0.674124863404    -0.539796966748    12.000000000000
         C           -7.380188291863    -1.391254415832    -0.532380905207    12.000000000000
         C           -4.918688659982    -1.391743244281    -0.527456468599    12.000000000000
         C           -3.684442475410    -0.687225541986    -0.538488708663    12.000000000000
         C           -2.460821219973    -1.403333405075    -0.527945622474    12.000000000000
         C           -1.231166192046    -0.702162091131    -0.540066001266    12.000000000000
         C           -0.007573805113    -1.417407075662    -0.532609476962    12.000000000000
         C            1.223643536163    -0.715263603514    -0.522603855013    12.000000000000
         C            2.445666469606    -1.429631515257    -0.534353867773    12.000000000000
         C            3.676862523121    -0.726695657806    -0.538494452168    12.000000000000
         C            6.132244666694    -0.739967066100    -0.540022426381    12.000000000000
         C            4.903514965779    -1.444445746791    -0.526181351841    12.000000000000
         C            8.599010668965     0.632615640417    -0.534710374366    12.000000000000
         C            8.591741308375    -0.724839093444    -0.532973994105    12.000000000000
         C            7.364858584664    -1.470320891856    -0.533204170797    12.000000000000
         H           -9.528310151544     1.276859222942    -0.536400676960     1.007825032230
         H            9.541406794881     1.174584262194    -0.535762406627     1.007825032230
         C           -7.369842089494    -2.779533372184    -0.530572696785    12.000000000000
         C           -4.924603288776    -2.808425483592    -0.538304329221    12.000000000000
         C           -6.166626675393    -3.516640419076    -0.532002489062    12.000000000000
         C           -3.702514539430    -3.524669775371    -0.527980260035    12.000000000000
         C           -2.467651164839    -2.821314189055    -0.540024898392    12.000000000000
         C           -0.015137653833    -2.833129871650    -0.539743309883    12.000000000000
         C           -1.247126020952    -3.534720401814    -0.528179356475    12.000000000000
         C            1.209240889918    -3.547902904894    -0.525640326684    12.000000000000
         C            2.437331842429    -2.847629964426    -0.539780084994    12.000000000000
         C            4.894298164045    -2.861111194537    -0.538959344923    12.000000000000
         C            3.664611075316    -3.564208071783    -0.526079924983    12.000000000000
         C            6.128634835020    -3.582572283968    -0.532734083025    12.000000000000
         C            7.339668484970    -2.858401533621    -0.531218856943    12.000000000000
         H           -9.541453290984    -1.174551692915    -0.531438209240     1.007825032230
         H            9.528257688346    -1.276907300155    -0.531724186344     1.007825032230
         H           -8.315169223574    -3.318138079463    -0.526400468254     1.007825032230
         H            8.279150962767    -3.407129016144    -0.526879300961     1.007825032230
         C           -6.144998368428    -4.927635499034    -0.530676491002    12.000000000000
         C           -3.706787527723    -4.941249940368    -0.540497459090    12.000000000000
         C           -4.955594237727    -5.643482199745    -0.532530324445    12.000000000000
         C           -2.486125505952    -5.654773800660    -0.527557788045    12.000000000000
         C           -1.254062515205    -4.956110276252    -0.538733394031    12.000000000000
         C            1.201008394143    -4.969268614444    -0.537552269773    12.000000000000
         C           -0.030340854139    -5.669508529390    -0.529709070110    12.000000000000
         C            3.653745921603    -4.980732001665    -0.536794270025    12.000000000000
         C            2.425488516150    -5.681162861778    -0.527417339473    12.000000000000
         C            6.091961438086    -4.993246189637    -0.530439856352    12.000000000000
         C            4.894972264885    -5.696336647208    -0.531676052182    12.000000000000
         H           -7.089896567766    -5.466988068489    -0.526273729321     1.007825032230
         H            7.031051029475    -5.542646762583    -0.526860076588     1.007825032230
         C           -4.923549501924    -7.078809325928    -0.533085093350    12.000000000000
         C           -2.485346267963    -7.087716304180    -0.535594985786    12.000000000000
         C           -3.751690071504    -7.763935383887    -0.535400306861    12.000000000000
         C           -0.037953136713    -7.099453100720    -0.535379260638    12.000000000000
         C           -1.277960280127    -7.772892610917    -0.537363953400    12.000000000000
         C            2.409440141001    -7.114010238253    -0.534516059827    12.000000000000
         C            1.194745757428    -7.786173591813    -0.536668350709    12.000000000000
         C            4.847616872773    -7.131250336830    -0.532009245168    12.000000000000
         C            3.668467426150    -7.803776219194    -0.534357679532    12.000000000000
         H           -5.869944530142    -7.613818824292    -0.531541056485     1.007825032230
         H            5.788245445663    -7.676320415565    -0.530882125686     1.007825032230
         H           -3.753531119175    -8.851059795487    -0.537236221290     1.007825032230
         H           -1.284308585620    -8.860863618748    -0.541791337258     1.007825032230
         H            1.189217394970    -8.874148846840    -0.540760987399     1.007825032230
         H            3.658542435098    -8.890848860304    -0.536012220954     1.007825032230

  Charge       = 0
  Multiplicity = 1
  Basis Set: JUN-CC-PVDZ
    Blend: JUN-CC-PVDZ
  Basis Set: (JUN-CC-PVDZ AUX)
    Blend: JUN-CC-PVDZ-JKFIT

    Orbital Energies [Eh]
    ---------------------

    Doubly Occupied:

       1A    -11.264049     2A    -11.263735     3A    -11.263734
       4A    -11.263394     5A    -11.263391     6A    -11.263356
       7A    -11.263199     8A    -11.263172     9A    -11.263169
      10A    -11.263013    11A    -11.262853    12A    -11.262849
      13A    -11.262370    14A    -11.262368    15A    -11.262294
      16A    -11.262292    17A    -11.262243    18A    -11.262207
      19A    -11.262162    20A    -11.262124    21A    -11.262122
      22A    -11.261968    23A    -11.261963    24A    -11.261845
      25A    -11.261831    26A    -11.261817    27A    -11.261813
      28A    -11.261765    29A    -11.261757    30A    -11.261684
      31A    -11.261658    32A    -11.261655    33A    -11.261629
      34A    -11.261628    35A    -11.261607    36A    -11.261558
      37A    -11.261420    38A    -11.261409    39A    -11.261403
      40A    -11.261396    41A    -11.261391    42A    -11.261382
      43A    -11.261378    44A    -11.261363    45A    -11.261359
      46A    -11.261336    47A    -11.261332    48A    -11.261328
      49A    -11.261174    50A    -11.261143    51A    -11.261141
      52A    -11.261060    53A    -11.261059    54A    -11.260988
      55A    -11.260021    56A    -11.260007    57A    -11.260005
      58A    -11.259976    59A    -11.259974    60A    -11.259958
      61A    -11.259398    62A    -11.259373    63A    -11.259371
      64A    -11.259319    65A    -11.259316    66A    -11.259287
      67A    -11.259025    68A    -11.259007    69A    -11.259005
      70A    -11.258978    71A    -11.258976    72A    -11.258964
      73A    -11.254594    74A    -11.254593    75A    -11.254591
      76A    -11.254589    77A    -11.254583    78A    -11.254581
      79A    -11.253745    80A    -11.253744    81A    -11.253740
      82A    -11.253739    83A    -11.253737    84A    -11.253731
      85A    -11.253661    86A    -11.253659    87A    -11.253656
      88A    -11.253655    89A    -11.253652    90A    -11.253647
      91A    -11.253122    92A    -11.253120    93A    -11.253119
      94A    -11.253117    95A    -11.253111    96A    -11.253109
      97A     -1.254143    98A     -1.239148    99A     -1.239148
     100A     -1.220591   101A     -1.220586   102A     -1.215617
     103A     -1.201152   104A     -1.195721   105A     -1.188308
     106A     -1.188306   107A     -1.173871   108A     -1.173868
     109A     -1.155781   110A     -1.155778   111A     -1.152886
     112A     -1.144825   113A     -1.144822   114A     -1.128704
     115A     -1.114862   116A     -1.113266   117A     -1.112647
     118A     -1.112633   119A     -1.111715   120A     -1.088565
     121A     -1.088550   122A     -1.077062   123A     -1.077061
     124A     -1.067759   125A     -1.067729   126A     -1.065130
     127A     -1.046924   128A     -1.046916   129A     -1.040613
     130A     -1.038835   131A     -1.038834   132A     -1.025396
     133A     -1.021568   134A     -1.021519   135A     -1.007295
     136A     -1.006939   137A     -1.003914   138A     -1.000639
     139A     -1.000591   140A     -0.991170   141A     -0.971127
     142A     -0.971079   143A     -0.955995   144A     -0.955939
     145A     -0.905768   146A     -0.905726   147A     -0.905642
     148A     -0.905602   149A     -0.904524   150A     -0.892538
     151A     -0.892479   152A     -0.890523   153A     -0.890466
     154A     -0.889598   155A     -0.872324   156A     -0.869138
     157A     -0.851654   158A     -0.848018   159A     -0.847996
     160A     -0.845754   161A     -0.843158   162A     -0.834688
     163A     -0.834675   164A     -0.828217   165A     -0.828213
     166A     -0.784678   167A     -0.784667   168A     -0.783805
     169A     -0.783779   170A     -0.782424   171A     -0.782404
     172A     -0.782188   173A     -0.767113   174A     -0.760961
     175A     -0.750736   176A     -0.733590   177A     -0.727195
     178A     -0.727182   179A     -0.725219   180A     -0.724662
     181A     -0.724643   182A     -0.718664   183A     -0.713926
     184A     -0.713921   185A     -0.699698   186A     -0.699685
     187A     -0.686297   188A     -0.686064   189A     -0.686061
     190A     -0.682286   191A     -0.682276   192A     -0.678921
     193A     -0.653751   194A     -0.650999   195A     -0.650969
     196A     -0.649973   197A     -0.649958   198A     -0.649671
     199A     -0.641093   200A     -0.641065   201A     -0.640196
     202A     -0.639260   203A     -0.636166   204A     -0.636139
     205A     -0.629266   206A     -0.617655   207A     -0.615405
     208A     -0.615385   209A     -0.608918   210A     -0.608911
     211A     -0.599181   212A     -0.599143   213A     -0.598875
     214A     -0.598748   215A     -0.598723   216A     -0.598202
     217A     -0.595172   218A     -0.595160   219A     -0.594844
     220A     -0.594406   221A     -0.592091   222A     -0.592088
     223A     -0.587562   224A     -0.577879   225A     -0.577869
     226A     -0.575734   227A     -0.575730   228A     -0.573492
     229A     -0.569567   230A     -0.568300   231A     -0.568276
     232A     -0.566881   233A     -0.566871   234A     -0.560999
     235A     -0.558859   236A     -0.558840   237A     -0.558515
     238A     -0.554492   239A     -0.550629   240A     -0.547557
     241A     -0.544339   242A     -0.535035   243A     -0.535001
     244A     -0.533655   245A     -0.533633   246A     -0.528182
     247A     -0.528167   248A     -0.527959   249A     -0.517319
     250A     -0.517285   251A     -0.515424   252A     -0.515419
     253A     -0.509745   254A     -0.509729   255A     -0.498139
     256A     -0.496571   257A     -0.496545   258A     -0.493843
     259A     -0.493834   260A     -0.489476   261A     -0.481553
     262A     -0.477487   263A     -0.477484   264A     -0.474105
     265A     -0.469574   266A     -0.466651   267A     -0.466647
     268A     -0.458875   269A     -0.446862   270A     -0.446801
     271A     -0.441099   272A     -0.440825   273A     -0.440800
     274A     -0.434756   275A     -0.433973   276A     -0.407448
     277A     -0.407424   278A     -0.386485   279A     -0.386437
     280A     -0.385797   281A     -0.385796   282A     -0.383829
     283A     -0.354399   284A     -0.354382   285A     -0.350737
     286A     -0.338169   287A     -0.335668   288A     -0.335600
     289A     -0.332780   290A     -0.332773   291A     -0.307163
     292A     -0.302026   293A     -0.301964   294A     -0.300912
     295A     -0.286242   296A     -0.256527   297A     -0.253577
     298A     -0.253525   299A     -0.204336   300A     -0.204247

  @DF-RHF Final Energy: -3650.33768027286123

   => Energetics <=

    Nuclear Repulsion Energy =          15611.4211649754324753
    One-Electron Energy =              -36072.0781590085607604
    Two-Electron Energy =               16810.3193137602684146
    Total Energy =                      -3650.3376802728598705
 Dipole X            :         -0.0009094            0.0002112           -0.0006982
 Dipole Y            :          0.0041720           -0.0044281           -0.0002561
 Dipole Z            :        605.1200377         -605.1236197           -0.0035819
 Magnitude           :                                                    0.0036583

    SAPT Results
  --------------------------------------------------------------------------------------------------------
    Electrostatics                 -8.02613386 [mEh]      -5.03647504 [kcal/mol]     -21.07261156 [kJ/mol]
      Elst10,r                     -8.02613386 [mEh]      -5.03647504 [kcal/mol]     -21.07261156 [kJ/mol]

    Exchange                       -0.00034114 [mEh]      -0.00021407 [kcal/mol]      -0.00089565 [kJ/mol]
      Exch10                       -0.00034114 [mEh]      -0.00021407 [kcal/mol]      -0.00089565 [kJ/mol]
      Exch10(S^2)                  -0.00034114 [mEh]      -0.00021407 [kcal/mol]      -0.00089565 [kJ/mol]

    Induction                      -2.67235987 [mEh]      -1.67693114 [kcal/mol]      -7.01627987 [kJ/mol]
      Ind20,r                      -2.63945236 [mEh]      -1.65628136 [kcal/mol]      -6.92988122 [kJ/mol]
      Exch-Ind20,r                  0.00043769 [mEh]       0.00027465 [kcal/mol]       0.00114915 [kJ/mol]
      delta HF,r (2)               -0.03334520 [mEh]      -0.02092443 [kcal/mol]      -0.08754780 [kJ/mol]

    Dispersion                     -1.48101672 [mEh]      -0.92935202 [kcal/mol]      -3.88840887 [kJ/mol]
      Disp20                       -1.48115335 [mEh]      -0.92943776 [kcal/mol]      -3.88876757 [kJ/mol]
      Exch-Disp20                   0.00013662 [mEh]       0.00008573 [kcal/mol]       0.00035870 [kJ/mol]
      Disp20 (SS)                  -0.74057667 [mEh]      -0.46471888 [kcal/mol]      -1.94438379 [kJ/mol]
      Disp20 (OS)                  -0.74057667 [mEh]      -0.46471888 [kcal/mol]      -1.94438379 [kJ/mol]
      Exch-Disp20 (SS)              0.00010414 [mEh]       0.00006535 [kcal/mol]       0.00027342 [kJ/mol]
      Exch-Disp20 (OS)              0.00003248 [mEh]       0.00002038 [kcal/mol]       0.00008528 [kJ/mol]

  Total HF                        -10.69883487 [mEh]      -6.71362024 [kcal/mol]     -28.08978708 [kJ/mol]
  Total SAPT0                     -12.17985159 [mEh]      -7.64297226 [kcal/mol]     -31.97819595 [kJ/mol]

  Special recipe for scaled SAPT0 (see Manual):
    Electrostatics sSAPT0          -8.02613386 [mEh]      -5.03647504 [kcal/mol]     -21.07261156 [kJ/mol]
    Exchange sSAPT0                -0.00034114 [mEh]      -0.00021407 [kcal/mol]      -0.00089565 [kJ/mol]
    Induction sSAPT0               -2.67235987 [mEh]      -1.67693114 [kcal/mol]      -7.01627987 [kJ/mol]
    Dispersion sSAPT0              -1.48101672 [mEh]      -0.92935202 [kcal/mol]      -3.88840887 [kJ/mol]
  Total sSAPT0                    -12.17985159 [mEh]      -7.64297226 [kcal/mol]     -31.97819595 [kJ/mol]
  --------------------------------------------------------------------------------------------------------

*** Psi4 exiting successfully. Buy a developer a beer!
