                               Psi4 1.9 release

  ==> Input File <==

--------------------------------------------------------------------------
memory 32 GB # how much memory is available ! Depends on the nodes/cores !

molecule dimer {
# monomer A
-1 1    # Charge and multiplicity
B -0.000046  0.000337 4.399994
F -1.153597  0.000048 5.215641
F  1.153661 -0.000581 5.215641
F -0.000019 -1.153637 3.584360
F -0.000019  1.153978 3.584360
--
# monomer B
0 1     # Charge and multiplicity
C   1.22531237526482      0.70753866091955      0.00613762728373
C   1.22532433589282     -0.70753852257020     -0.00619318228664
C   -0.00000567409046      1.41496628609039     -0.00672680580738
C   2.45644923379077      1.41832825917820      0.00902448468363
C   0.00001130712078     -1.41497612663474      0.00347275151708
C   -1.22530046906674      0.70754574598412      0.00838914760619
C   2.45643823516184     -1.41832293188077     -0.00843833914343
C   -0.00000085313587      2.83680140328112     -0.00913035594137
C   3.68182717731192      0.70931832800114     -0.00808954934571
C   2.45512052870677      2.83422403348893     -0.00819210630633
C   3.68182158506039     -0.70933346742900      0.00798293467272
C   -1.22531311884624     -0.70752714354401     -0.00512042085974
C   1.22670006104402      3.54346985599427      0.00816696660346
C   0.00000526469929     -2.83678176723568      0.00832091913869
C   -2.45643555300670      1.41831729028492      0.00842454345199
C   2.45512389762097     -2.83422965658853      0.00783102630520
C   -1.22671388474763      3.54346943575023      0.00827029982280
C   4.91451777504333      1.42717324448953     -0.00160886631602
C   3.69315067131765      3.54279566454522     -0.00155906667985
C   -2.45643712022637     -1.41831290883911     -0.00846337726810
C   1.22670532178455     -3.54347386990643     -0.00780316414624
C   -2.45512491866593      2.83421703463423     -0.00818572995999
C   4.91452486062398     -1.42718653794377      0.00136387641845
C   1.22142509354026      4.97013443726031      0.00150231067809
C   4.89300870916237      2.82518837202648     -0.00039219795739
C   -1.22669652864725     -3.54347062507680     -0.00753595973677
C   -3.68181849668397      0.70932533873199     -0.00807686886569
C   3.69314758099218     -3.54280096939050      0.00148176697923
C   -1.22143177215231      4.97012866986289      0.00168580605083
C   6.13477145276790      0.68054831910577     -0.00083909176631
C   3.65678936045204      4.97295361556775     -0.00065042889723
C   -2.45512642789169     -2.83421472106065      0.00758666850712
C   -3.68181869921921     -0.70932533146830      0.00810055625144
C   4.89301309775526     -2.82519973363176      0.00021895393805
C   -0.00000059327114      5.65044773803267      0.00045449734393
C   6.13477559217374     -0.68055448207492      0.00042622874941
C   2.47813196269732      5.65357712333155      0.00063835075260
C   1.22142288457925     -4.97012668293268     -0.00129718634452
C   -3.69316190412301      3.54279732619245     -0.00139355922051
C   -1.22142804110313     -4.97011793159564     -0.00140994817719
C   -4.91452132810043      1.42717581899491     -0.00153192130862
C   3.65678749952045     -4.97295485423912      0.00080007163680
C   -2.47813805026426      5.65357479452875      0.00092287576113
C   -3.69314125872231     -3.54278984697859      0.00136564082345
C   -4.91451200321153     -1.42718062802730      0.00139857359209
C   -0.00000552908399     -5.65043791501335      0.00005899322272
C   -4.89302000425900      2.82518897091939     -0.00040227981744
C   2.47812647313991     -5.65357317188818     -0.00029052915548
C   -3.65679823041642      4.97295655404175     -0.00047374852278
C   -4.89299899901461     -2.82519139505969      0.00006491824035
C   -2.47812801824129     -5.65356579800621     -0.00056571680280
C   -6.13477002348955      0.68054913825639     -0.00086464346868
C   -3.65678835334731     -4.97294365097028      0.00058578382008
C   -6.13476456307132     -0.68055354348201      0.00040575295444
H   5.83528897565761      3.36927626695423      0.00396712770529
H   7.07385965258860      1.22821762089947     -0.00037744837300
H   4.60066374401555      5.51238117445323     -0.00014522814529
H   5.83528386714679     -3.36930568472863     -0.00423551337640
H   -0.00001167146422      6.73853104613662     -0.00389474766392
H   7.07386165167227     -1.22822657074368     -0.00008250934481
H   2.47331421164041      6.74068466339473      0.00017162982210
H   4.60066897122302     -5.51237575717576      0.00039007446835
H   -2.47331820069565      6.74068209160650      0.00047297644710
H   -0.00000978838621     -6.73852780445195      0.00458867820736
H   -5.83530143450167      3.36927132229595      0.00410314985360
H   2.47330840367253     -6.74068500242887      0.00027980126949
H   -4.60067436136587      5.51237839860371      0.00002010017831
H   -5.83527902699321     -3.36928859177951     -0.00451481925734
H   -2.47329986759855     -6.74067870613986     -0.00016951527498
H   -7.07385728692578      1.22822084484047     -0.00046143985387
H   -4.60067330624313     -5.51236229778631      0.00021776644566
H   -7.07385645456741     -1.22822025997701     -0.00017736581114

    units angstrom      # Angstroms are the default
    no_reorient         # Geometry fixed, default
    symmetry c1         # C1 symmetry, default
}

set {
    scf_type DF         # Density fitting, faster than exact integrals
    freeze_core True    # Freeze core electrons
    basis jun-cc-pVDZ   # Jun-cc-pVDZ basis set, recommended for sSAPT0 in https://doi.org/10.1063/1.4867135
}

energy('ssapt0')        # Compute sSAPT0 energy, includes also SAPT0
--------------------------------------------------------------------------

  //              Dimer HF             //
    Molecular point group: c1
  Charge       = -1
  Multiplicity = 1
  Basis Set: JUN-CC-PVDZ
    Blend: JUN-CC-PVDZ
  Basis Set: (JUN-CC-PVDZ AUX)
    Blend: JUN-CC-PVDZ-JKFIT
  @DF-RHF Final Energy: -2478.66235467992874
    Total Energy =                      -2478.6623546799291944
 Dipole X            :         -0.0002348           -0.0000160           -0.0002508
 Dipole Y            :          0.0012216           -0.0001716            0.0010500
 Dipole Z            :         20.8378471          -26.9732930           -6.1354459
 Magnitude           :                                                    6.1354460
  //            Monomer A HF           //
    Molecular point group: c1
  Multiplicity = 1
  Basis Set: JUN-CC-PVDZ
    Blend: JUN-CC-PVDZ
  Basis Set: (JUN-CC-PVDZ AUX)
    Blend: JUN-CC-PVDZ-JKFIT
  @DF-RHF Final Energy:  -422.77248515473207
    Total Energy =                       -422.7724851547320668
  //            Monomer B HF           //
    Molecular point group: c1

    Geometry (in Angstrom), charge = 0, multiplicity = 1:

       Center              X                  Y                   Z               Mass
    ------------   -----------------  -----------------  -----------------  -----------------
      Gh(B)          -0.000046449334     0.000336519434     3.891709727517    11.009305360000
      Gh(F)          -1.153597449334     0.000047519434     4.707356727517    18.998403162730
      Gh(F)           1.153660550666    -0.000581480566     4.707356727517    18.998403162730
      Gh(F)          -0.000019449334    -1.153637480566     3.076075727517    18.998403162730
      Gh(F)          -0.000019449334     1.153977519434     3.076075727517    18.998403162730
         C            1.225311925931     0.707538180353    -0.502146645200    12.000000000000
         C            1.225323886559    -0.707539003137    -0.514477454770    12.000000000000
         C           -0.000006123424     1.414965805524    -0.515011078291    12.000000000000
         C            2.456448784457     1.418327778612    -0.499259787800    12.000000000000
         C            0.000010857787    -1.414976607201    -0.504811520966    12.000000000000
         C           -1.225300918401     0.707545265418    -0.499895124877    12.000000000000
         C            2.456437785828    -1.418323412447    -0.516722611627    12.000000000000
         C           -0.000001302470     2.836800922715    -0.517414628425    12.000000000000
         C            3.681826727978     0.709317847435    -0.516373821829    12.000000000000
         C            2.455120079373     2.834223552923    -0.516476378790    12.000000000000
         C            3.681821135726    -0.709333947995    -0.500301337811    12.000000000000
         C           -1.225313568180    -0.707527624110    -0.513404693343    12.000000000000
         C            1.226699611710     3.543469375428    -0.500117305880    12.000000000000
         C            0.000004815365    -2.836782247802    -0.499963353345    12.000000000000
         C           -2.456436002341     1.418316809719    -0.499859729031    12.000000000000
         C            2.455123448287    -2.834230137155    -0.500453246178    12.000000000000
         C           -1.226714334082     3.543468955184    -0.500013972661    12.000000000000
         C            4.914517325709     1.427172763923    -0.509893138800    12.000000000000
         C            3.693150221984     3.542795183979    -0.509843339163    12.000000000000
         C           -2.456437569560    -1.418313389406    -0.516747649752    12.000000000000
         C            1.226704872451    -3.543474350473    -0.516087436630    12.000000000000
         C           -2.455125368000     2.834216554068    -0.516470002443    12.000000000000
         C            4.914524411290    -1.427187018510    -0.506920396065    12.000000000000
         C            1.221424644206     4.970133956694    -0.506781961805    12.000000000000
         C            4.893008259828     2.825187891460    -0.508676470441    12.000000000000
         C           -1.226696977981    -3.543471105643    -0.515820232220    12.000000000000
         C           -3.681818946018     0.709324858166    -0.516361141349    12.000000000000
         C            3.693147131658    -3.542801449957    -0.506802505504    12.000000000000
         C           -1.221432221486     4.970128189296    -0.506598466433    12.000000000000
         C            6.134771003434     0.680547838539    -0.509123364250    12.000000000000
         C            3.656788911118     4.972953135001    -0.508934701381    12.000000000000
         C           -2.455126877226    -2.834215201627    -0.500697603976    12.000000000000
         C           -3.681819148553    -0.709325812035    -0.500183716232    12.000000000000
         C            4.893012648421    -2.825200214198    -0.508065318545    12.000000000000
         C           -0.000001042605     5.650447257466    -0.507829775140    12.000000000000
         C            6.134775142840    -0.680554962641    -0.507858043734    12.000000000000
         C            2.478131513363     5.653576642765    -0.507645921731    12.000000000000
         C            1.221422435245    -4.970127163499    -0.509581458828    12.000000000000
         C           -3.693162353457     3.542796845626    -0.509677831704    12.000000000000
         C           -1.221428490437    -4.970118412162    -0.509694220661    12.000000000000
         C           -4.914521777434     1.427175338429    -0.509816193792    12.000000000000
         C            3.656787050187    -4.972955334806    -0.507484200847    12.000000000000
         C           -2.478138499598     5.653574313962    -0.507361396722    12.000000000000
         C           -3.693141708056    -3.542790327545    -0.506918631660    12.000000000000
         C           -4.914512452545    -1.427181108594    -0.506885698891    12.000000000000
         C           -0.000005978418    -5.650438395580    -0.508225279261    12.000000000000
         C           -4.893020453593     2.825188490353    -0.508686552301    12.000000000000
         C            2.478126023806    -5.653573652455    -0.508574801639    12.000000000000
         C           -3.656798679750     4.972956073475    -0.508758021006    12.000000000000
         C           -4.892999448349    -2.825191875626    -0.508219354243    12.000000000000
         C           -2.478128467575    -5.653566278573    -0.508849989286    12.000000000000
         C           -6.134770472823     0.680548657690    -0.509148915952    12.000000000000
         C           -3.656788802681    -4.972944131537    -0.507698488663    12.000000000000
         C           -6.134765012405    -0.680554024048    -0.507878519529    12.000000000000
         H            5.835288526324     3.369275786388    -0.504317144778     1.007825032230
         H            7.073859203255     1.228217140333    -0.508661720856     1.007825032230
         H            4.600663294682     5.512380693887    -0.508429500629     1.007825032230
         H            5.835283417813    -3.369306165295    -0.512519785860     1.007825032230
         H           -0.000012120798     6.738530565570    -0.512179020147     1.007825032230
         H            7.073861202338    -1.228227051310    -0.508366781828     1.007825032230
         H            2.473313762307     6.740684182828    -0.508112642661     1.007825032230
         H            4.600668521889    -5.512376237742    -0.507894198015     1.007825032230
         H           -2.473318650030     6.740681611040    -0.507811296036     1.007825032230
         H           -0.000010237720    -6.738528285018    -0.503695594276     1.007825032230
         H           -5.835301883836     3.369270841730    -0.504181122630     1.007825032230
         H            2.473307954339    -6.740685482995    -0.508004471214     1.007825032230
         H           -4.600674810700     5.512377918037    -0.508264172305     1.007825032230
         H           -5.835279476327    -3.369289072346    -0.512799091741     1.007825032230
         H           -2.473300316932    -6.740679186706    -0.508453787758     1.007825032230
         H           -7.073857736260     1.228220364274    -0.508745712337     1.007825032230
         H           -4.600673755577    -5.512362778353    -0.508066506038     1.007825032230
         H           -7.073856903901    -1.228220740543    -0.508461638295     1.007825032230

  Charge       = 0
  Multiplicity = 1
  Basis Set: JUN-CC-PVDZ
    Blend: JUN-CC-PVDZ
  Basis Set: (JUN-CC-PVDZ AUX)
    Blend: JUN-CC-PVDZ-JKFIT

    Orbital Energies [Eh]
    ---------------------

    Doubly Occupied:

       1A    -11.260675     2A    -11.260258     3A    -11.260192
       4A    -11.259517     5A    -11.259446     6A    -11.259299
       7A    -11.259064     8A    -11.259015     9A    -11.258959
      10A    -11.258673    11A    -11.258646    12A    -11.258555
      13A    -11.258496    14A    -11.258493    15A    -11.258492
      16A    -11.258455    17A    -11.258455    18A    -11.258437
      19A    -11.258433    20A    -11.258430    21A    -11.258412
      22A    -11.258366    23A    -11.258332    24A    -11.258097
      25A    -11.257350    26A    -11.257295    27A    -11.257284
      28A    -11.257167    29A    -11.257148    30A    -11.257074
      31A    -11.256445    32A    -11.256380    33A    -11.256372
      34A    -11.256279    35A    -11.256255    36A    -11.256219
      37A    -11.252308    38A    -11.252307    39A    -11.252301
      40A    -11.252300    41A    -11.252298    42A    -11.252296
      43A    -11.251419    44A    -11.251417    45A    -11.251413
      46A    -11.251410    47A    -11.251402    48A    -11.251396
      49A    -11.250869    50A    -11.250868    51A    -11.250862
      52A    -11.250861    53A    -11.250859    54A    -11.250857
      55A     -1.244078    56A     -1.219851    57A     -1.219829
      58A     -1.189570    59A     -1.189562    60A     -1.180956
      61A     -1.157588    62A     -1.149007    63A     -1.135511
      64A     -1.135504    65A     -1.113223    66A     -1.113215
      67A     -1.082453    68A     -1.082451    69A     -1.078619
      70A     -1.066009    71A     -1.066008    72A     -1.039427
      73A     -1.024298    74A     -1.021776    75A     -1.021743
      76A     -1.017759    77A     -1.012826    78A     -0.987044
      79A     -0.987002    80A     -0.961908    81A     -0.961858
      82A     -0.894319    83A     -0.894292    84A     -0.887946
      85A     -0.886207    86A     -0.886134    87A     -0.881414
      88A     -0.881377    89A     -0.861928    90A     -0.837442
      91A     -0.818236    92A     -0.816632    93A     -0.812158
      94A     -0.812147    95A     -0.794715    96A     -0.794709
      97A     -0.746642    98A     -0.744880    99A     -0.733437
     100A     -0.733415   101A     -0.732209   102A     -0.732188
     103A     -0.716516   104A     -0.698996   105A     -0.698994
     106A     -0.693602   107A     -0.693598   108A     -0.661259
     109A     -0.653118   110A     -0.651170   111A     -0.650280
     112A     -0.650276   113A     -0.639392   114A     -0.639383
     115A     -0.629734   116A     -0.627550   117A     -0.627521
     118A     -0.606492   119A     -0.605837   120A     -0.601683
     121A     -0.599751   122A     -0.599738   123A     -0.593663
     124A     -0.591228   125A     -0.591219   126A     -0.585308
     127A     -0.576460   128A     -0.576361   129A     -0.567352
     130A     -0.567340   131A     -0.565976   132A     -0.565951
     133A     -0.558737   134A     -0.554869   135A     -0.554864
     136A     -0.538623   137A     -0.538618   138A     -0.538215
     139A     -0.538210   140A     -0.529744   141A     -0.528194
     142A     -0.522893   143A     -0.522893   144A     -0.500532
     145A     -0.495627   146A     -0.493261   147A     -0.487859
     148A     -0.485095   149A     -0.481781   150A     -0.481771
     151A     -0.470392   152A     -0.470342   153A     -0.451037
     154A     -0.450952   155A     -0.439095   156A     -0.439083
     157A     -0.404772   158A     -0.404744   159A     -0.403410
     160A     -0.375441   161A     -0.375438   162A     -0.349151
     163A     -0.337636   164A     -0.336611   165A     -0.336525
     166A     -0.311105   167A     -0.298130   168A     -0.284368
     169A     -0.284328   170A     -0.224949   171A     -0.224869

  @DF-RHF Final Energy: -2055.89344411579259

   => Energetics <=

    Nuclear Repulsion Energy =           6452.5568002797781446
    One-Electron Energy =              -15636.4737908986899129
    Two-Electron Energy =                7128.0235465031200874
    Total Energy =                      -2055.8934441157925903
 Dipole X            :          0.0000661            0.0000112            0.0000773
 Dipole Y            :          0.0003062           -0.0000531            0.0002531
 Dipole Z            :        328.4969388         -328.4986225           -0.0016837
 Magnitude           :                                                    0.0017044

    SAPT Results
  --------------------------------------------------------------------------------------------------------
    Electrostatics                 11.94405421 [mEh]       7.49500717 [kcal/mol]      31.35911000 [kJ/mol]
      Elst10,r                     11.94405421 [mEh]       7.49500717 [kcal/mol]      31.35911000 [kJ/mol]

    Exchange                        1.17282212 [mEh]       0.73595699 [kcal/mol]       3.07924405 [kJ/mol]
      Exch10                        1.17282212 [mEh]       0.73595699 [kcal/mol]       3.07924405 [kJ/mol]
      Exch10(S^2)                   1.17277855 [mEh]       0.73592965 [kcal/mol]       3.07912966 [kJ/mol]

    Induction                      -9.54228573 [mEh]      -5.98787470 [kcal/mol]     -25.05326774 [kJ/mol]
      Ind20,r                      -9.80537504 [mEh]      -6.15296573 [kcal/mol]     -25.74400863 [kJ/mol]
      Exch-Ind20,r                  0.25873529 [mEh]       0.16235885 [kcal/mol]       0.67930942 [kJ/mol]
      delta HF,r (2)                0.00435402 [mEh]       0.00273219 [kcal/mol]       0.01143148 [kJ/mol]

    Dispersion                     -4.34876812 [mEh]      -2.72889320 [kcal/mol]     -11.41768913 [kJ/mol]
      Disp20                       -4.56821650 [mEh]      -2.86659913 [kcal/mol]     -11.99385078 [kJ/mol]
      Exch-Disp20                   0.21944838 [mEh]       0.13770594 [kcal/mol]       0.57616164 [kJ/mol]
      Disp20 (SS)                  -2.28410825 [mEh]      -1.43329957 [kcal/mol]      -5.99692539 [kJ/mol]
      Disp20 (OS)                  -2.28410825 [mEh]      -1.43329957 [kcal/mol]      -5.99692539 [kJ/mol]
      Exch-Disp20 (SS)              0.13750497 [mEh]       0.08628567 [kcal/mol]       0.36101924 [kJ/mol]
      Exch-Disp20 (OS)              0.08194341 [mEh]       0.05142027 [kcal/mol]       0.21514240 [kJ/mol]

  Total HF                          3.57459060 [mEh]       2.24308946 [kcal/mol]       9.38508632 [kJ/mol]
  Total SAPT0                      -0.77417753 [mEh]      -0.48580373 [kcal/mol]      -2.03260282 [kJ/mol]

  Special recipe for scaled SAPT0 (see Manual):
    Electrostatics sSAPT0          11.94405421 [mEh]       7.49500717 [kcal/mol]      31.35911000 [kJ/mol]
    Exchange sSAPT0                 1.17282212 [mEh]       0.73595699 [kcal/mol]       3.07924405 [kJ/mol]
    Induction sSAPT0               -9.54225689 [mEh]      -5.98785660 [kcal/mol]     -25.05319203 [kJ/mol]
    Dispersion sSAPT0              -4.34874366 [mEh]      -2.72887785 [kcal/mol]     -11.41762492 [kJ/mol]
  Total sSAPT0                     -0.77412423 [mEh]      -0.48577029 [kcal/mol]      -2.03246289 [kJ/mol]
  --------------------------------------------------------------------------------------------------------

*** Psi4 exiting successfully. Buy a developer a beer!
