                               Psi4 1.9 release

  ==> Input File <==

--------------------------------------------------------------------------
memory 48 GB # how much memory is available ! Depends on the nodes/cores !

molecule dimer {
# monomer A
-1 1    # Charge and multiplicity
B -1.977592e-04  2.742729e-04 -3.299966
F  1.123153e-16  1.430594e-17 -1.887181
F  1.147860e+00  6.757812e-01 -3.771107
F  1.191806e-02 -1.332011e+00 -3.770905
F -1.159666e+00  6.560735e-01 -3.770826
--
# monomer B
0 1     # Charge and multiplicity
C   1.22531237526482      0.70753866091955      0.00613762728373
C   1.22532433589282     -0.70753852257020     -0.00619318228664
C   -0.00000567409046      1.41496628609039     -0.00672680580738
C   2.45644923379077      1.41832825917820      0.00902448468363
C   0.00001130712078     -1.41497612663474      0.00347275151708
C   -1.22530046906674      0.70754574598412      0.00838914760619
C   2.45643823516184     -1.41832293188077     -0.00843833914343
C   -0.00000085313587      2.83680140328112     -0.00913035594137
C   3.68182717731192      0.70931832800114     -0.00808954934571
C   2.45512052870677      2.83422403348893     -0.00819210630633
C   3.68182158506039     -0.70933346742900      0.00798293467272
C   -1.22531311884624     -0.70752714354401     -0.00512042085974
C   1.22670006104402      3.54346985599427      0.00816696660346
C   0.00000526469929     -2.83678176723568      0.00832091913869
C   -2.45643555300670      1.41831729028492      0.00842454345199
C   2.45512389762097     -2.83422965658853      0.00783102630520
C   -1.22671388474763      3.54346943575023      0.00827029982280
C   4.91451777504333      1.42717324448953     -0.00160886631602
C   3.69315067131765      3.54279566454522     -0.00155906667985
C   -2.45643712022637     -1.41831290883911     -0.00846337726810
C   1.22670532178455     -3.54347386990643     -0.00780316414624
C   -2.45512491866593      2.83421703463423     -0.00818572995999
C   4.91452486062398     -1.42718653794377      0.00136387641845
C   1.22142509354026      4.97013443726031      0.00150231067809
C   4.89300870916237      2.82518837202648     -0.00039219795739
C   -1.22669652864725     -3.54347062507680     -0.00753595973677
C   -3.68181849668397      0.70932533873199     -0.00807686886569
C   3.69314758099218     -3.54280096939050      0.00148176697923
C   -1.22143177215231      4.97012866986289      0.00168580605083
C   6.13477145276790      0.68054831910577     -0.00083909176631
C   3.65678936045204      4.97295361556775     -0.00065042889723
C   -2.45512642789169     -2.83421472106065      0.00758666850712
C   -3.68181869921921     -0.70932533146830      0.00810055625144
C   4.89301309775526     -2.82519973363176      0.00021895393805
C   -0.00000059327114      5.65044773803267      0.00045449734393
C   6.13477559217374     -0.68055448207492      0.00042622874941
C   2.47813196269732      5.65357712333155      0.00063835075260
C   1.22142288457925     -4.97012668293268     -0.00129718634452
C   -3.69316190412301      3.54279732619245     -0.00139355922051
C   -1.22142804110313     -4.97011793159564     -0.00140994817719
C   -4.91452132810043      1.42717581899491     -0.00153192130862
C   3.65678749952045     -4.97295485423912      0.00080007163680
C   -2.47813805026426      5.65357479452875      0.00092287576113
C   -3.69314125872231     -3.54278984697859      0.00136564082345
C   -4.91451200321153     -1.42718062802730      0.00139857359209
C   -0.00000552908399     -5.65043791501335      0.00005899322272
C   -4.89302000425900      2.82518897091939     -0.00040227981744
C   2.47812647313991     -5.65357317188818     -0.00029052915548
C   -3.65679823041642      4.97295655404175     -0.00047374852278
C   -4.89299899901461     -2.82519139505969      0.00006491824035
C   -2.47812801824129     -5.65356579800621     -0.00056571680280
C   -6.13477002348955      0.68054913825639     -0.00086464346868
C   -3.65678835334731     -4.97294365097028      0.00058578382008
C   -6.13476456307132     -0.68055354348201      0.00040575295444
H   5.83528897565761      3.36927626695423      0.00396712770529
H   7.07385965258860      1.22821762089947     -0.00037744837300
H   4.60066374401555      5.51238117445323     -0.00014522814529
H   5.83528386714679     -3.36930568472863     -0.00423551337640
H   -0.00001167146422      6.73853104613662     -0.00389474766392
H   7.07386165167227     -1.22822657074368     -0.00008250934481
H   2.47331421164041      6.74068466339473      0.00017162982210
H   4.60066897122302     -5.51237575717576      0.00039007446835
H   -2.47331820069565      6.74068209160650      0.00047297644710
H   -0.00000978838621     -6.73852780445195      0.00458867820736
H   -5.83530143450167      3.36927132229595      0.00410314985360
H   2.47330840367253     -6.74068500242887      0.00027980126949
H   -4.60067436136587      5.51237839860371      0.00002010017831
H   -5.83527902699321     -3.36928859177951     -0.00451481925734
H   -2.47329986759855     -6.74067870613986     -0.00016951527498
H   -7.07385728692578      1.22822084484047     -0.00046143985387
H   -4.60067330624313     -5.51236229778631      0.00021776644566
H   -7.07385645456741     -1.22822025997701     -0.00017736581114

    units angstrom      # Angstroms are the default
    no_reorient         # Geometry fixed, default
    symmetry c1         # C1 symmetry, default
}

set {
    scf_type DF         # Density fitting, faster than exact integrals
    freeze_core True    # Freeze core electrons
    basis jun-cc-pVDZ   # Jun-cc-pVDZ basis set, recommended for sSAPT0 in https://doi.org/10.1063/1.4867135
}

energy('ssapt0')        # Compute sSAPT0 energy, includes also SAPT0
--------------------------------------------------------------------------

  //              Dimer HF             //
    Molecular point group: c1
  Charge       = -1
  Multiplicity = 1
  Basis Set: JUN-CC-PVDZ
    Blend: JUN-CC-PVDZ
  Basis Set: (JUN-CC-PVDZ AUX)
    Blend: JUN-CC-PVDZ-JKFIT
  @DF-RHF Final Energy: -2478.61385359640008
    Total Energy =                      -2478.6138535964000766
 Dipole X            :         -0.0004467            0.0000481           -0.0003986
 Dipole Y            :          0.0008307           -0.0001453            0.0006854
 Dipole Z            :        -16.2683294           20.2302562            3.9619268
 Magnitude           :                                                    3.9619268
  //            Monomer A HF           //
    Molecular point group: c1
  Multiplicity = 1
  Basis Set: JUN-CC-PVDZ
    Blend: JUN-CC-PVDZ
  Basis Set: (JUN-CC-PVDZ AUX)
    Blend: JUN-CC-PVDZ-JKFIT
  @DF-RHF Final Energy:  -422.77408300765876
    Total Energy =                       -422.7740830076587599
  //            Monomer B HF           //
    Molecular point group: c1

    Geometry (in Angstrom), charge = 0, multiplicity = 1:

       Center              X                  Y                   Z               Mass
    ------------   -----------------  -----------------  -----------------  -----------------
      Gh(B)          -0.000198161052     0.000273808717    -2.918748884811    11.009305360000
      Gh(F)          -0.000000401852    -0.000000464183    -1.505963884811    18.998403162730
      Gh(F)           1.147859598148     0.675780735817    -3.389889884811    18.998403162730
      Gh(F)           0.011917658148    -1.332011464183    -3.389687884811    18.998403162730
      Gh(F)          -1.159666401852     0.656073035817    -3.389608884811    18.998403162730
         C            1.225311973413     0.707538196736     0.387354742472    12.000000000000
         C            1.225323934041    -0.707538986754     0.375023932902    12.000000000000
         C           -0.000006075942     1.414965821907     0.374490309381    12.000000000000
         C            2.456448831939     1.418327794995     0.390241599872    12.000000000000
         C            0.000010905269    -1.414976590818     0.384689866706    12.000000000000
         C           -1.225300870919     0.707545281801     0.389606262795    12.000000000000
         C            2.456437833310    -1.418323396064     0.372778776045    12.000000000000
         C           -0.000001254988     2.836800939098     0.372086759247    12.000000000000
         C            3.681826775460     0.709317863818     0.373127565843    12.000000000000
         C            2.455120126855     2.834223569306     0.373025008882    12.000000000000
         C            3.681821183209    -0.709333931612     0.389200049861    12.000000000000
         C           -1.225313520698    -0.707527607727     0.376096694329    12.000000000000
         C            1.226699659192     3.543469391811     0.389384081792    12.000000000000
         C            0.000004862847    -2.836782231419     0.389538034327    12.000000000000
         C           -2.456435954859     1.418316826102     0.389641658641    12.000000000000
         C            2.455123495769    -2.834230120772     0.389048141494    12.000000000000
         C           -1.226714286599     3.543468971567     0.389487415011    12.000000000000
         C            4.914517373191     1.427172780306     0.379608248873    12.000000000000
         C            3.693150269466     3.542795200362     0.379658048509    12.000000000000
         C           -2.456437522078    -1.418313373022     0.372753737921    12.000000000000
         C            1.226704919933    -3.543474334090     0.373413951042    12.000000000000
         C           -2.455125320518     2.834216570451     0.373031385229    12.000000000000
         C            4.914524458772    -1.427187002127     0.382580991607    12.000000000000
         C            1.221424691688     4.970133973077     0.382719425867    12.000000000000
         C            4.893008307311     2.825187907843     0.380824917231    12.000000000000
         C           -1.226696930499    -3.543471089260     0.373681155452    12.000000000000
         C           -3.681818898536     0.709324874549     0.373140246323    12.000000000000
         C            3.693147179140    -3.542801433574     0.382698882168    12.000000000000
         C           -1.221432174004     4.970128205680     0.382902921239    12.000000000000
         C            6.134771050916     0.680547854922     0.380378023422    12.000000000000
         C            3.656788958600     4.972953151384     0.380566686291    12.000000000000
         C           -2.455126829744    -2.834215185244     0.388803783696    12.000000000000
         C           -3.681819101071    -0.709325795652     0.389317671440    12.000000000000
         C            4.893012695903    -2.825200197815     0.381436069127    12.000000000000
         C           -0.000000995123     5.650447273849     0.381671612533    12.000000000000
         C            6.134775190322    -0.680554946258     0.381643343938    12.000000000000
         C            2.478131560845     5.653576659148     0.381855465941    12.000000000000
         C            1.221422482727    -4.970127147116     0.379919928844    12.000000000000
         C           -3.693162305975     3.542796862009     0.379823555968    12.000000000000
         C           -1.221428442955    -4.970118395779     0.379807167011    12.000000000000
         C           -4.914521729952     1.427175354812     0.379685193880    12.000000000000
         C            3.656787097669    -4.972955318422     0.382017186825    12.000000000000
         C           -2.478138452116     5.653574330345     0.382139990950    12.000000000000
         C           -3.693141660574    -3.542790311162     0.382582756012    12.000000000000
         C           -4.914512405063    -1.427181092211     0.382615688781    12.000000000000
         C           -0.000005930936    -5.650438379197     0.381276108411    12.000000000000
         C           -4.893020406111     2.825188506736     0.380814835371    12.000000000000
         C            2.478126071288    -5.653573636072     0.380926586033    12.000000000000
         C           -3.656798632268     4.972956089858     0.380743366666    12.000000000000
         C           -4.892999400866    -2.825191859243     0.381282033429    12.000000000000
         C           -2.478128420093    -5.653566262190     0.380651398386    12.000000000000
         C           -6.134770425341     0.680548674073     0.380352471720    12.000000000000
         C           -3.656788755199    -4.972944115154     0.381802899009    12.000000000000
         C           -6.134764964923    -0.680554007665     0.381622868143    12.000000000000
         H            5.835288573806     3.369275802771     0.385184242894     1.007825032230
         H            7.073859250737     1.228217156716     0.380839666816     1.007825032230
         H            4.600663342164     5.512380710270     0.381071887043     1.007825032230
         H            5.835283465295    -3.369306148912     0.376981601812     1.007825032230
         H           -0.000012073316     6.738530581953     0.377322367525     1.007825032230
         H            7.073861249820    -1.228227034927     0.381134605844     1.007825032230
         H            2.473313809789     6.740684199211     0.381388745011     1.007825032230
         H            4.600668569371    -5.512376221359     0.381607189657     1.007825032230
         H           -2.473318602548     6.740681627423     0.381690091636     1.007825032230
         H           -0.000010190238    -6.738528268635     0.385805793396     1.007825032230
         H           -5.835301836354     3.369270858113     0.385320265042     1.007825032230
         H            2.473308001821    -6.740685466612     0.381496916458     1.007825032230
         H           -4.600674763218     5.512377934420     0.381237215367     1.007825032230
         H           -5.835279428845    -3.369289055963     0.376702295931     1.007825032230
         H           -2.473300269450    -6.740679170323     0.381047599914     1.007825032230
         H           -7.073857688778     1.228220380657     0.380755675335     1.007825032230
         H           -4.600673708095    -5.512362761970     0.381434881634     1.007825032230
         H           -7.073856856419    -1.228220724160     0.381039749377     1.007825032230

  Charge       = 0
  Multiplicity = 1
  Basis Set: JUN-CC-PVDZ
    Blend: JUN-CC-PVDZ
  Basis Set: (JUN-CC-PVDZ AUX)
    Blend: JUN-CC-PVDZ-JKFIT

    Orbital Energies [Eh]
    ---------------------

    Doubly Occupied:

       1A    -11.260792     2A    -11.260329     3A    -11.260326
       4A    -11.259513     5A    -11.259511     6A    -11.259285
       7A    -11.259013     8A    -11.258948     9A    -11.258946
      10A    -11.258663    11A    -11.258659    12A    -11.258508
      13A    -11.258469    14A    -11.258459    15A    -11.258452
      16A    -11.258416    17A    -11.258410    18A    -11.258392
      19A    -11.258389    20A    -11.258385    21A    -11.258379
      22A    -11.258338    23A    -11.258333    24A    -11.258158
      25A    -11.257286    26A    -11.257226    27A    -11.257225
      28A    -11.257093    29A    -11.257093    30A    -11.257010
      31A    -11.256376    32A    -11.256307    33A    -11.256307
      34A    -11.256200    35A    -11.256199    36A    -11.256153
      37A    -11.252276    38A    -11.252276    39A    -11.252274
      40A    -11.252273    41A    -11.252270    42A    -11.252269
      43A    -11.251378    44A    -11.251376    45A    -11.251376
      46A    -11.251362    47A    -11.251361    48A    -11.251358
      49A    -11.250838    50A    -11.250837    51A    -11.250835
      52A    -11.250833    53A    -11.250831    54A    -11.250830
      55A     -1.244011    56A     -1.219771    57A     -1.219770
      58A     -1.189512    59A     -1.189505    60A     -1.180918
      61A     -1.157542    62A     -1.148953    63A     -1.135446
      64A     -1.135439    65A     -1.113176    66A     -1.113171
      67A     -1.082385    68A     -1.082377    69A     -1.078580
      70A     -1.065969    71A     -1.065965    72A     -1.039368
      73A     -1.024216    74A     -1.021725    75A     -1.021681
      76A     -1.017715    77A     -1.012787    78A     -0.986979
      79A     -0.986933    80A     -0.961863    81A     -0.961813
      82A     -0.894267    83A     -0.894241    84A     -0.887901
      85A     -0.886130    86A     -0.886072    87A     -0.881362
      88A     -0.881314    89A     -0.861872    90A     -0.837407
      91A     -0.818182    92A     -0.816557    93A     -0.812103
      94A     -0.812094    95A     -0.794669    96A     -0.794659
      97A     -0.746591    98A     -0.744813    99A     -0.733370
     100A     -0.733361   101A     -0.732161   102A     -0.732138
     103A     -0.716473   104A     -0.698948   105A     -0.698937
     106A     -0.693556   107A     -0.693540   108A     -0.661208
     109A     -0.653050   110A     -0.651098   111A     -0.650240
     112A     -0.650234   113A     -0.639340   114A     -0.639338
     115A     -0.629689   116A     -0.627487   117A     -0.627471
     118A     -0.606479   119A     -0.605808   120A     -0.601620
     121A     -0.599706   122A     -0.599675   123A     -0.593607
     124A     -0.591165   125A     -0.591154   126A     -0.585272
     127A     -0.576374   128A     -0.576368   129A     -0.567313
     130A     -0.567298   131A     -0.565914   132A     -0.565894
     133A     -0.558675   134A     -0.554823   135A     -0.554817
     136A     -0.538576   137A     -0.538574   138A     -0.538163
     139A     -0.538157   140A     -0.529694   141A     -0.528198
     142A     -0.522845   143A     -0.522839   144A     -0.500484
     145A     -0.495585   146A     -0.493213   147A     -0.487823
     148A     -0.485039   149A     -0.481726   150A     -0.481718
     151A     -0.470383   152A     -0.470365   153A     -0.450967
     154A     -0.450889   155A     -0.439058   156A     -0.439049
     157A     -0.404706   158A     -0.404683   159A     -0.403361
     160A     -0.375425   161A     -0.375422   162A     -0.349101
     163A     -0.337536   164A     -0.336577   165A     -0.336519
     166A     -0.311055   167A     -0.298114   168A     -0.284302
     169A     -0.284248   170A     -0.224886   171A     -0.224820

  @DF-RHF Final Energy: -2055.89401925225957

   => Energetics <=

    Nuclear Repulsion Energy =           6452.5568002797781446
    One-Electron Energy =              -15636.4897800759645179
    Two-Electron Energy =                7128.0389605439277148
    Total Energy =                      -2055.8940192522595680
 Dipole X            :          0.0000214            0.0000419            0.0000633
 Dipole Y            :          0.0000608           -0.0000426            0.0000183
 Dipole Z            :       -246.3735179          246.3739692            0.0004513
 Magnitude           :                                                    0.0004560

    SAPT Results
  --------------------------------------------------------------------------------------------------------
    Electrostatics                -32.57092367 [mEh]     -20.43856317 [kcal/mol]     -85.51494831 [kJ/mol]
      Elst10,r                    -32.57092367 [mEh]     -20.43856317 [kcal/mol]     -85.51494831 [kJ/mol]

    Exchange                      112.10226875 [mEh]      70.34523568 [kcal/mol]     294.32446607 [kJ/mol]
      Exch10                      112.10226875 [mEh]      70.34523568 [kcal/mol]     294.32446607 [kJ/mol]
      Exch10(S^2)                 110.82781440 [mEh]      69.54550350 [kcal/mol]     290.97838663 [kJ/mol]

    Induction                     -25.28268157 [mEh]     -15.86512221 [kcal/mol]     -66.37967131 [kJ/mol]
      Ind20,r                     -63.93797860 [mEh]     -40.12168730 [kcal/mol]    -167.86913968 [kJ/mol]
      Exch-Ind20,r                 41.67125115 [mEh]      26.14910488 [kcal/mol]     109.40785481 [kJ/mol]
      delta HF,r (2)               -3.01595412 [mEh]      -1.89253978 [kcal/mol]      -7.91838644 [kJ/mol]

    Dispersion                    -23.21714711 [mEh]     -14.56897976 [kcal/mol]     -60.95661133 [kJ/mol]
      Disp20                      -32.02038306 [mEh]     -20.09309372 [kcal/mol]     -84.06950413 [kJ/mol]
      Exch-Disp20                   8.80323595 [mEh]       5.52411396 [kcal/mol]      23.11289280 [kJ/mol]
      Disp20 (SS)                 -16.01019153 [mEh]     -10.04654686 [kcal/mol]     -42.03475207 [kJ/mol]
      Disp20 (OS)                 -16.01019153 [mEh]     -10.04654686 [kcal/mol]     -42.03475207 [kJ/mol]
      Exch-Disp20 (SS)              4.72081503 [mEh]       2.96235615 [kcal/mol]      12.39449814 [kJ/mol]
      Exch-Disp20 (OS)              4.08242092 [mEh]       2.56175780 [kcal/mol]      10.71839466 [kJ/mol]

  Total HF                         54.24866352 [mEh]      34.04155030 [kcal/mol]     142.42984644 [kJ/mol]
  Total SAPT0                      31.03151641 [mEh]      19.47257053 [kcal/mol]      81.47323511 [kJ/mol]

  Special recipe for scaled SAPT0 (see Manual):
    Electrostatics sSAPT0         -32.57092367 [mEh]     -20.43856317 [kcal/mol]     -85.51494831 [kJ/mol]
    Exchange sSAPT0               112.10226875 [mEh]      70.34523568 [kcal/mol]     294.32446607 [kJ/mol]
    Induction sSAPT0              -23.82850257 [mEh]     -14.95261111 [kcal/mol]     -62.56172487 [kJ/mol]
    Dispersion sSAPT0             -22.90994537 [mEh]     -14.37620776 [kcal/mol]     -60.15005328 [kJ/mol]
  Total sSAPT0                     32.79289715 [mEh]      20.57785363 [kcal/mol]      86.09773961 [kJ/mol]
  --------------------------------------------------------------------------------------------------------

*** Psi4 exiting successfully. Buy a developer a beer!
