                               Psi4 1.9 release

  ==> Input File <==

--------------------------------------------------------------------------
memory 64 GB # how much memory is available ! Depends on the nodes/cores !

molecule dimer {
# monomer A
+1 1    # Charge and multiplicity
C  0.680067 -1.215929 3.008042
C -0.680504 -1.215545 3.006014
N -1.085635  0.102779 3.005016
C  0.000108  0.884180 3.001740
C -2.477365  0.570758 2.955610
N  1.085222  0.102779 3.005016
H  1.385146 -2.033368 3.015870
H -1.385302 -2.033214 3.006204
H -0.000009  1.965269 2.999993
C  2.478117  0.567877 3.021908
H  2.490592  1.658130 2.994563
H  2.967028  0.220701 3.935354
H  3.001428  0.176405 2.146425
H -2.857359  0.490799 1.933539
H -3.082679 -0.042306 3.625694
H -2.518128  1.610706 3.282594
--
# monomer B
0 1     # Charge and multiplicity
C   -3.66844126402057      7.80375217008252      0.00190004133558
C   -4.84759871934653      7.13124183134024     -0.00046653359696
C   -4.89495929917518      5.69633040353158     -0.00103944469517
C   -3.65374067877320      4.98073034095895      0.00662099703436
C   -2.40942512149445      7.11398103667468      0.00209438359570
C   -2.42547734410473      5.68112195090346     -0.00491050527438
C   -1.19474401643570      7.78614419430947      0.00356656413763
C   0.03795902893699      7.09942164575698      0.00139585983271
C   0.03033258741920      5.66948955970466     -0.00408752508301
C   -1.20098450790502      4.96927034791531      0.00488220885047
C   1.27795782581485      7.77285944319479      0.00277170839332
C   2.48535808472416      7.08769688523756      0.00049722048857
C   2.48612868491717      5.65477081024076     -0.00644052849921
C   1.25408291964399      4.95607811366431      0.00518741308898
C   3.75171459140595      7.76391215098033      0.00062407186893
C   4.92356605618520      7.07878077698995     -0.00143240883900
C   4.95560727132542      5.64344746336949     -0.00159282164606
C   3.70680153420475      4.94121020833308      0.00349873852374
H   -3.65852113775815      8.89082741913536      0.00358502958574
H   -1.18921332975660      8.87412108735996      0.00753844057883
H   1.28429423888630      8.86083343548850      0.00693053253426
H   3.75354208679975      8.85103527897216      0.00214659618464
H   5.86995870320703      7.61379483465560     -0.00235777588134
H   -5.78823170750226      7.67630221293400     -0.00202638095293
C   -6.09197395869619      4.99326001364347     -0.00291168518608
C   -6.12866148031747      3.58258016879823     -0.00171050815740
C   -3.66457974004527      3.56418217974434     -0.00463560277484
C   -4.89429820469869      2.86108077590057      0.00453338221034
C   -2.43733499489796      2.84761165708481      0.00719617576166
C   -1.20922785759670      3.54788693497833     -0.00648285103018
C   1.24714157216223      3.53468075142962     -0.00729145743546
C   0.01517603956900      2.83311183930540      0.00439272578912
C   2.46764517244071      2.82128997725533      0.00449278391269
C   3.70254947457969      3.52466015442405     -0.00899517692985
C   6.14498038638375      4.92757236613191     -0.00282626685777
C   6.16658835886151      3.51658447594213     -0.00065971342101
C   4.92460995845939      2.80840792535402      0.00587903281610
H   7.08990550964105      5.46688776622306     -0.00658814770723
H   -7.03104175110130      5.54268795285765     -0.00714490013730
C   -7.33969804112295      2.85841153457957     -0.00333767559888
C   -7.36488195805880      1.47032337158330     -0.00157213747140
C   -4.90350460894690      1.44442681216000     -0.00628840166334
C   -6.13225715261081      0.73993935705394      0.00600164231964
C   -3.67687480051673      0.72669714267312      0.00433931473643
C   -2.44565658606518      1.42964113326212     -0.00597039546461
C   -1.22360068130162      0.71532450163492      0.00545886906656
C   0.00763786931376      1.41738314923765      0.00392452278437
C   1.23121980774686      0.70211669058719     -0.01490206287210
C   2.46082110053113      1.40329203612573      0.00460244601878
C   3.68443025419614      0.68719842821222      0.00377365974158
C   4.91870890153864      1.39173456118907     -0.00862816189375
C   7.36980207796101      2.77948220318441     -0.00242013321349
C   7.38016266612146      1.39121750785509     -0.00087345036788
C   6.13979953912259      0.67411862320065      0.00545489144369
H   -8.27919079934664      3.40711804112415     -0.00763522772059
H   8.31511347147953      3.31811809662368     -0.00663070901292
C   -8.59175593758115      0.72483255304480     -0.00123170985383
C   -8.59902460370342     -0.63263980622873      0.00089141472904
C   -6.13981313911873     -0.67413663715361     -0.00609792660607
C   -7.38018411213749     -1.39126618958160      0.00131813493501
C   -4.91868448025621     -1.39175501803000      0.00624257154343
C   -3.68443829568458     -0.68723731573599     -0.00478966852105
C   -2.46081704024768     -1.40334517882457      0.00575341766833
C   -1.23116201232071     -0.70217386488055     -0.00636696112346
C   -0.00756962538737     -1.41741884941102      0.00108956317991
C   1.22364771588843     -0.71527537726392      0.01109518512883
C   2.44567064933149     -1.42964328900682     -0.00065482763106
C   3.67686670284649     -0.72670743155550     -0.00479541202602
C   6.13224884641929     -0.73997883984993     -0.00632338623858
C   4.90351914550401     -1.44445752054090      0.00751768830159
C   8.59901484869081      0.63260386666793     -0.00101133422380
C   8.59174548810050     -0.72485086719319      0.00072504603735
C   7.36486276438985     -1.47033266560598      0.00049486934466
H   -9.52830597181814      1.27684744919284     -0.00270163681798
H   9.54141097460619      1.17457248844457     -0.00206336648518
C   -7.36983790976868     -2.77954514593389      0.00312634335708
C   -4.92459910905015     -2.80843725734101     -0.00460528907921
C   -6.16662249566744     -3.51665219282533      0.00169655107992
C   -3.70251035970491     -3.52468154912026      0.00571878010666
C   -2.46764698511392     -2.82132596280400     -0.00632585824990
C   -0.01513347410770     -2.83314164539971     -0.00604426974092
C   -1.24712184122656     -3.53473217556300      0.00551968366725
C   1.20924506964357     -3.54791467864352      0.00805871345849
C   2.43733602215464     -2.84764173817541     -0.00608104485234
C   4.89430234377080     -2.86112296828604     -0.00526030478103
C   3.66461525504104     -3.56421984553201      0.00761911515957
C   6.12863901474565     -3.58258405771778      0.00096495711699
C   7.33967266469532     -2.85841330737039      0.00248018319869
H   -9.54144911125902     -1.17456346666430      0.00226083090216
H   9.52826186807155     -1.27691907390448      0.00197485379837
H   -8.31516504384864     -3.31814985321231      0.00729857188773
H   8.27915514249207     -3.40714078989363      0.00681973918158
C   -6.14499418870218     -4.92764727278338      0.00302254913999
C   -3.70678334799751     -4.94126171411716     -0.00679841894792
C   -4.95559005800169     -5.64349397349412      0.00116871569699
C   -2.48612132622665     -5.65478557440947      0.00614125209662
C   -1.25405833548005     -4.95612205000132     -0.00503435388927
C   1.20101257386816     -4.96928038819302     -0.00385322963129
C   -0.03033667441341     -5.66952030313900      0.00398997003238
C   3.65375010132847     -4.98074377541453     -0.00309522988330
C   2.42549269587528     -5.68117463552727      0.00628170066869
C   6.09196561781097     -4.99325796338655      0.00325918379042
C   4.89497644461045     -5.69634842095790      0.00202298796027
H   -7.08989238804069     -5.46699984223871      0.00742531082125
H   7.03105520920009     -5.54265853633254      0.00683896355417
C   -4.92354532219813     -7.07882109967734      0.00061394679214
C   -2.48534208823777     -7.08772807792913     -0.00189594564379
C   -3.75168589177895     -7.76394715763627     -0.00170126671874
C   -0.03794895698805     -7.09946487446944     -0.00168022049625
C   -1.27795610040136     -7.77290438466689     -0.00366491325785
C   2.40944432072629     -7.11402201200282     -0.00081701968533
C   1.19474993715296     -7.78618536556242     -0.00296931056689
C   4.84762105249800     -7.13126211057943      0.00168979497423
C   3.66847160587561     -7.80378799294376     -0.00065863938960
H   -5.86994035041618     -7.61383059804164      0.00215798365757
H   5.78824962538815     -7.67633218931421      0.00281691445618
H   -3.75352693944918     -8.85107156923607     -0.00353718114765
H   -1.28430440589466     -8.86087539249706     -0.00809229711623
H   1.18922157469537     -8.87416062058945     -0.00706194725726
H   3.65854661482387     -8.89086063405326     -0.00231318081200

    units angstrom      # Angstroms are the default
    no_reorient         # Geometry fixed, default
    symmetry c1         # C1 symmetry, default
}

set {
    scf_type DF         # Density fitting, faster than exact integrals
    freeze_core True    # Freeze core electrons
    basis jun-cc-pVDZ   # Jun-cc-pVDZ basis set, recommended for sSAPT0 in https://doi.org/10.1063/1.4867135
}

energy('ssapt0')        # Compute sSAPT0 energy, includes also SAPT0
--------------------------------------------------------------------------

  //              Dimer HF             //
    Molecular point group: c1
  Charge       = 1
  Multiplicity = 1
  Basis Set: JUN-CC-PVDZ
    Blend: JUN-CC-PVDZ
  Basis Set: (JUN-CC-PVDZ AUX)
    Blend: JUN-CC-PVDZ-JKFIT
  @DF-RHF Final Energy: -3953.62321964647617
    Total Energy =                      -3953.6232196464770823
 Dipole X            :         -0.0020270            0.0004804           -0.0015466
 Dipole Y            :         -1.6602673            1.8866171            0.2263498
 Dipole Z            :        -14.8425088           18.1630829            3.3205741
 Magnitude           :                                                    3.3282801
  //            Monomer A HF           //
    Molecular point group: c1
  Multiplicity = 1
  Basis Set: JUN-CC-PVDZ
    Blend: JUN-CC-PVDZ
  Basis Set: (JUN-CC-PVDZ AUX)
    Blend: JUN-CC-PVDZ-JKFIT
  @DF-RHF Final Energy:  -303.29990981415267
    Total Energy =                       -303.2999098141526702
  //            Monomer B HF           //
    Molecular point group: c1

    Geometry (in Angstrom), charge = 0, multiplicity = 1:

       Center              X                  Y                   Z               Mass
    ------------   -----------------  -----------------  -----------------  -----------------
      Gh(C)           0.680062820275    -1.215917226251     2.779312062193    12.000000000000
      Gh(C)          -0.680508179725    -1.215533226251     2.777284062193    12.000000000000
      Gh(N)          -1.085639179725     0.102790773749     2.776286062193    14.003074004430
      Gh(C)           0.000103820275     0.884191773749     2.773010062193    12.000000000000
      Gh(C)          -2.477369179725     0.570769773749     2.726880062193    12.000000000000
      Gh(N)           1.085217820275     0.102790773749     2.776286062193    14.003074004430
      Gh(H)           1.385141820275    -2.033356226251     2.787140062193     1.007825032230
      Gh(H)          -1.385306179725    -2.033202226251     2.777474062193     1.007825032230
      Gh(H)          -0.000013179725     1.965280773749     2.771263062193     1.007825032230
      Gh(C)           2.478112820275     0.567888773749     2.793178062193    12.000000000000
      Gh(H)           2.490587820275     1.658141773750     2.765833062193     1.007825032230
      Gh(H)           2.967023820275     0.220712773749     3.706624062193     1.007825032230
      Gh(H)           3.001423820275     0.176416773749     1.917695062193     1.007825032230
      Gh(H)          -2.857363179725     0.490810773749     1.704809062193     1.007825032230
      Gh(H)          -3.082683179725    -0.042294226251     3.396964062193     1.007825032230
      Gh(H)          -2.518132179725     1.610717773749     3.053864062193     1.007825032230
         C           -3.668445443746     7.803763943832    -0.226829896472    12.000000000000
         C           -4.847602899072     7.131253605090    -0.229196471404    12.000000000000
         C           -4.894963478901     5.696342177281    -0.229769382503    12.000000000000
         C           -3.653744858499     4.980742114708    -0.222108940773    12.000000000000
         C           -2.409429301220     7.113992810424    -0.226635554212    12.000000000000
         C           -2.425481523830     5.681133724653    -0.233640443082    12.000000000000
         C           -1.194748196161     7.786155968059    -0.225163373670    12.000000000000
         C            0.037954849212     7.099433419506    -0.227334077975    12.000000000000
         C            0.030328407694     5.669501333454    -0.232817462890    12.000000000000
         C           -1.200988687630     4.969282121665    -0.223847728957    12.000000000000
         C            1.277953646089     7.772871216944    -0.225958229414    12.000000000000
         C            2.485353904999     7.087708658987    -0.228232717319    12.000000000000
         C            2.486124505192     5.654782583990    -0.235170466307    12.000000000000
         C            1.254078739919     4.956089887414    -0.223542524718    12.000000000000
         C            3.751710411681     7.763923924730    -0.228105865938    12.000000000000
         C            4.923561876460     7.078792550739    -0.230162346646    12.000000000000
         C            4.955603091600     5.643459237119    -0.230322759453    12.000000000000
         C            3.706797354479     4.941221982083    -0.225231199284    12.000000000000
         H           -3.658525317484     8.890839192885    -0.225144908222     1.007825032230
         H           -1.189217509482     8.874132861109    -0.221191497229     1.007825032230
         H            1.284290059161     8.860845209238    -0.221799405273     1.007825032230
         H            3.753537907074     8.851047052722    -0.226583341623     1.007825032230
         H            5.869954523482     7.613806608405    -0.231087713689     1.007825032230
         H           -5.788235887228     7.676313986684    -0.230756318760     1.007825032230
         C           -6.091978138422     4.993271787393    -0.231641622993    12.000000000000
         C           -6.128665660043     3.582591942548    -0.230440445965    12.000000000000
         C           -3.664583919771     3.564193953494    -0.233365540582    12.000000000000
         C           -4.894302384424     2.861092549650    -0.224196555597    12.000000000000
         C           -2.437339174623     2.847623430834    -0.221533762046    12.000000000000
         C           -1.209232037322     3.547898708728    -0.235212788838    12.000000000000
         C            1.247137392437     3.534692525179    -0.236021395243    12.000000000000
         C            0.015171859844     2.833123613055    -0.224337212018    12.000000000000
         C            2.467640992715     2.821301751005    -0.224237153895    12.000000000000
         C            3.702545294854     3.524671928174    -0.237725114737    12.000000000000
         C            6.144976206658     4.927584139881    -0.231556204665    12.000000000000
         C            6.166584179136     3.516596249692    -0.229389651228    12.000000000000
         C            4.924605778734     2.808419699104    -0.222850904991    12.000000000000
         H            7.089901329916     5.466899539973    -0.235318085515     1.007825032230
         H           -7.031045930827     5.542699726607    -0.235874837945     1.007825032230
         C           -7.339702220848     2.858423308329    -0.232067613406    12.000000000000
         C           -7.364886137784     1.470335145333    -0.230302075279    12.000000000000
         C           -4.903508788672     1.444438585909    -0.235018339471    12.000000000000
         C           -6.132261332336     0.739951130803    -0.222728295488    12.000000000000
         C           -3.676878980242     0.726708916423    -0.224390623071    12.000000000000
         C           -2.445660765791     1.429652907012    -0.234700333272    12.000000000000
         C           -1.223604861027     0.715336275384    -0.223271068741    12.000000000000
         C            0.007633689588     1.417394922987    -0.224805415023    12.000000000000
         C            1.231215628021     0.702128464337    -0.243632000679    12.000000000000
         C            2.460816920806     1.403303809875    -0.224127491789    12.000000000000
         C            3.684426074471     0.687210201962    -0.224956278066    12.000000000000
         C            4.918704721813     1.391746334939    -0.237358099701    12.000000000000
         C            7.369797898236     2.779493976934    -0.231150071021    12.000000000000
         C            7.380158486396     1.391229281605    -0.229603388175    12.000000000000
         C            6.139795359397     0.674130396950    -0.223275046364    12.000000000000
         H           -8.279194979072     3.407129814874    -0.236365165528     1.007825032230
         H            8.315109291754     3.318129870373    -0.235360646820     1.007825032230
         C           -8.591760117307     0.724844326794    -0.229961647661    12.000000000000
         C           -8.599028783429    -0.632628032479    -0.227838523078    12.000000000000
         C           -6.139817318844    -0.674124863404    -0.234827864413    12.000000000000
         C           -7.380188291863    -1.391254415832    -0.227411802872    12.000000000000
         C           -4.918688659982    -1.391743244281    -0.222487366264    12.000000000000
         C           -3.684442475410    -0.687225541986    -0.233519606328    12.000000000000
         C           -2.460821219973    -1.403333405075    -0.222976520139    12.000000000000
         C           -1.231166192046    -0.702162091131    -0.235096898931    12.000000000000
         C           -0.007573805113    -1.417407075662    -0.227640374627    12.000000000000
         C            1.223643536163    -0.715263603514    -0.217634752679    12.000000000000
         C            2.445666469606    -1.429631515257    -0.229384765438    12.000000000000
         C            3.676862523121    -0.726695657806    -0.233525349833    12.000000000000
         C            6.132244666694    -0.739967066100    -0.235053324046    12.000000000000
         C            4.903514965779    -1.444445746791    -0.221212249506    12.000000000000
         C            8.599010668965     0.632615640417    -0.229741272031    12.000000000000
         C            8.591741308375    -0.724839093444    -0.228004891770    12.000000000000
         C            7.364858584664    -1.470320891856    -0.228235068463    12.000000000000
         H           -9.528310151544     1.276859222942    -0.231431574625     1.007825032230
         H            9.541406794881     1.174584262194    -0.230793304293     1.007825032230
         C           -7.369842089494    -2.779533372184    -0.225603594450    12.000000000000
         C           -4.924603288776    -2.808425483592    -0.233335226887    12.000000000000
         C           -6.166626675393    -3.516640419076    -0.227033386727    12.000000000000
         C           -3.702514539430    -3.524669775371    -0.223011157701    12.000000000000
         C           -2.467651164839    -2.821314189055    -0.235055796057    12.000000000000
         C           -0.015137653833    -2.833129871650    -0.234774207548    12.000000000000
         C           -1.247126020952    -3.534720401814    -0.223210254140    12.000000000000
         C            1.209240889918    -3.547902904894    -0.220671224349    12.000000000000
         C            2.437331842429    -2.847629964426    -0.234810982660    12.000000000000
         C            4.894298164045    -2.861111194537    -0.233990242588    12.000000000000
         C            3.664611075316    -3.564208071783    -0.221110822648    12.000000000000
         C            6.128634835020    -3.582572283968    -0.227764980690    12.000000000000
         C            7.339668484970    -2.858401533621    -0.226249754609    12.000000000000
         H           -9.541453290984    -1.174551692915    -0.226469106905     1.007825032230
         H            9.528257688346    -1.276907300155    -0.226755084009     1.007825032230
         H           -8.315169223574    -3.318138079463    -0.221431365920     1.007825032230
         H            8.279150962767    -3.407129016144    -0.221910198626     1.007825032230
         C           -6.144998368428    -4.927635499034    -0.225707388667    12.000000000000
         C           -3.706787527723    -4.941249940368    -0.235528356755    12.000000000000
         C           -4.955594237727    -5.643482199745    -0.227561222110    12.000000000000
         C           -2.486125505952    -5.654773800660    -0.222588685711    12.000000000000
         C           -1.254062515205    -4.956110276252    -0.233764291697    12.000000000000
         C            1.201008394143    -4.969268614444    -0.232583167439    12.000000000000
         C           -0.030340854139    -5.669508529390    -0.224739967775    12.000000000000
         C            3.653745921603    -4.980732001665    -0.231825167691    12.000000000000
         C            2.425488516150    -5.681162861778    -0.222448237139    12.000000000000
         C            6.091961438086    -4.993246189637    -0.225470754017    12.000000000000
         C            4.894972264885    -5.696336647208    -0.226706949847    12.000000000000
         H           -7.089896567766    -5.466988068489    -0.221304626986     1.007825032230
         H            7.031051029475    -5.542646762583    -0.221890974253     1.007825032230
         C           -4.923549501924    -7.078809325928    -0.228115991015    12.000000000000
         C           -2.485346267963    -7.087716304180    -0.230625883451    12.000000000000
         C           -3.751690071504    -7.763935383887    -0.230431204526    12.000000000000
         C           -0.037953136713    -7.099453100720    -0.230410158304    12.000000000000
         C           -1.277960280127    -7.772892610917    -0.232394851065    12.000000000000
         C            2.409440141001    -7.114010238253    -0.229546957493    12.000000000000
         C            1.194745757428    -7.786173591813    -0.231699248374    12.000000000000
         C            4.847616872773    -7.131250336830    -0.227040142833    12.000000000000
         C            3.668467426150    -7.803776219194    -0.229388577197    12.000000000000
         H           -5.869944530142    -7.613818824292    -0.226571954150     1.007825032230
         H            5.788245445663    -7.676320415565    -0.225913023351     1.007825032230
         H           -3.753531119175    -8.851059795487    -0.232267118955     1.007825032230
         H           -1.284308585620    -8.860863618748    -0.236822234924     1.007825032230
         H            1.189217394970    -8.874148846840    -0.235791885065     1.007825032230
         H            3.658542435098    -8.890848860304    -0.231043118619     1.007825032230

  Charge       = 0
  Multiplicity = 1
  Basis Set: JUN-CC-PVDZ
    Blend: JUN-CC-PVDZ
  Basis Set: (JUN-CC-PVDZ AUX)
    Blend: JUN-CC-PVDZ-JKFIT

    Orbital Energies [Eh]
    ---------------------

    Doubly Occupied:

       1A    -11.264108     2A    -11.263767     3A    -11.263722
       4A    -11.263342     5A    -11.263330     6A    -11.263250
       7A    -11.263145     8A    -11.263141     9A    -11.263070
      10A    -11.262851    11A    -11.262758    12A    -11.262709
      13A    -11.262243    14A    -11.262238    15A    -11.262197
      16A    -11.262179    17A    -11.262053    18A    -11.262039
      19A    -11.262015    20A    -11.261948    21A    -11.261943
      22A    -11.261855    23A    -11.261845    24A    -11.261680
      25A    -11.261673    26A    -11.261644    27A    -11.261636
      28A    -11.261596    29A    -11.261589    30A    -11.261513
      31A    -11.261483    32A    -11.261465    33A    -11.261458
      34A    -11.261443    35A    -11.261441    36A    -11.261417
      37A    -11.261247    38A    -11.261234    39A    -11.261225
      40A    -11.261218    41A    -11.261208    42A    -11.261203
      43A    -11.261195    44A    -11.261178    45A    -11.261173
      46A    -11.261150    47A    -11.261141    48A    -11.261126
      49A    -11.260996    50A    -11.260982    51A    -11.260950
      52A    -11.260914    53A    -11.260889    54A    -11.260836
      55A    -11.259806    56A    -11.259782    57A    -11.259779
      58A    -11.259755    59A    -11.259743    60A    -11.259726
      61A    -11.259166    62A    -11.259142    63A    -11.259130
      64A    -11.259085    65A    -11.259078    66A    -11.259048
      67A    -11.258805    68A    -11.258779    69A    -11.258776
      70A    -11.258752    71A    -11.258741    72A    -11.258726
      73A    -11.254460    74A    -11.254450    75A    -11.254442
      76A    -11.254438    77A    -11.254438    78A    -11.254430
      79A    -11.253569    80A    -11.253548    81A    -11.253546
      82A    -11.253542    83A    -11.253538    84A    -11.253534
      85A    -11.253484    86A    -11.253462    87A    -11.253460
      88A    -11.253454    89A    -11.253453    90A    -11.253448
      91A    -11.252987    92A    -11.252978    93A    -11.252969
      94A    -11.252966    95A    -11.252966    96A    -11.252958
      97A     -1.253742    98A     -1.238826    99A     -1.238795
     100A     -1.220304   101A     -1.220289   102A     -1.215271
     103A     -1.200898   104A     -1.195450   105A     -1.187972
     106A     -1.187954   107A     -1.173626   108A     -1.173623
     109A     -1.155449   110A     -1.155446   111A     -1.152544
     112A     -1.144592   113A     -1.144591   114A     -1.128397
     115A     -1.114529   116A     -1.113035   117A     -1.112318
     118A     -1.112289   119A     -1.111494   120A     -1.088262
     121A     -1.088242   122A     -1.076837   123A     -1.076836
     124A     -1.067450   125A     -1.067408   126A     -1.064797
     127A     -1.046644   128A     -1.046631   129A     -1.040320
     130A     -1.038613   131A     -1.038607   132A     -1.025058
     133A     -1.021195   134A     -1.021135   135A     -1.007034
     136A     -1.006629   137A     -1.003648   138A     -1.000317
     139A     -1.000258   140A     -0.990959   141A     -0.970823
     142A     -0.970772   143A     -0.955750   144A     -0.955689
     145A     -0.905433   146A     -0.905389   147A     -0.905381
     148A     -0.905350   149A     -0.904120   150A     -0.892155
     151A     -0.892097   152A     -0.890173   153A     -0.890123
     154A     -0.889274   155A     -0.872086   156A     -0.868954
     157A     -0.851392   158A     -0.847676   159A     -0.847666
     160A     -0.845406   161A     -0.842829   162A     -0.834402
     163A     -0.834391   164A     -0.827997   165A     -0.827987
     166A     -0.784401   167A     -0.784390   168A     -0.783491
     169A     -0.783478   170A     -0.782116   171A     -0.782098
     172A     -0.781851   173A     -0.766826   174A     -0.760592
     175A     -0.750395   176A     -0.733352   177A     -0.726916
     178A     -0.726878   179A     -0.724906   180A     -0.724384
     181A     -0.724350   182A     -0.718295   183A     -0.713588
     184A     -0.713582   185A     -0.699427   186A     -0.699405
     187A     -0.685930   188A     -0.685810   189A     -0.685799
     190A     -0.682016   191A     -0.682008   192A     -0.678620
     193A     -0.653477   194A     -0.650716   195A     -0.650683
     196A     -0.649618   197A     -0.649615   198A     -0.649425
     199A     -0.640745   200A     -0.640701   201A     -0.639933
     202A     -0.639020   203A     -0.635849   204A     -0.635816
     205A     -0.628972   206A     -0.617721   207A     -0.615167
     208A     -0.615141   209A     -0.608644   210A     -0.608638
     211A     -0.599082   212A     -0.599052   213A     -0.598579
     214A     -0.598408   215A     -0.598393   216A     -0.597851
     217A     -0.594924   218A     -0.594908   219A     -0.594562
     220A     -0.594022   221A     -0.591783   222A     -0.591780
     223A     -0.587180   224A     -0.577681   225A     -0.577663
     226A     -0.575626   227A     -0.575619   228A     -0.573221
     229A     -0.569520   230A     -0.567960   231A     -0.567937
     232A     -0.566586   233A     -0.566577   234A     -0.560795
     235A     -0.558545   236A     -0.558501   237A     -0.558303
     238A     -0.554201   239A     -0.550487   240A     -0.547355
     241A     -0.544177   242A     -0.534955   243A     -0.534946
     244A     -0.533385   245A     -0.533369   246A     -0.527934
     247A     -0.527914   248A     -0.527585   249A     -0.516988
     250A     -0.516961   251A     -0.515259   252A     -0.515255
     253A     -0.509494   254A     -0.509483   255A     -0.497863
     256A     -0.496293   257A     -0.496247   258A     -0.493725
     259A     -0.493705   260A     -0.489367   261A     -0.481303
     262A     -0.477319   263A     -0.477316   264A     -0.473834
     265A     -0.469245   266A     -0.466345   267A     -0.466342
     268A     -0.458710   269A     -0.446463   270A     -0.446412
     271A     -0.440945   272A     -0.440696   273A     -0.440660
     274A     -0.434587   275A     -0.433805   276A     -0.407276
     277A     -0.407250   278A     -0.386276   279A     -0.386230
     280A     -0.385635   281A     -0.385630   282A     -0.383632
     283A     -0.354208   284A     -0.354179   285A     -0.350536
     286A     -0.338001   287A     -0.335498   288A     -0.335452
     289A     -0.332603   290A     -0.332596   291A     -0.306907
     292A     -0.301822   293A     -0.301766   294A     -0.300718
     295A     -0.286046   296A     -0.256380   297A     -0.253366
     298A     -0.253313   299A     -0.204139   300A     -0.204058

  @DF-RHF Final Energy: -3650.34301251850502

   => Energetics <=

    Nuclear Repulsion Energy =          15611.4211649754324753
    One-Electron Energy =              -36072.2283472888884717
    Two-Electron Energy =               16810.4641697949518857
    Total Energy =                      -3650.3430125185041106
 Dipole X            :          0.0006086            0.0002112            0.0008198
 Dipole Y            :          0.0019773           -0.0044281           -0.0024508
 Dipole Z            :        259.3372923         -259.3387716           -0.0014793
 Magnitude           :                                                    0.0029777

    SAPT Results
  --------------------------------------------------------------------------------------------------------
    Electrostatics                -43.42953584 [mEh]     -27.25244518 [kcal/mol]    -114.02423063 [kJ/mol]
      Elst10,r                    -43.42953584 [mEh]     -27.25244518 [kcal/mol]    -114.02423063 [kJ/mol]

    Exchange                       91.32415758 [mEh]      57.30677407 [kcal/mol]     239.77154269 [kJ/mol]
      Exch10                       91.32415758 [mEh]      57.30677407 [kcal/mol]     239.77154269 [kJ/mol]
      Exch10(S^2)                  90.38700977 [mEh]      56.71870494 [kcal/mol]     237.31106146 [kJ/mol]

    Induction                     -28.19193556 [mEh]     -17.69070665 [kcal/mol]     -74.01791662 [kJ/mol]
      Ind20,r                     -53.59148071 [mEh]     -33.62916186 [kcal/mol]    -140.70441322 [kJ/mol]
      Exch-Ind20,r                 32.90113657 [mEh]      20.64577489 [kcal/mol]      86.38192216 [kJ/mol]
      delta HF,r (2)               -7.50159142 [mEh]      -4.70731968 [kcal/mol]     -19.69542555 [kJ/mol]

    Dispersion                    -63.96494343 [mEh]     -40.13860799 [kcal/mol]    -167.93993583 [kJ/mol]
      Disp20                      -72.71007428 [mEh]     -45.62626045 [kcal/mol]    -190.90027372 [kJ/mol]
      Exch-Disp20                   8.74513085 [mEh]       5.48765246 [kcal/mol]      22.96033789 [kJ/mol]
      Disp20 (SS)                 -36.35503714 [mEh]     -22.81313023 [kcal/mol]     -95.45013686 [kJ/mol]
      Disp20 (OS)                 -36.35503714 [mEh]     -22.81313023 [kcal/mol]     -95.45013686 [kJ/mol]
      Exch-Disp20 (SS)              5.24168966 [mEh]       3.28920992 [kcal/mol]      13.76205430 [kJ/mol]
      Exch-Disp20 (OS)              3.50344119 [mEh]       2.19844254 [kcal/mol]       9.19828359 [kJ/mol]

  Total HF                         19.70268618 [mEh]      12.36362224 [kcal/mol]      51.72939544 [kJ/mol]
  Total SAPT0                     -44.26225725 [mEh]     -27.77498575 [kcal/mol]    -116.21054039 [kJ/mol]

  Special recipe for scaled SAPT0 (see Manual):
    Electrostatics sSAPT0         -43.42953584 [mEh]     -27.25244518 [kcal/mol]    -114.02423063 [kJ/mol]
    Exchange sSAPT0                91.32415758 [mEh]      57.30677407 [kcal/mol]     239.77154269 [kJ/mol]
    Induction sSAPT0              -27.15791473 [mEh]     -17.04184878 [kcal/mol]     -71.30309530 [kJ/mol]
    Dispersion sSAPT0             -63.69010042 [mEh]     -39.96614140 [kcal/mol]    -167.21833560 [kJ/mol]
  Total sSAPT0                    -42.95339340 [mEh]     -26.95366129 [kcal/mol]    -112.77411884 [kJ/mol]
  --------------------------------------------------------------------------------------------------------

*** Psi4 exiting successfully. Buy a developer a beer!
