                               Psi4 1.9 release

  ==> Input File <==

--------------------------------------------------------------------------
memory 64 GB # how much memory is available ! Depends on the nodes/cores !

molecule dimer {
# monomer A
+1 1    # Charge and multiplicity
C  0.680067 -0.008042 -8.815929
C -0.680504 -0.006014 -8.815545
N -1.085635 -0.005016 -7.497221
C  0.000108 -0.001740 -6.715820
C -2.477365  0.044390 -7.029242
N  1.085222 -0.005016 -7.497221
H  1.385146 -0.015870 -9.633368
H -1.385302 -0.006204 -9.633214
H -0.000009  0.000007 -5.634731
C  2.478117 -0.021908 -7.032123
H  2.490592  0.005437 -5.941870
H  2.967028 -0.935354 -7.379299
H  3.001428  0.853575 -7.423595
H -2.857359  1.066461 -7.109201
H -3.082679 -0.625694 -7.642306
H -2.518128 -0.282594 -5.989294
--
# monomer B
0 1     # Charge and multiplicity
C   -3.66844126402057      7.80375217008252      0.00190004133558
C   -4.84759871934653      7.13124183134024     -0.00046653359696
C   -4.89495929917518      5.69633040353158     -0.00103944469517
C   -3.65374067877320      4.98073034095895      0.00662099703436
C   -2.40942512149445      7.11398103667468      0.00209438359570
C   -2.42547734410473      5.68112195090346     -0.00491050527438
C   -1.19474401643570      7.78614419430947      0.00356656413763
C   0.03795902893699      7.09942164575698      0.00139585983271
C   0.03033258741920      5.66948955970466     -0.00408752508301
C   -1.20098450790502      4.96927034791531      0.00488220885047
C   1.27795782581485      7.77285944319479      0.00277170839332
C   2.48535808472416      7.08769688523756      0.00049722048857
C   2.48612868491717      5.65477081024076     -0.00644052849921
C   1.25408291964399      4.95607811366431      0.00518741308898
C   3.75171459140595      7.76391215098033      0.00062407186893
C   4.92356605618520      7.07878077698995     -0.00143240883900
C   4.95560727132542      5.64344746336949     -0.00159282164606
C   3.70680153420475      4.94121020833308      0.00349873852374
H   -3.65852113775815      8.89082741913536      0.00358502958574
H   -1.18921332975660      8.87412108735996      0.00753844057883
H   1.28429423888630      8.86083343548850      0.00693053253426
H   3.75354208679975      8.85103527897216      0.00214659618464
H   5.86995870320703      7.61379483465560     -0.00235777588134
H   -5.78823170750226      7.67630221293400     -0.00202638095293
C   -6.09197395869619      4.99326001364347     -0.00291168518608
C   -6.12866148031747      3.58258016879823     -0.00171050815740
C   -3.66457974004527      3.56418217974434     -0.00463560277484
C   -4.89429820469869      2.86108077590057      0.00453338221034
C   -2.43733499489796      2.84761165708481      0.00719617576166
C   -1.20922785759670      3.54788693497833     -0.00648285103018
C   1.24714157216223      3.53468075142962     -0.00729145743546
C   0.01517603956900      2.83311183930540      0.00439272578912
C   2.46764517244071      2.82128997725533      0.00449278391269
C   3.70254947457969      3.52466015442405     -0.00899517692985
C   6.14498038638375      4.92757236613191     -0.00282626685777
C   6.16658835886151      3.51658447594213     -0.00065971342101
C   4.92460995845939      2.80840792535402      0.00587903281610
H   7.08990550964105      5.46688776622306     -0.00658814770723
H   -7.03104175110130      5.54268795285765     -0.00714490013730
C   -7.33969804112295      2.85841153457957     -0.00333767559888
C   -7.36488195805880      1.47032337158330     -0.00157213747140
C   -4.90350460894690      1.44442681216000     -0.00628840166334
C   -6.13225715261081      0.73993935705394      0.00600164231964
C   -3.67687480051673      0.72669714267312      0.00433931473643
C   -2.44565658606518      1.42964113326212     -0.00597039546461
C   -1.22360068130162      0.71532450163492      0.00545886906656
C   0.00763786931376      1.41738314923765      0.00392452278437
C   1.23121980774686      0.70211669058719     -0.01490206287210
C   2.46082110053113      1.40329203612573      0.00460244601878
C   3.68443025419614      0.68719842821222      0.00377365974158
C   4.91870890153864      1.39173456118907     -0.00862816189375
C   7.36980207796101      2.77948220318441     -0.00242013321349
C   7.38016266612146      1.39121750785509     -0.00087345036788
C   6.13979953912259      0.67411862320065      0.00545489144369
H   -8.27919079934664      3.40711804112415     -0.00763522772059
H   8.31511347147953      3.31811809662368     -0.00663070901292
C   -8.59175593758115      0.72483255304480     -0.00123170985383
C   -8.59902460370342     -0.63263980622873      0.00089141472904
C   -6.13981313911873     -0.67413663715361     -0.00609792660607
C   -7.38018411213749     -1.39126618958160      0.00131813493501
C   -4.91868448025621     -1.39175501803000      0.00624257154343
C   -3.68443829568458     -0.68723731573599     -0.00478966852105
C   -2.46081704024768     -1.40334517882457      0.00575341766833
C   -1.23116201232071     -0.70217386488055     -0.00636696112346
C   -0.00756962538737     -1.41741884941102      0.00108956317991
C   1.22364771588843     -0.71527537726392      0.01109518512883
C   2.44567064933149     -1.42964328900682     -0.00065482763106
C   3.67686670284649     -0.72670743155550     -0.00479541202602
C   6.13224884641929     -0.73997883984993     -0.00632338623858
C   4.90351914550401     -1.44445752054090      0.00751768830159
C   8.59901484869081      0.63260386666793     -0.00101133422380
C   8.59174548810050     -0.72485086719319      0.00072504603735
C   7.36486276438985     -1.47033266560598      0.00049486934466
H   -9.52830597181814      1.27684744919284     -0.00270163681798
H   9.54141097460619      1.17457248844457     -0.00206336648518
C   -7.36983790976868     -2.77954514593389      0.00312634335708
C   -4.92459910905015     -2.80843725734101     -0.00460528907921
C   -6.16662249566744     -3.51665219282533      0.00169655107992
C   -3.70251035970491     -3.52468154912026      0.00571878010666
C   -2.46764698511392     -2.82132596280400     -0.00632585824990
C   -0.01513347410770     -2.83314164539971     -0.00604426974092
C   -1.24712184122656     -3.53473217556300      0.00551968366725
C   1.20924506964357     -3.54791467864352      0.00805871345849
C   2.43733602215464     -2.84764173817541     -0.00608104485234
C   4.89430234377080     -2.86112296828604     -0.00526030478103
C   3.66461525504104     -3.56421984553201      0.00761911515957
C   6.12863901474565     -3.58258405771778      0.00096495711699
C   7.33967266469532     -2.85841330737039      0.00248018319869
H   -9.54144911125902     -1.17456346666430      0.00226083090216
H   9.52826186807155     -1.27691907390448      0.00197485379837
H   -8.31516504384864     -3.31814985321231      0.00729857188773
H   8.27915514249207     -3.40714078989363      0.00681973918158
C   -6.14499418870218     -4.92764727278338      0.00302254913999
C   -3.70678334799751     -4.94126171411716     -0.00679841894792
C   -4.95559005800169     -5.64349397349412      0.00116871569699
C   -2.48612132622665     -5.65478557440947      0.00614125209662
C   -1.25405833548005     -4.95612205000132     -0.00503435388927
C   1.20101257386816     -4.96928038819302     -0.00385322963129
C   -0.03033667441341     -5.66952030313900      0.00398997003238
C   3.65375010132847     -4.98074377541453     -0.00309522988330
C   2.42549269587528     -5.68117463552727      0.00628170066869
C   6.09196561781097     -4.99325796338655      0.00325918379042
C   4.89497644461045     -5.69634842095790      0.00202298796027
H   -7.08989238804069     -5.46699984223871      0.00742531082125
H   7.03105520920009     -5.54265853633254      0.00683896355417
C   -4.92354532219813     -7.07882109967734      0.00061394679214
C   -2.48534208823777     -7.08772807792913     -0.00189594564379
C   -3.75168589177895     -7.76394715763627     -0.00170126671874
C   -0.03794895698805     -7.09946487446944     -0.00168022049625
C   -1.27795610040136     -7.77290438466689     -0.00366491325785
C   2.40944432072629     -7.11402201200282     -0.00081701968533
C   1.19474993715296     -7.78618536556242     -0.00296931056689
C   4.84762105249800     -7.13126211057943      0.00168979497423
C   3.66847160587561     -7.80378799294376     -0.00065863938960
H   -5.86994035041618     -7.61383059804164      0.00215798365757
H   5.78824962538815     -7.67633218931421      0.00281691445618
H   -3.75352693944918     -8.85107156923607     -0.00353718114765
H   -1.28430440589466     -8.86087539249706     -0.00809229711623
H   1.18922157469537     -8.87416062058945     -0.00706194725726
H   3.65854661482387     -8.89086063405326     -0.00231318081200

    units angstrom      # Angstroms are the default
    no_reorient         # Geometry fixed, default
    symmetry c1         # C1 symmetry, default
}

set {
    scf_type DF         # Density fitting, faster than exact integrals
    freeze_core True    # Freeze core electrons
    basis jun-cc-pVDZ   # Jun-cc-pVDZ basis set, recommended for sSAPT0 in https://doi.org/10.1063/1.4867135
}

energy('ssapt0')        # Compute sSAPT0 energy, includes also SAPT0
--------------------------------------------------------------------------

  //              Dimer HF             //
    Molecular point group: c1
  Charge       = 1
  Multiplicity = 1
  Basis Set: JUN-CC-PVDZ
    Blend: JUN-CC-PVDZ
  Basis Set: (JUN-CC-PVDZ AUX)
    Blend: JUN-CC-PVDZ-JKFIT
  @DF-RHF Final Energy: -3953.64570798665272
    Total Energy =                      -3953.6457079866522690
 Dipole X            :         -0.0020983            0.0004804           -0.0016179
 Dipole Y            :         -0.0492825            0.0561130            0.0068305
 Dipole Z            :         32.4729635          -44.2701202          -11.7971567
 Magnitude           :                                                   11.7971588
  //            Monomer A HF           //
    Molecular point group: c1
  Multiplicity = 1
  Basis Set: JUN-CC-PVDZ
    Blend: JUN-CC-PVDZ
  Basis Set: (JUN-CC-PVDZ AUX)
    Blend: JUN-CC-PVDZ-JKFIT
  @DF-RHF Final Energy:  -303.29722222553710
    Total Energy =                       -303.2972222255370980
  //            Monomer B HF           //
    Molecular point group: c1

    Geometry (in Angstrom), charge = 0, multiplicity = 1:

       Center              X                  Y                   Z               Mass
    ------------   -----------------  -----------------  -----------------  -----------------
      Gh(C)           0.680062820275    -0.008027535675    -8.236493483346    12.000000000000
      Gh(C)          -0.680508179725    -0.005999535675    -8.236109483346    12.000000000000
      Gh(N)          -1.085639179725    -0.005001535675    -6.917785483346    14.003074004430
      Gh(C)           0.000103820275    -0.001725535675    -6.136384483346    12.000000000000
      Gh(C)          -2.477369179725     0.044404464325    -6.449806483346    12.000000000000
      Gh(N)           1.085217820275    -0.005001535675    -6.917785483346    14.003074004430
      Gh(H)           1.385141820275    -0.015855535675    -9.053932483346     1.007825032230
      Gh(H)          -1.385306179725    -0.006189535675    -9.053778483346     1.007825032230
      Gh(H)          -0.000013179725     0.000021464325    -5.055295483346     1.007825032230
      Gh(C)           2.478112820275    -0.021893535675    -6.452687483346    12.000000000000
      Gh(H)           2.490587820275     0.005451464325    -5.362434483346     1.007825032230
      Gh(H)           2.967023820275    -0.935339535675    -6.799863483346     1.007825032230
      Gh(H)           3.001423820275     0.853589464325    -6.844159483346     1.007825032230
      Gh(H)          -2.857363179725     1.066475464325    -6.529765483346     1.007825032230
      Gh(H)          -3.082683179725    -0.625679535675    -7.062870483346     1.007825032230
      Gh(H)          -2.518132179725    -0.282579535675    -5.409858483346     1.007825032230
         C           -3.668445443746     7.803766634408     0.581335557989    12.000000000000
         C           -4.847602899072     7.131256295665     0.578968983057    12.000000000000
         C           -4.894963478901     5.696344867857     0.578396071958    12.000000000000
         C           -3.653744858499     4.980744805284     0.586056513688    12.000000000000
         C           -2.409429301220     7.113995501000     0.581529900249    12.000000000000
         C           -2.425481523830     5.681136415228     0.574525011379    12.000000000000
         C           -1.194748196161     7.786158658634     0.583002080791    12.000000000000
         C            0.037954849212     7.099436110082     0.580831376486    12.000000000000
         C            0.030328407694     5.669504024030     0.575347991571    12.000000000000
         C           -1.200988687630     4.969284812240     0.584317725504    12.000000000000
         C            1.277953646089     7.772873907520     0.582207225047    12.000000000000
         C            2.485353904999     7.087711349563     0.579932737142    12.000000000000
         C            2.486124505192     5.654785274566     0.572994988154    12.000000000000
         C            1.254078739919     4.956092577989     0.584622929743    12.000000000000
         C            3.751710411681     7.763926615305     0.580059588522    12.000000000000
         C            4.923561876460     7.078795241315     0.578003107815    12.000000000000
         C            4.955603091600     5.643461927694     0.577842695007    12.000000000000
         C            3.706797354479     4.941224672658     0.582934255177    12.000000000000
         H           -3.658525317484     8.890841883460     0.583020546239     1.007825032230
         H           -1.189217509482     8.874135551685     0.586973957232     1.007825032230
         H            1.284290059161     8.860847899813     0.586366049188     1.007825032230
         H            3.753537907074     8.851049743297     0.581582112838     1.007825032230
         H            5.869954523482     7.613809298981     0.577077740772     1.007825032230
         H           -5.788235887228     7.676316677259     0.577409135701     1.007825032230
         C           -6.091978138422     4.993274477968     0.576523831467    12.000000000000
         C           -6.128665660043     3.582594633123     0.577725008496    12.000000000000
         C           -3.664583919771     3.564196644069     0.574799913879    12.000000000000
         C           -4.894302384424     2.861095240226     0.583968898864    12.000000000000
         C           -2.437339174623     2.847626121410     0.586631692415    12.000000000000
         C           -1.209232037322     3.547901399303     0.572952665623    12.000000000000
         C            1.247137392437     3.534695215755     0.572144059218    12.000000000000
         C            0.015171859844     2.833126303630     0.583828242443    12.000000000000
         C            2.467640992715     2.821304441580     0.583928300566    12.000000000000
         C            3.702545294854     3.524674618749     0.570440339724    12.000000000000
         C            6.144976206658     4.927586830457     0.576609249796    12.000000000000
         C            6.166584179136     3.516598940267     0.578775803233    12.000000000000
         C            4.924605778734     2.808422389679     0.585314549470    12.000000000000
         H            7.089901329916     5.466902230548     0.572847368946     1.007825032230
         H           -7.031045930827     5.542702417183     0.572290616516     1.007825032230
         C           -7.339702220848     2.858425998905     0.576097841055    12.000000000000
         C           -7.364886137784     1.470337835908     0.577863379182    12.000000000000
         C           -4.903508788672     1.444441276485     0.573147114990    12.000000000000
         C           -6.132261332336     0.739953821379     0.585437158973    12.000000000000
         C           -3.676878980242     0.726711606998     0.583774831390    12.000000000000
         C           -2.445660765791     1.429655597587     0.573465121189    12.000000000000
         C           -1.223604861027     0.715338965960     0.584894385720    12.000000000000
         C            0.007633689588     1.417397613563     0.583360039438    12.000000000000
         C            1.231215628021     0.702131154912     0.564533453781    12.000000000000
         C            2.460816920806     1.403306500451     0.584037962672    12.000000000000
         C            3.684426074471     0.687212892537     0.583209176395    12.000000000000
         C            4.918704721813     1.391749025514     0.570807354760    12.000000000000
         C            7.369797898236     2.779496667509     0.577015383440    12.000000000000
         C            7.380158486396     1.391231972180     0.578562066286    12.000000000000
         C            6.139795359397     0.674133087526     0.584890408097    12.000000000000
         H           -8.279194979072     3.407132505449     0.571800288933     1.007825032230
         H            8.315109291754     3.318132560949     0.572804807641     1.007825032230
         C           -8.591760117307     0.724847017370     0.578203806800    12.000000000000
         C           -8.599028783429    -0.632625341904     0.580326931383    12.000000000000
         C           -6.139817318844    -0.674122172829     0.573337590047    12.000000000000
         C           -7.380188291863    -1.391251725257     0.580753651589    12.000000000000
         C           -4.918688659982    -1.391740553705     0.585678088197    12.000000000000
         C           -3.684442475410    -0.687222851411     0.574645848132    12.000000000000
         C           -2.460821219973    -1.403330714500     0.585188934322    12.000000000000
         C           -1.231166192046    -0.702159400556     0.573068555530    12.000000000000
         C           -0.007573805113    -1.417404385086     0.580525079833    12.000000000000
         C            1.223643536163    -0.715260912939     0.590530701782    12.000000000000
         C            2.445666469606    -1.429628824682     0.578780689022    12.000000000000
         C            3.676862523121    -0.726692967231     0.574640104628    12.000000000000
         C            6.132244666694    -0.739964375525     0.573112130415    12.000000000000
         C            4.903514965779    -1.444443056216     0.586953204955    12.000000000000
         C            8.599010668965     0.632618330993     0.578424182430    12.000000000000
         C            8.591741308375    -0.724836402868     0.580160562691    12.000000000000
         C            7.364858584664    -1.470318201281     0.579930385998    12.000000000000
         H           -9.528310151544     1.276861913518     0.576733879836     1.007825032230
         H            9.541406794881     1.174586952770     0.577372150168     1.007825032230
         C           -7.369842089494    -2.779530681609     0.582561860011    12.000000000000
         C           -4.924603288776    -2.808422793016     0.574830227574    12.000000000000
         C           -6.166626675393    -3.516637728500     0.581132067733    12.000000000000
         C           -3.702514539430    -3.524667084795     0.585154296760    12.000000000000
         C           -2.467651164839    -2.821311498479     0.573109658404    12.000000000000
         C           -0.015137653833    -2.833127181075     0.573391246913    12.000000000000
         C           -1.247126020952    -3.534717711238     0.584955200321    12.000000000000
         C            1.209240889918    -3.547900214319     0.587494230112    12.000000000000
         C            2.437331842429    -2.847627273850     0.573354471801    12.000000000000
         C            4.894298164045    -2.861108503961     0.574175211873    12.000000000000
         C            3.664611075316    -3.564205381207     0.587054631813    12.000000000000
         C            6.128634835020    -3.582569593393     0.580400473771    12.000000000000
         C            7.339668484970    -2.858398843045     0.581915699852    12.000000000000
         H           -9.541453290984    -1.174549002339     0.581696347556     1.007825032230
         H            9.528257688346    -1.276904609579     0.581410370452     1.007825032230
         H           -8.315169223574    -3.318135388887     0.586734088541     1.007825032230
         H            8.279150962767    -3.407126325569     0.586255255835     1.007825032230
         C           -6.144998368428    -4.927632808458     0.582458065794    12.000000000000
         C           -3.706787527723    -4.941247249792     0.572637097706    12.000000000000
         C           -4.955594237727    -5.643479509169     0.580604232351    12.000000000000
         C           -2.486125505952    -5.654771110084     0.585576768750    12.000000000000
         C           -1.254062515205    -4.956107585676     0.574401162764    12.000000000000
         C            1.201008394143    -4.969265923868     0.575582287022    12.000000000000
         C           -0.030340854139    -5.669505838814     0.583425486686    12.000000000000
         C            3.653745921603    -4.980729311090     0.576340286770    12.000000000000
         C            2.425488516150    -5.681160171202     0.585717217322    12.000000000000
         C            6.091961438086    -4.993243499062     0.582694700444    12.000000000000
         C            4.894972264885    -5.696333956633     0.581458504614    12.000000000000
         H           -7.089896567766    -5.466985377914     0.586860827475     1.007825032230
         H            7.031051029475    -5.542644072008     0.586274480208     1.007825032230
         C           -4.923549501924    -7.078806635352     0.580049463446    12.000000000000
         C           -2.485346267963    -7.087713613604     0.577539571010    12.000000000000
         C           -3.751690071504    -7.763932693311     0.577734249935    12.000000000000
         C           -0.037953136713    -7.099450410144     0.577755296157    12.000000000000
         C           -1.277960280127    -7.772889920342     0.575770603396    12.000000000000
         C            2.409440141001    -7.114007547678     0.578618496968    12.000000000000
         C            1.194745757428    -7.786170901237     0.576466206087    12.000000000000
         C            4.847616872773    -7.131247646254     0.581125311628    12.000000000000
         C            3.668467426150    -7.803773528619     0.578776877264    12.000000000000
         H           -5.869944530142    -7.613816133717     0.581593500311     1.007825032230
         H            5.788245445663    -7.676317724989     0.582252431110     1.007825032230
         H           -3.753531119175    -8.851057104911     0.575898335506     1.007825032230
         H           -1.284308585620    -8.860860928172     0.571343219537     1.007825032230
         H            1.189217394970    -8.874146156264     0.572373569396     1.007825032230
         H            3.658542435098    -8.890846169728     0.577122335842     1.007825032230

  Charge       = 0
  Multiplicity = 1
  Basis Set: JUN-CC-PVDZ
    Blend: JUN-CC-PVDZ
  Basis Set: (JUN-CC-PVDZ AUX)
    Blend: JUN-CC-PVDZ-JKFIT

    Orbital Energies [Eh]
    ---------------------

    Doubly Occupied:

       1A    -11.264047     2A    -11.263733     3A    -11.263730
       4A    -11.263390     5A    -11.263387     6A    -11.263352
       7A    -11.263195     8A    -11.263168     9A    -11.263167
      10A    -11.263009    11A    -11.262850    12A    -11.262845
      13A    -11.262367    14A    -11.262364    15A    -11.262290
      16A    -11.262290    17A    -11.262239    18A    -11.262204
      19A    -11.262159    20A    -11.262121    21A    -11.262119
      22A    -11.261966    23A    -11.261961    24A    -11.261843
      25A    -11.261829    26A    -11.261814    27A    -11.261810
      28A    -11.261763    29A    -11.261755    30A    -11.261682
      31A    -11.261656    32A    -11.261652    33A    -11.261626
      34A    -11.261625    35A    -11.261604    36A    -11.261556
      37A    -11.261418    38A    -11.261407    39A    -11.261401
      40A    -11.261394    41A    -11.261389    42A    -11.261380
      43A    -11.261376    44A    -11.261361    45A    -11.261357
      46A    -11.261334    47A    -11.261330    48A    -11.261326
      49A    -11.261171    50A    -11.261140    51A    -11.261137
      52A    -11.261057    53A    -11.261055    54A    -11.260984
      55A    -11.260019    56A    -11.260006    57A    -11.260003
      58A    -11.259974    59A    -11.259972    60A    -11.259956
      61A    -11.259396    62A    -11.259371    63A    -11.259368
      64A    -11.259317    65A    -11.259313    66A    -11.259285
      67A    -11.259023    68A    -11.259006    69A    -11.259003
      70A    -11.258976    71A    -11.258974    72A    -11.258962
      73A    -11.254593    74A    -11.254592    75A    -11.254589
      76A    -11.254588    77A    -11.254582    78A    -11.254579
      79A    -11.253743    80A    -11.253742    81A    -11.253739
      82A    -11.253738    83A    -11.253735    84A    -11.253729
      85A    -11.253659    86A    -11.253657    87A    -11.253655
      88A    -11.253653    89A    -11.253651    90A    -11.253645
      91A    -11.253121    92A    -11.253119    93A    -11.253117
      94A    -11.253116    95A    -11.253110    96A    -11.253107
      97A     -1.254137    98A     -1.239145    99A     -1.239144
     100A     -1.220589   101A     -1.220584   102A     -1.215611
     103A     -1.201150   104A     -1.195719   105A     -1.188303
     106A     -1.188300   107A     -1.173869   108A     -1.173866
     109A     -1.155777   110A     -1.155773   111A     -1.152881
     112A     -1.144822   113A     -1.144820   114A     -1.128701
     115A     -1.114859   116A     -1.113264   117A     -1.112642
     118A     -1.112627   119A     -1.111713   120A     -1.088561
     121A     -1.088547   122A     -1.077060   123A     -1.077059
     124A     -1.067756   125A     -1.067725   126A     -1.065126
     127A     -1.046922   128A     -1.046914   129A     -1.040610
     130A     -1.038833   131A     -1.038832   132A     -1.025393
     133A     -1.021563   134A     -1.021512   135A     -1.007293
     136A     -1.006937   137A     -1.003912   138A     -1.000636
     139A     -1.000587   140A     -0.991168   141A     -0.971124
     142A     -0.971076   143A     -0.955992   144A     -0.955937
     145A     -0.905763   146A     -0.905722   147A     -0.905640
     148A     -0.905600   149A     -0.904519   150A     -0.892534
     151A     -0.892475   152A     -0.890518   153A     -0.890462
     154A     -0.889595   155A     -0.872322   156A     -0.869136
     157A     -0.851651   158A     -0.848014   159A     -0.847993
     160A     -0.845750   161A     -0.843156   162A     -0.834685
     163A     -0.834673   164A     -0.828215   165A     -0.828210
     166A     -0.784675   167A     -0.784664   168A     -0.783801
     169A     -0.783775   170A     -0.782421   171A     -0.782401
     172A     -0.782184   173A     -0.767111   174A     -0.760956
     175A     -0.750731   176A     -0.733588   177A     -0.727193
     178A     -0.727178   179A     -0.725217   180A     -0.724660
     181A     -0.724641   182A     -0.718659   183A     -0.713922
     184A     -0.713916   185A     -0.699696   186A     -0.699682
     187A     -0.686292   188A     -0.686062   189A     -0.686059
     190A     -0.682284   191A     -0.682274   192A     -0.678916
     193A     -0.653747   194A     -0.650996   195A     -0.650965
     196A     -0.649968   197A     -0.649953   198A     -0.649669
     199A     -0.641089   200A     -0.641060   201A     -0.640194
     202A     -0.639259   203A     -0.636162   204A     -0.636135
     205A     -0.629264   206A     -0.617674   207A     -0.615403
     208A     -0.615383   209A     -0.608915   210A     -0.608908
     211A     -0.599180   212A     -0.599145   213A     -0.598872
     214A     -0.598745   215A     -0.598721   216A     -0.598196
     217A     -0.595170   218A     -0.595158   219A     -0.594841
     220A     -0.594401   221A     -0.592088   222A     -0.592085
     223A     -0.587557   224A     -0.577878   225A     -0.577867
     226A     -0.575731   227A     -0.575730   228A     -0.573490
     229A     -0.569579   230A     -0.568295   231A     -0.568271
     232A     -0.566878   233A     -0.566868   234A     -0.560997
     235A     -0.558857   236A     -0.558836   237A     -0.558513
     238A     -0.554489   239A     -0.550628   240A     -0.547556
     241A     -0.544337   242A     -0.535033   243A     -0.535006
     244A     -0.533652   245A     -0.533630   246A     -0.528180
     247A     -0.528164   248A     -0.527954   249A     -0.517314
     250A     -0.517280   251A     -0.515423   252A     -0.515417
     253A     -0.509742   254A     -0.509727   255A     -0.498137
     256A     -0.496569   257A     -0.496542   258A     -0.493841
     259A     -0.493829   260A     -0.489477   261A     -0.481551
     262A     -0.477486   263A     -0.477483   264A     -0.474103
     265A     -0.469571   266A     -0.466648   267A     -0.466644
     268A     -0.458874   269A     -0.446857   270A     -0.446797
     271A     -0.441097   272A     -0.440825   273A     -0.440799
     274A     -0.434754   275A     -0.433971   276A     -0.407446
     277A     -0.407422   278A     -0.386483   279A     -0.386434
     280A     -0.385795   281A     -0.385794   282A     -0.383827
     283A     -0.354397   284A     -0.354381   285A     -0.350735
     286A     -0.338165   287A     -0.335664   288A     -0.335597
     289A     -0.332778   290A     -0.332772   291A     -0.307162
     292A     -0.302023   293A     -0.301962   294A     -0.300911
     295A     -0.286240   296A     -0.256526   297A     -0.253574
     298A     -0.253523   299A     -0.204333   300A     -0.204245

  @DF-RHF Final Energy: -3650.33773424513447

   => Energetics <=

    Nuclear Repulsion Energy =          15611.4211649754306563
    One-Electron Energy =              -36072.0798302809052984
    Two-Electron Energy =               16810.3209310603415361
    Total Energy =                      -3650.3377342451349250
 Dipole X            :         -0.0009253            0.0002112           -0.0007141
 Dipole Y            :          0.0011315           -0.0013774           -0.0002459
 Dipole Z            :       -656.9841432          656.9880522            0.0039090
 Magnitude           :                                                    0.0039813

    SAPT Results
  --------------------------------------------------------------------------------------------------------
    Electrostatics                 -7.88393115 [mEh]      -4.94724149 [kcal/mol]     -20.69925839 [kJ/mol]
      Elst10,r                     -7.88393115 [mEh]      -4.94724149 [kcal/mol]     -20.69925839 [kJ/mol]

    Exchange                       -0.00021815 [mEh]      -0.00013689 [kcal/mol]      -0.00057275 [kJ/mol]
      Exch10                       -0.00021815 [mEh]      -0.00013689 [kcal/mol]      -0.00057275 [kJ/mol]
      Exch10(S^2)                  -0.00021815 [mEh]      -0.00013689 [kcal/mol]      -0.00057275 [kJ/mol]

    Induction                      -2.86736668 [mEh]      -1.79929976 [kcal/mol]      -7.52827018 [kJ/mol]
      Ind20,r                      -2.82161155 [mEh]      -1.77058798 [kcal/mol]      -7.40814012 [kJ/mol]
      Exch-Ind20,r                  0.00031698 [mEh]       0.00019891 [kcal/mol]       0.00083224 [kJ/mol]
      delta HF,r (2)               -0.04607211 [mEh]      -0.02891068 [kcal/mol]      -0.12096230 [kJ/mol]

    Dispersion                     -1.25307840 [mEh]      -0.78631857 [kcal/mol]      -3.28995688 [kJ/mol]
      Disp20                       -1.25318121 [mEh]      -0.78638308 [kcal/mol]      -3.29022682 [kJ/mol]
      Exch-Disp20                   0.00010282 [mEh]       0.00006452 [kcal/mol]       0.00026995 [kJ/mol]
      Disp20 (SS)                  -0.62659061 [mEh]      -0.39319154 [kcal/mol]      -1.64511341 [kJ/mol]
      Disp20 (OS)                  -0.62659061 [mEh]      -0.39319154 [kcal/mol]      -1.64511341 [kJ/mol]
      Exch-Disp20 (SS)              0.00007794 [mEh]       0.00004891 [kcal/mol]       0.00020464 [kJ/mol]
      Exch-Disp20 (OS)              0.00002487 [mEh]       0.00001561 [kcal/mol]       0.00006530 [kJ/mol]

  Total HF                        -10.75151598 [mEh]      -6.74667814 [kcal/mol]     -28.22810132 [kJ/mol]
  Total SAPT0                     -12.00459438 [mEh]      -7.53299670 [kcal/mol]     -31.51805820 [kJ/mol]

  Special recipe for scaled SAPT0 (see Manual):
    Electrostatics sSAPT0          -7.88393115 [mEh]      -4.94724149 [kcal/mol]     -20.69925839 [kJ/mol]
    Exchange sSAPT0                -0.00021815 [mEh]      -0.00013689 [kcal/mol]      -0.00057275 [kJ/mol]
    Induction sSAPT0               -2.86736668 [mEh]      -1.79929976 [kcal/mol]      -7.52827018 [kJ/mol]
    Dispersion sSAPT0              -1.25307840 [mEh]      -0.78631857 [kcal/mol]      -3.28995688 [kJ/mol]
  Total sSAPT0                    -12.00459438 [mEh]      -7.53299670 [kcal/mol]     -31.51805820 [kJ/mol]
  --------------------------------------------------------------------------------------------------------

*** Psi4 exiting successfully. Buy a developer a beer!
