                               Psi4 1.9 release

  ==> Input File <==

--------------------------------------------------------------------------
memory 32 GB # how much memory is available ! Depends on the nodes/cores !

molecule dimer {
# monomer A
+1 1    # Charge and multiplicity
C  0.680067 -0.008042 -6.215929
C -0.680504 -0.006014 -6.215545
N -1.085635 -0.005016 -4.897221
C  0.000108 -0.001740 -4.115820
C -2.477365  0.044390 -4.429242
N  1.085222 -0.005016 -4.897221
H  1.385146 -0.015870 -7.033368
H -1.385302 -0.006204 -7.033214
H -0.000009  0.000007 -3.034731
C  2.478117 -0.021908 -4.432123
H  2.490592  0.005437 -3.341870
H  2.967028 -0.935354 -4.779299
H  3.001428  0.853575 -4.823595
H -2.857359  1.066461 -4.509201
H -3.082679 -0.625694 -5.042306
H -2.518128 -0.282594 -3.389294
--
# monomer B
0 1     # Charge and multiplicity
C   1.22531237526482      0.70753866091955      0.00613762728373
C   1.22532433589282     -0.70753852257020     -0.00619318228664
C   -0.00000567409046      1.41496628609039     -0.00672680580738
C   2.45644923379077      1.41832825917820      0.00902448468363
C   0.00001130712078     -1.41497612663474      0.00347275151708
C   -1.22530046906674      0.70754574598412      0.00838914760619
C   2.45643823516184     -1.41832293188077     -0.00843833914343
C   -0.00000085313587      2.83680140328112     -0.00913035594137
C   3.68182717731192      0.70931832800114     -0.00808954934571
C   2.45512052870677      2.83422403348893     -0.00819210630633
C   3.68182158506039     -0.70933346742900      0.00798293467272
C   -1.22531311884624     -0.70752714354401     -0.00512042085974
C   1.22670006104402      3.54346985599427      0.00816696660346
C   0.00000526469929     -2.83678176723568      0.00832091913869
C   -2.45643555300670      1.41831729028492      0.00842454345199
C   2.45512389762097     -2.83422965658853      0.00783102630520
C   -1.22671388474763      3.54346943575023      0.00827029982280
C   4.91451777504333      1.42717324448953     -0.00160886631602
C   3.69315067131765      3.54279566454522     -0.00155906667985
C   -2.45643712022637     -1.41831290883911     -0.00846337726810
C   1.22670532178455     -3.54347386990643     -0.00780316414624
C   -2.45512491866593      2.83421703463423     -0.00818572995999
C   4.91452486062398     -1.42718653794377      0.00136387641845
C   1.22142509354026      4.97013443726031      0.00150231067809
C   4.89300870916237      2.82518837202648     -0.00039219795739
C   -1.22669652864725     -3.54347062507680     -0.00753595973677
C   -3.68181849668397      0.70932533873199     -0.00807686886569
C   3.69314758099218     -3.54280096939050      0.00148176697923
C   -1.22143177215231      4.97012866986289      0.00168580605083
C   6.13477145276790      0.68054831910577     -0.00083909176631
C   3.65678936045204      4.97295361556775     -0.00065042889723
C   -2.45512642789169     -2.83421472106065      0.00758666850712
C   -3.68181869921921     -0.70932533146830      0.00810055625144
C   4.89301309775526     -2.82519973363176      0.00021895393805
C   -0.00000059327114      5.65044773803267      0.00045449734393
C   6.13477559217374     -0.68055448207492      0.00042622874941
C   2.47813196269732      5.65357712333155      0.00063835075260
C   1.22142288457925     -4.97012668293268     -0.00129718634452
C   -3.69316190412301      3.54279732619245     -0.00139355922051
C   -1.22142804110313     -4.97011793159564     -0.00140994817719
C   -4.91452132810043      1.42717581899491     -0.00153192130862
C   3.65678749952045     -4.97295485423912      0.00080007163680
C   -2.47813805026426      5.65357479452875      0.00092287576113
C   -3.69314125872231     -3.54278984697859      0.00136564082345
C   -4.91451200321153     -1.42718062802730      0.00139857359209
C   -0.00000552908399     -5.65043791501335      0.00005899322272
C   -4.89302000425900      2.82518897091939     -0.00040227981744
C   2.47812647313991     -5.65357317188818     -0.00029052915548
C   -3.65679823041642      4.97295655404175     -0.00047374852278
C   -4.89299899901461     -2.82519139505969      0.00006491824035
C   -2.47812801824129     -5.65356579800621     -0.00056571680280
C   -6.13477002348955      0.68054913825639     -0.00086464346868
C   -3.65678835334731     -4.97294365097028      0.00058578382008
C   -6.13476456307132     -0.68055354348201      0.00040575295444
H   5.83528897565761      3.36927626695423      0.00396712770529
H   7.07385965258860      1.22821762089947     -0.00037744837300
H   4.60066374401555      5.51238117445323     -0.00014522814529
H   5.83528386714679     -3.36930568472863     -0.00423551337640
H   -0.00001167146422      6.73853104613662     -0.00389474766392
H   7.07386165167227     -1.22822657074368     -0.00008250934481
H   2.47331421164041      6.74068466339473      0.00017162982210
H   4.60066897122302     -5.51237575717576      0.00039007446835
H   -2.47331820069565      6.74068209160650      0.00047297644710
H   -0.00000978838621     -6.73852780445195      0.00458867820736
H   -5.83530143450167      3.36927132229595      0.00410314985360
H   2.47330840367253     -6.74068500242887      0.00027980126949
H   -4.60067436136587      5.51237839860371      0.00002010017831
H   -5.83527902699321     -3.36928859177951     -0.00451481925734
H   -2.47329986759855     -6.74067870613986     -0.00016951527498
H   -7.07385728692578      1.22822084484047     -0.00046143985387
H   -4.60067330624313     -5.51236229778631      0.00021776644566
H   -7.07385645456741     -1.22822025997701     -0.00017736581114

    units angstrom      # Angstroms are the default
    no_reorient         # Geometry fixed, default
    symmetry c1         # C1 symmetry, default
}

set {
    scf_type DF         # Density fitting, faster than exact integrals
    freeze_core True    # Freeze core electrons
    basis jun-cc-pVDZ   # Jun-cc-pVDZ basis set, recommended for sSAPT0 in https://doi.org/10.1063/1.4867135
}

energy('ssapt0')        # Compute sSAPT0 energy, includes also SAPT0
--------------------------------------------------------------------------

  //              Dimer HF             //
    Molecular point group: c1
  Charge       = 1
  Multiplicity = 1
  Basis Set: JUN-CC-PVDZ
    Blend: JUN-CC-PVDZ
  Basis Set: (JUN-CC-PVDZ AUX)
    Blend: JUN-CC-PVDZ-JKFIT
  @DF-RHF Final Energy: -2359.21136535252617
    Total Energy =                      -2359.2113653525266272
 Dipole X            :         -0.0017962            0.0006313           -0.0011649
 Dipole Y            :         -0.0505433            0.0560211            0.0054778
 Dipole Z            :         17.7744253          -24.1765973           -6.4021720
 Magnitude           :                                                    6.4021745
  //            Monomer A HF           //
    Molecular point group: c1
  Multiplicity = 1
  Basis Set: JUN-CC-PVDZ
    Blend: JUN-CC-PVDZ
  Basis Set: (JUN-CC-PVDZ AUX)
    Blend: JUN-CC-PVDZ-JKFIT
  @DF-RHF Final Energy:  -303.29778375079866
    Total Energy =                       -303.2977837507986578
  //            Monomer B HF           //
    Molecular point group: c1

    Geometry (in Angstrom), charge = 0, multiplicity = 1:

       Center              X                  Y                   Z               Mass
    ------------   -----------------  -----------------  -----------------  -----------------
      Gh(C)           0.680066520158    -0.008042372515    -5.579961948708    12.000000000000
      Gh(C)          -0.680504479842    -0.006014372515    -5.579577948708    12.000000000000
      Gh(N)          -1.085635479842    -0.005016372515    -4.261253948708    14.003074004430
      Gh(C)           0.000107520158    -0.001740372515    -3.479852948708    12.000000000000
      Gh(C)          -2.477365479842     0.044389627485    -3.793274948708    12.000000000000
      Gh(N)           1.085221520158    -0.005016372515    -4.261253948708    14.003074004430
      Gh(H)           1.385145520158    -0.015870372515    -6.397400948708     1.007825032230
      Gh(H)          -1.385302479842    -0.006204372515    -6.397246948708     1.007825032230
      Gh(H)          -0.000009479842     0.000006627485    -2.398763948708     1.007825032230
      Gh(C)           2.478116520158    -0.021908372515    -3.796155948708    12.000000000000
      Gh(H)           2.490591520158     0.005436627485    -2.705902948708     1.007825032230
      Gh(H)           2.967027520158    -0.935354372515    -4.143331948708     1.007825032230
      Gh(H)           3.001427520158     0.853574627485    -4.187627948708     1.007825032230
      Gh(H)          -2.857359479842     1.066460627485    -3.873233948708     1.007825032230
      Gh(H)          -3.082679479842    -0.625694372515    -4.406338948708     1.007825032230
      Gh(H)          -2.518128479842    -0.282594372515    -2.753326948708     1.007825032230
         C            1.225311895423     0.707538288405     0.642104678576    12.000000000000
         C            1.225323856051    -0.707538895085     0.629773869006    12.000000000000
         C           -0.000006153932     1.414965913575     0.629240245485    12.000000000000
         C            2.456448753949     1.418327886663     0.644991535976    12.000000000000
         C            0.000010827279    -1.414976499150     0.639439802809    12.000000000000
         C           -1.225300948908     0.707545373469     0.644356198898    12.000000000000
         C            2.456437755320    -1.418323304396     0.627528712149    12.000000000000
         C           -0.000001332978     2.836801030766     0.626836695351    12.000000000000
         C            3.681826697470     0.709317955486     0.627877501946    12.000000000000
         C            2.455120048865     2.834223660974     0.627774944986    12.000000000000
         C            3.681821105219    -0.709333839944     0.643949985965    12.000000000000
         C           -1.225313598688    -0.707527516059     0.630846630432    12.000000000000
         C            1.226699581202     3.543469483479     0.644134017896    12.000000000000
         C            0.000004784858    -2.836782139751     0.644287970431    12.000000000000
         C           -2.456436032848     1.418316917770     0.644391594744    12.000000000000
         C            2.455123417779    -2.834230029103     0.643798077597    12.000000000000
         C           -1.226714364589     3.543469063235     0.644237351115    12.000000000000
         C            4.914517295202     1.427172871975     0.634358184976    12.000000000000
         C            3.693150191476     3.542795292030     0.634407984612    12.000000000000
         C           -2.456437600068    -1.418313281354     0.627503674024    12.000000000000
         C            1.226704841943    -3.543474242421     0.628163887146    12.000000000000
         C           -2.455125398508     2.834216662119     0.627781321332    12.000000000000
         C            4.914524380782    -1.427186910459     0.637330927711    12.000000000000
         C            1.221424613699     4.970134064745     0.637469361970    12.000000000000
         C            4.893008229321     2.825187999512     0.635574853335    12.000000000000
         C           -1.226697008489    -3.543470997592     0.628431091555    12.000000000000
         C           -3.681818976526     0.709324966217     0.627890182426    12.000000000000
         C            3.693147101150    -3.542801341905     0.637448818271    12.000000000000
         C           -1.221432251994     4.970128297348     0.637652857343    12.000000000000
         C            6.134770972926     0.680547946591     0.635127959526    12.000000000000
         C            3.656788880610     4.972953243053     0.635316622395    12.000000000000
         C           -2.455126907733    -2.834215093576     0.643553719799    12.000000000000
         C           -3.681819179061    -0.709325703983     0.644067607544    12.000000000000
         C            4.893012617914    -2.825200106147     0.636186005230    12.000000000000
         C           -0.000001073113     5.650447365518     0.636421548636    12.000000000000
         C            6.134775112332    -0.680554854590     0.636393280042    12.000000000000
         C            2.478131482856     5.653576750817     0.636605402045    12.000000000000
         C            1.221422404738    -4.970127055448     0.634669864948    12.000000000000
         C           -3.693162383965     3.542796953677     0.634573492072    12.000000000000
         C           -1.221428520945    -4.970118304111     0.634557103115    12.000000000000
         C           -4.914521807942     1.427175446480     0.634435129984    12.000000000000
         C            3.656787019679    -4.972955226754     0.636767122929    12.000000000000
         C           -2.478138530106     5.653574422014     0.636889927053    12.000000000000
         C           -3.693141738564    -3.542790219494     0.637332692116    12.000000000000
         C           -4.914512483053    -1.427181000542     0.637365624884    12.000000000000
         C           -0.000006008926    -5.650438287528     0.636026044515    12.000000000000
         C           -4.893020484101     2.825188598404     0.635564771475    12.000000000000
         C            2.478125993298    -5.653573544403     0.635676522137    12.000000000000
         C           -3.656798710258     4.972956181527     0.635493302769    12.000000000000
         C           -4.892999478856    -2.825191767575     0.636031969532    12.000000000000
         C           -2.478128498083    -5.653566170521     0.635401334489    12.000000000000
         C           -6.134770503331     0.680548765741     0.635102407823    12.000000000000
         C           -3.656788833189    -4.972944023485     0.636552835112    12.000000000000
         C           -6.134765042913    -0.680553915997     0.636372804247    12.000000000000
         H            5.835288495816     3.369275894439     0.639934178997     1.007825032230
         H            7.073859172747     1.228217248385     0.635589602919     1.007825032230
         H            4.600663264174     5.512380801938     0.635821823147     1.007825032230
         H            5.835283387305    -3.369306057244     0.631731537916     1.007825032230
         H           -0.000012151306     6.738530673622     0.632072303628     1.007825032230
         H            7.073861171831    -1.228226943259     0.635884541947     1.007825032230
         H            2.473313731799     6.740684290880     0.636138681114     1.007825032230
         H            4.600668491381    -5.512376129691     0.636357125760     1.007825032230
         H           -2.473318680537     6.740681719092     0.636440027739     1.007825032230
         H           -0.000010268228    -6.738528176967     0.640555729500     1.007825032230
         H           -5.835301914343     3.369270949781     0.640070201146     1.007825032230
         H            2.473307923831    -6.740685374944     0.636246852562     1.007825032230
         H           -4.600674841208     5.512378026089     0.635987151470     1.007825032230
         H           -5.835279506835    -3.369288964294     0.631452232035     1.007825032230
         H           -2.473300347440    -6.740679078655     0.635797536017     1.007825032230
         H           -7.073857766768     1.228220472326     0.635505611438     1.007825032230
         H           -4.600673786085    -5.512362670301     0.636184817738     1.007825032230
         H           -7.073856934409    -1.228220632492     0.635789685481     1.007825032230

  Charge       = 0
  Multiplicity = 1
  Basis Set: JUN-CC-PVDZ
    Blend: JUN-CC-PVDZ
  Basis Set: (JUN-CC-PVDZ AUX)
    Blend: JUN-CC-PVDZ-JKFIT

    Orbital Energies [Eh]
    ---------------------

    Doubly Occupied:

       1A    -11.260592     2A    -11.260170     3A    -11.260113
       4A    -11.259432     5A    -11.259384     6A    -11.259228
       7A    -11.259005     8A    -11.258948     9A    -11.258907
      10A    -11.258601    11A    -11.258591    12A    -11.258501
      13A    -11.258442    14A    -11.258435    15A    -11.258433
      16A    -11.258402    17A    -11.258393    18A    -11.258376
      19A    -11.258370    20A    -11.258362    21A    -11.258359
      22A    -11.258296    23A    -11.258272    24A    -11.258019
      25A    -11.257314    26A    -11.257276    27A    -11.257222
      28A    -11.257133    29A    -11.257087    30A    -11.257024
      31A    -11.256417    32A    -11.256374    33A    -11.256305
      34A    -11.256245    35A    -11.256196    36A    -11.256169
      37A    -11.252250    38A    -11.252250    39A    -11.252248
      40A    -11.252247    41A    -11.252235    42A    -11.252234
      43A    -11.251355    44A    -11.251354    45A    -11.251350
      46A    -11.251346    47A    -11.251343    48A    -11.251340
      49A    -11.250812    50A    -11.250812    51A    -11.250809
      52A    -11.250808    53A    -11.250796    54A    -11.250795
      55A     -1.243985    56A     -1.219752    57A     -1.219732
      58A     -1.189480    59A     -1.189465    60A     -1.180869
      61A     -1.157500    62A     -1.148915    63A     -1.135428
      64A     -1.135405    65A     -1.113133    66A     -1.113129
      67A     -1.082363    68A     -1.082351    69A     -1.078530
      70A     -1.065926    71A     -1.065917    72A     -1.039333
      73A     -1.024196    74A     -1.021694    75A     -1.021632
      76A     -1.017667    77A     -1.012742    78A     -0.986954
      79A     -0.986896    80A     -0.961820    81A     -0.961766
      82A     -0.894223    83A     -0.894201    84A     -0.887847
      85A     -0.886097    86A     -0.886052    87A     -0.881315
      88A     -0.881270    89A     -0.861835    90A     -0.837357
      91A     -0.818137    92A     -0.816535    93A     -0.812054
      94A     -0.812053    95A     -0.794629    96A     -0.794615
      97A     -0.746539    98A     -0.744782    99A     -0.733335
     100A     -0.733329   101A     -0.732116   102A     -0.732093
     103A     -0.716421   104A     -0.698915   105A     -0.698884
     106A     -0.693524   107A     -0.693480   108A     -0.661168
     109A     -0.653034   110A     -0.651075   111A     -0.650194
     112A     -0.650184   113A     -0.639302   114A     -0.639277
     115A     -0.629637   116A     -0.627442   117A     -0.627432
     118A     -0.606456   119A     -0.605764   120A     -0.601576
     121A     -0.599681   122A     -0.599616   123A     -0.593555
     124A     -0.591139   125A     -0.591105   126A     -0.585226
     127A     -0.576474   128A     -0.576322   129A     -0.567268
     130A     -0.567246   131A     -0.565878   132A     -0.565865
     133A     -0.558643   134A     -0.554784   135A     -0.554776
     136A     -0.538529   137A     -0.538528   138A     -0.538226
     139A     -0.538164   140A     -0.529645   141A     -0.528167
     142A     -0.522814   143A     -0.522780   144A     -0.500440
     145A     -0.495599   146A     -0.493169   147A     -0.487808
     148A     -0.484990   149A     -0.481677   150A     -0.481675
     151A     -0.470337   152A     -0.470268   153A     -0.450925
     154A     -0.450858   155A     -0.439037   156A     -0.439033
     157A     -0.404743   158A     -0.404676   159A     -0.403359
     160A     -0.375393   161A     -0.375384   162A     -0.349104
     163A     -0.337550   164A     -0.336488   165A     -0.336478
     166A     -0.311056   167A     -0.298079   168A     -0.284297
     169A     -0.284253   170A     -0.224868   171A     -0.224811

  @DF-RHF Final Energy: -2055.89428454027848

   => Energetics <=

    Nuclear Repulsion Energy =           6452.5568002797781446
    One-Electron Energy =              -15636.5014667629748146
    Two-Electron Energy =                7128.0503819429177383
    Total Energy =                      -2055.8942845402780222
 Dipole X            :          0.0000322           -0.0000085            0.0000237
 Dipole Y            :         -0.0001985            0.0000167           -0.0001818
 Dipole Z            :       -411.0096027          411.0153717            0.0057691
 Magnitude           :                                                    0.0057720

    SAPT Results
  --------------------------------------------------------------------------------------------------------
    Electrostatics                -11.92972632 [mEh]      -7.48601629 [kcal/mol]     -31.32149215 [kJ/mol]
      Elst10,r                    -11.92972632 [mEh]      -7.48601629 [kcal/mol]     -31.32149215 [kJ/mol]

    Exchange                        1.29001852 [mEh]       0.80949884 [kcal/mol]       3.38694315 [kJ/mol]
      Exch10                        1.29001852 [mEh]       0.80949884 [kcal/mol]       3.38694315 [kJ/mol]
      Exch10(S^2)                   1.28940930 [mEh]       0.80911655 [kcal/mol]       3.38534365 [kJ/mol]

    Induction                      -8.65735364 [mEh]      -5.43257143 [kcal/mol]     -22.72987885 [kJ/mol]
      Ind20,r                      -8.19447876 [mEh]      -5.14211305 [kcal/mol]     -21.51460102 [kJ/mol]
      Exch-Ind20,r                  0.23821142 [mEh]       0.14947992 [kcal/mol]       0.62542399 [kJ/mol]
      delta HF,r (2)               -0.70108630 [mEh]      -0.43993829 [kcal/mol]      -1.84070183 [kJ/mol]

    Dispersion                     -9.33735328 [mEh]      -5.85927765 [kcal/mol]     -24.51521767 [kJ/mol]
      Disp20                       -9.48715707 [mEh]      -5.95328094 [kcal/mol]     -24.90852745 [kJ/mol]
      Exch-Disp20                   0.14980379 [mEh]       0.09400329 [kcal/mol]       0.39330978 [kJ/mol]
      Disp20 (SS)                  -4.74357853 [mEh]      -2.97664047 [kcal/mol]     -12.45426373 [kJ/mol]
      Disp20 (OS)                  -4.74357853 [mEh]      -2.97664047 [kcal/mol]     -12.45426373 [kJ/mol]
      Exch-Disp20 (SS)              0.09469838 [mEh]       0.05942413 [kcal/mol]       0.24863056 [kJ/mol]
      Exch-Disp20 (OS)              0.05510541 [mEh]       0.03457916 [kcal/mol]       0.14467922 [kJ/mol]

  Total HF                        -19.29706145 [mEh]     -12.10908888 [kcal/mol]     -50.66442785 [kJ/mol]
  Total SAPT0                     -28.63441473 [mEh]     -17.96836652 [kcal/mol]     -75.17964552 [kJ/mol]

  Special recipe for scaled SAPT0 (see Manual):
    Electrostatics sSAPT0         -11.92972632 [mEh]      -7.48601629 [kcal/mol]     -31.32149215 [kJ/mol]
    Exchange sSAPT0                 1.29001852 [mEh]       0.80949884 [kcal/mol]       3.38694315 [kJ/mol]
    Induction sSAPT0               -8.65701583 [mEh]      -5.43235945 [kcal/mol]     -22.72899194 [kJ/mol]
    Dispersion sSAPT0              -9.33714085 [mEh]      -5.85914434 [kcal/mol]     -24.51465991 [kJ/mol]
  Total sSAPT0                    -28.63386449 [mEh]     -17.96802124 [kcal/mol]     -75.17820085 [kJ/mol]
  --------------------------------------------------------------------------------------------------------

*** Psi4 exiting successfully. Buy a developer a beer!
