                               Psi4 1.9 release

  ==> Input File <==

--------------------------------------------------------------------------
memory 80 GB # how much memory is available ! Depends on the nodes/cores !

molecule dimer {
# monomer A
-1 1    # Charge and multiplicity
B -1.977592e-04  2.742729e-04 -2.499966
F  1.123153e-16  1.430594e-17 -1.087181
F  1.147860e+00  6.757812e-01 -2.971107
F  1.191806e-02 -1.332011e+00 -2.970905
F -1.159666e+00  6.560735e-01 -2.970826
--
# monomer B
0 1     # Charge and multiplicity
C   -3.66844126402057      7.80375217008252      0.00190004133558
C   -4.84759871934653      7.13124183134024     -0.00046653359696
C   -4.89495929917518      5.69633040353158     -0.00103944469517
C   -3.65374067877320      4.98073034095895      0.00662099703436
C   -2.40942512149445      7.11398103667468      0.00209438359570
C   -2.42547734410473      5.68112195090346     -0.00491050527438
C   -1.19474401643570      7.78614419430947      0.00356656413763
C   0.03795902893699      7.09942164575698      0.00139585983271
C   0.03033258741920      5.66948955970466     -0.00408752508301
C   -1.20098450790502      4.96927034791531      0.00488220885047
C   1.27795782581485      7.77285944319479      0.00277170839332
C   2.48535808472416      7.08769688523756      0.00049722048857
C   2.48612868491717      5.65477081024076     -0.00644052849921
C   1.25408291964399      4.95607811366431      0.00518741308898
C   3.75171459140595      7.76391215098033      0.00062407186893
C   4.92356605618520      7.07878077698995     -0.00143240883900
C   4.95560727132542      5.64344746336949     -0.00159282164606
C   3.70680153420475      4.94121020833308      0.00349873852374
H   -3.65852113775815      8.89082741913536      0.00358502958574
H   -1.18921332975660      8.87412108735996      0.00753844057883
H   1.28429423888630      8.86083343548850      0.00693053253426
H   3.75354208679975      8.85103527897216      0.00214659618464
H   5.86995870320703      7.61379483465560     -0.00235777588134
H   -5.78823170750226      7.67630221293400     -0.00202638095293
C   -6.09197395869619      4.99326001364347     -0.00291168518608
C   -6.12866148031747      3.58258016879823     -0.00171050815740
C   -3.66457974004527      3.56418217974434     -0.00463560277484
C   -4.89429820469869      2.86108077590057      0.00453338221034
C   -2.43733499489796      2.84761165708481      0.00719617576166
C   -1.20922785759670      3.54788693497833     -0.00648285103018
C   1.24714157216223      3.53468075142962     -0.00729145743546
C   0.01517603956900      2.83311183930540      0.00439272578912
C   2.46764517244071      2.82128997725533      0.00449278391269
C   3.70254947457969      3.52466015442405     -0.00899517692985
C   6.14498038638375      4.92757236613191     -0.00282626685777
C   6.16658835886151      3.51658447594213     -0.00065971342101
C   4.92460995845939      2.80840792535402      0.00587903281610
H   7.08990550964105      5.46688776622306     -0.00658814770723
H   -7.03104175110130      5.54268795285765     -0.00714490013730
C   -7.33969804112295      2.85841153457957     -0.00333767559888
C   -7.36488195805880      1.47032337158330     -0.00157213747140
C   -4.90350460894690      1.44442681216000     -0.00628840166334
C   -6.13225715261081      0.73993935705394      0.00600164231964
C   -3.67687480051673      0.72669714267312      0.00433931473643
C   -2.44565658606518      1.42964113326212     -0.00597039546461
C   -1.22360068130162      0.71532450163492      0.00545886906656
C   0.00763786931376      1.41738314923765      0.00392452278437
C   1.23121980774686      0.70211669058719     -0.01490206287210
C   2.46082110053113      1.40329203612573      0.00460244601878
C   3.68443025419614      0.68719842821222      0.00377365974158
C   4.91870890153864      1.39173456118907     -0.00862816189375
C   7.36980207796101      2.77948220318441     -0.00242013321349
C   7.38016266612146      1.39121750785509     -0.00087345036788
C   6.13979953912259      0.67411862320065      0.00545489144369
H   -8.27919079934664      3.40711804112415     -0.00763522772059
H   8.31511347147953      3.31811809662368     -0.00663070901292
C   -8.59175593758115      0.72483255304480     -0.00123170985383
C   -8.59902460370342     -0.63263980622873      0.00089141472904
C   -6.13981313911873     -0.67413663715361     -0.00609792660607
C   -7.38018411213749     -1.39126618958160      0.00131813493501
C   -4.91868448025621     -1.39175501803000      0.00624257154343
C   -3.68443829568458     -0.68723731573599     -0.00478966852105
C   -2.46081704024768     -1.40334517882457      0.00575341766833
C   -1.23116201232071     -0.70217386488055     -0.00636696112346
C   -0.00756962538737     -1.41741884941102      0.00108956317991
C   1.22364771588843     -0.71527537726392      0.01109518512883
C   2.44567064933149     -1.42964328900682     -0.00065482763106
C   3.67686670284649     -0.72670743155550     -0.00479541202602
C   6.13224884641929     -0.73997883984993     -0.00632338623858
C   4.90351914550401     -1.44445752054090      0.00751768830159
C   8.59901484869081      0.63260386666793     -0.00101133422380
C   8.59174548810050     -0.72485086719319      0.00072504603735
C   7.36486276438985     -1.47033266560598      0.00049486934466
H   -9.52830597181814      1.27684744919284     -0.00270163681798
H   9.54141097460619      1.17457248844457     -0.00206336648518
C   -7.36983790976868     -2.77954514593389      0.00312634335708
C   -4.92459910905015     -2.80843725734101     -0.00460528907921
C   -6.16662249566744     -3.51665219282533      0.00169655107992
C   -3.70251035970491     -3.52468154912026      0.00571878010666
C   -2.46764698511392     -2.82132596280400     -0.00632585824990
C   -0.01513347410770     -2.83314164539971     -0.00604426974092
C   -1.24712184122656     -3.53473217556300      0.00551968366725
C   1.20924506964357     -3.54791467864352      0.00805871345849
C   2.43733602215464     -2.84764173817541     -0.00608104485234
C   4.89430234377080     -2.86112296828604     -0.00526030478103
C   3.66461525504104     -3.56421984553201      0.00761911515957
C   6.12863901474565     -3.58258405771778      0.00096495711699
C   7.33967266469532     -2.85841330737039      0.00248018319869
H   -9.54144911125902     -1.17456346666430      0.00226083090216
H   9.52826186807155     -1.27691907390448      0.00197485379837
H   -8.31516504384864     -3.31814985321231      0.00729857188773
H   8.27915514249207     -3.40714078989363      0.00681973918158
C   -6.14499418870218     -4.92764727278338      0.00302254913999
C   -3.70678334799751     -4.94126171411716     -0.00679841894792
C   -4.95559005800169     -5.64349397349412      0.00116871569699
C   -2.48612132622665     -5.65478557440947      0.00614125209662
C   -1.25405833548005     -4.95612205000132     -0.00503435388927
C   1.20101257386816     -4.96928038819302     -0.00385322963129
C   -0.03033667441341     -5.66952030313900      0.00398997003238
C   3.65375010132847     -4.98074377541453     -0.00309522988330
C   2.42549269587528     -5.68117463552727      0.00628170066869
C   6.09196561781097     -4.99325796338655      0.00325918379042
C   4.89497644461045     -5.69634842095790      0.00202298796027
H   -7.08989238804069     -5.46699984223871      0.00742531082125
H   7.03105520920009     -5.54265853633254      0.00683896355417
C   -4.92354532219813     -7.07882109967734      0.00061394679214
C   -2.48534208823777     -7.08772807792913     -0.00189594564379
C   -3.75168589177895     -7.76394715763627     -0.00170126671874
C   -0.03794895698805     -7.09946487446944     -0.00168022049625
C   -1.27795610040136     -7.77290438466689     -0.00366491325785
C   2.40944432072629     -7.11402201200282     -0.00081701968533
C   1.19474993715296     -7.78618536556242     -0.00296931056689
C   4.84762105249800     -7.13126211057943      0.00168979497423
C   3.66847160587561     -7.80378799294376     -0.00065863938960
H   -5.86994035041618     -7.61383059804164      0.00215798365757
H   5.78824962538815     -7.67633218931421      0.00281691445618
H   -3.75352693944918     -8.85107156923607     -0.00353718114765
H   -1.28430440589466     -8.86087539249706     -0.00809229711623
H   1.18922157469537     -8.87416062058945     -0.00706194725726
H   3.65854661482387     -8.89086063405326     -0.00231318081200

    units angstrom      # Angstroms are the default
    no_reorient         # Geometry fixed, default
    symmetry c1         # C1 symmetry, default
}

set {
    scf_type DF         # Density fitting, faster than exact integrals
    freeze_core True    # Freeze core electrons
    basis jun-cc-pVDZ   # Jun-cc-pVDZ basis set, recommended for sSAPT0 in https://doi.org/10.1063/1.4867135
}

energy('ssapt0')        # Compute sSAPT0 energy, includes also SAPT0
--------------------------------------------------------------------------

  //              Dimer HF             //
    Molecular point group: c1
  Charge       = -1
  Multiplicity = 1
  Basis Set: JUN-CC-PVDZ
    Blend: JUN-CC-PVDZ
  Basis Set: (JUN-CC-PVDZ AUX)
    Blend: JUN-CC-PVDZ-JKFIT
  @DF-RHF Final Energy: -4072.70996826308374
    Total Energy =                      -4072.7099682630832831
 Dipole X            :          0.0002223           -0.0000548            0.0001675
 Dipole Y            :         -0.0002154           -0.0002464           -0.0004617
 Dipole Z            :        -12.5101966           14.8774473            2.3672507
 Magnitude           :                                                    2.3672508
  //            Monomer A HF           //
    Molecular point group: c1
  Multiplicity = 1
  Basis Set: JUN-CC-PVDZ
    Blend: JUN-CC-PVDZ
  Basis Set: (JUN-CC-PVDZ AUX)
    Blend: JUN-CC-PVDZ-JKFIT
  @DF-RHF Final Energy:  -422.77792882888087
    Total Energy =                       -422.7779288288808743
  //            Monomer B HF           //
    Molecular point group: c1

    Geometry (in Angstrom), charge = 0, multiplicity = 1:

       Center              X                  Y                   Z               Mass
    ------------   -----------------  -----------------  -----------------  -----------------
      Gh(B)          -0.000201921932     0.000288800891    -2.327780333630    11.009305360000
      Gh(F)          -0.000004162732     0.000014527991    -0.914995333630    18.998403162730
      Gh(F)           1.147855837268     0.675795727991    -2.798921333630    18.998403162730
      Gh(F)           0.011913897268    -1.331996472009    -2.798719333630    18.998403162730
      Gh(F)          -1.159670162732     0.656088027991    -2.798640333630    18.998403162730
         C           -3.668445426752     7.803766698073     0.174085707706    12.000000000000
         C           -4.847602882078     7.131256359331     0.171719132773    12.000000000000
         C           -4.894963461907     5.696344931522     0.171146221675    12.000000000000
         C           -3.653744841505     4.980744868950     0.178806663405    12.000000000000
         C           -2.409429284226     7.113995564665     0.174280049966    12.000000000000
         C           -2.425481506836     5.681136478894     0.167275161096    12.000000000000
         C           -1.194748179167     7.786158722300     0.175752230508    12.000000000000
         C            0.037954866205     7.099436173748     0.173581526203    12.000000000000
         C            0.030328424687     5.669504087695     0.168098141287    12.000000000000
         C           -1.200988670637     4.969284875906     0.177067875221    12.000000000000
         C            1.277953663083     7.772873971185     0.174957374764    12.000000000000
         C            2.485353921992     7.087711413228     0.172682886859    12.000000000000
         C            2.486124522185     5.654785338231     0.165745137871    12.000000000000
         C            1.254078756912     4.956092641655     0.177373079459    12.000000000000
         C            3.751710428674     7.763926678971     0.172809738239    12.000000000000
         C            4.923561893453     7.078795304981     0.170753257531    12.000000000000
         C            4.955603108594     5.643461991360     0.170592844724    12.000000000000
         C            3.706797371473     4.941224736324     0.175684404894    12.000000000000
         H           -3.658525300490     8.890841947126     0.175770695956     1.007825032230
         H           -1.189217492488     8.874135615351     0.179724106949     1.007825032230
         H            1.284290076155     8.860847963479     0.179116198905     1.007825032230
         H            3.753537924068     8.851049806963     0.174332262555     1.007825032230
         H            5.869954540475     7.613809362646     0.169827890489     1.007825032230
         H           -5.788235870234     7.676316740925     0.170159285417     1.007825032230
         C           -6.091978121428     4.993274541634     0.169273981184    12.000000000000
         C           -6.128665643049     3.582594696789     0.170475158213    12.000000000000
         C           -3.664583902777     3.564196707735     0.167550063595    12.000000000000
         C           -4.894302367430     2.861095303891     0.176719048581    12.000000000000
         C           -2.437339157630     2.847626185075     0.179381842132    12.000000000000
         C           -1.209232020328     3.547901462969     0.165702815340    12.000000000000
         C            1.247137409430     3.534695279420     0.164894208935    12.000000000000
         C            0.015171876837     2.833126367296     0.176578392159    12.000000000000
         C            2.467641009709     2.821304505246     0.176678450283    12.000000000000
         C            3.702545311848     3.524674682415     0.163190489440    12.000000000000
         C            6.144976223652     4.927586894122     0.169359399513    12.000000000000
         C            6.166584196130     3.516599003933     0.171525952949    12.000000000000
         C            4.924605795728     2.808422453345     0.178064699186    12.000000000000
         H            7.089901346909     5.466902294214     0.165597518663     1.007825032230
         H           -7.031045913833     5.542702480848     0.165040766233     1.007825032230
         C           -7.339702203855     2.858426062570     0.168847990771    12.000000000000
         C           -7.364886120791     1.470337899574     0.170613528899    12.000000000000
         C           -4.903508771679     1.444441340151     0.165897264707    12.000000000000
         C           -6.132261315343     0.739953885044     0.178187308690    12.000000000000
         C           -3.676878963248     0.726711670664     0.176524981107    12.000000000000
         C           -2.445660748797     1.429655661253     0.166215270906    12.000000000000
         C           -1.223604844033     0.715339029625     0.177644535437    12.000000000000
         C            0.007633706582     1.417397677228     0.176110189155    12.000000000000
         C            1.231215645015     0.702131218578     0.157283603498    12.000000000000
         C            2.460816937799     1.403306564116     0.176788112389    12.000000000000
         C            3.684426091464     0.687212956203     0.175959326112    12.000000000000
         C            4.918704738807     1.391749089180     0.163557504477    12.000000000000
         C            7.369797915229     2.779496731175     0.169765533157    12.000000000000
         C            7.380158503390     1.391232035846     0.171312216002    12.000000000000
         C            6.139795376391     0.674133151191     0.177640557814    12.000000000000
         H           -8.279194962078     3.407132569115     0.164550438650     1.007825032230
         H            8.315109308748     3.318132624614     0.165554957357     1.007825032230
         C           -8.591760100313     0.724847081035     0.170953956516    12.000000000000
         C           -8.599028766435    -0.632625278238     0.173077081099    12.000000000000
         C           -6.139817301850    -0.674122109163     0.166087739764    12.000000000000
         C           -7.380188274869    -1.391251661591     0.173503801305    12.000000000000
         C           -4.918688642988    -1.391740490039     0.178428237914    12.000000000000
         C           -3.684442458416    -0.687222787745     0.167395997849    12.000000000000
         C           -2.460821202979    -1.403330650834     0.177939084039    12.000000000000
         C           -1.231166175052    -0.702159336890     0.165818705247    12.000000000000
         C           -0.007573788119    -1.417404321420     0.173275229550    12.000000000000
         C            1.223643553157    -0.715260849273     0.183280851499    12.000000000000
         C            2.445666486600    -1.429628761016     0.171530838739    12.000000000000
         C            3.676862540115    -0.726692903565     0.167390254344    12.000000000000
         C            6.132244683688    -0.739964311859     0.165862280132    12.000000000000
         C            4.903514982772    -1.444442992550     0.179703354672    12.000000000000
         C            8.599010685959     0.632618394658     0.171174332146    12.000000000000
         C            8.591741325369    -0.724836339203     0.172910712408    12.000000000000
         C            7.364858601658    -1.470318137615     0.172680535715    12.000000000000
         H           -9.528310134550     1.276861977183     0.169484029552     1.007825032230
         H            9.541406811874     1.174587016435     0.170122299885     1.007825032230
         C           -7.369842072500    -2.779530617943     0.175312009727    12.000000000000
         C           -4.924603271782    -2.808422729350     0.167580377291    12.000000000000
         C           -6.166626658399    -3.516637664835     0.173882217450    12.000000000000
         C           -3.702514522437    -3.524667021130     0.177904446477    12.000000000000
         C           -2.467651147846    -2.821311434813     0.165859808120    12.000000000000
         C           -0.015137636839    -2.833127117409     0.166141396629    12.000000000000
         C           -1.247126003958    -3.534717647572     0.177705350038    12.000000000000
         C            1.209240906912    -3.547900150653     0.180244379829    12.000000000000
         C            2.437331859423    -2.847627210185     0.166104621518    12.000000000000
         C            4.894298181039    -2.861108440295     0.166925361589    12.000000000000
         C            3.664611092309    -3.564205317541     0.179804781530    12.000000000000
         C            6.128634852014    -3.582569529727     0.173150623487    12.000000000000
         C            7.339668501964    -2.858398779380     0.174665849569    12.000000000000
         H           -9.541453273991    -1.174548938674     0.174446497272     1.007825032230
         H            9.528257705340    -1.276904545914     0.174160520169     1.007825032230
         H           -8.315169206580    -3.318135325222     0.179484238258     1.007825032230
         H            8.279150979760    -3.407126261903     0.179005405552     1.007825032230
         C           -6.144998351434    -4.927632744793     0.175208215510    12.000000000000
         C           -3.706787510729    -4.941247186127     0.165387247422    12.000000000000
         C           -4.955594220733    -5.643479445504     0.173354382067    12.000000000000
         C           -2.486125488958    -5.654771046419     0.178326918467    12.000000000000
         C           -1.254062498212    -4.956107522011     0.167151312481    12.000000000000
         C            1.201008411136    -4.969265860202     0.168332436739    12.000000000000
         C           -0.030340837145    -5.669505775148     0.176175636403    12.000000000000
         C            3.653745938597    -4.980729247424     0.169090436487    12.000000000000
         C            2.425488533144    -5.681160107537     0.178467367039    12.000000000000
         C            6.091961455079    -4.993243435396     0.175444850161    12.000000000000
         C            4.894972281879    -5.696333892967     0.174208654331    12.000000000000
         H           -7.089896550772    -5.466985314248     0.179610977192     1.007825032230
         H            7.031051046468    -5.542644008342     0.179024629924     1.007825032230
         C           -4.923549484930    -7.078806571687     0.172799613162    12.000000000000
         C           -2.485346250970    -7.087713549939     0.170289720727    12.000000000000
         C           -3.751690054511    -7.763932629646     0.170484399652    12.000000000000
         C           -0.037953119720    -7.099450346479     0.170505445874    12.000000000000
         C           -1.277960263133    -7.772889856676     0.168520753112    12.000000000000
         C            2.409440157995    -7.114007484012     0.171368646685    12.000000000000
         C            1.194745774421    -7.786170837572     0.169216355803    12.000000000000
         C            4.847616889766    -7.131247582589     0.173875461345    12.000000000000
         C            3.668467443144    -7.803773464953     0.171527026981    12.000000000000
         H           -5.869944513148    -7.613816070051     0.174343650028     1.007825032230
         H            5.788245462656    -7.676317661324     0.175002580826     1.007825032230
         H           -3.753531102181    -8.851057041246     0.168648485223     1.007825032230
         H           -1.284308568626    -8.860860864507     0.164093369254     1.007825032230
         H            1.189217411964    -8.874146092599     0.165123719113     1.007825032230
         H            3.658542452092    -8.890846106063     0.169872485558     1.007825032230

  Charge       = 0
  Multiplicity = 1
  Basis Set: JUN-CC-PVDZ
    Blend: JUN-CC-PVDZ
  Basis Set: (JUN-CC-PVDZ AUX)
    Blend: JUN-CC-PVDZ-JKFIT

    Orbital Energies [Eh]
    ---------------------

    Doubly Occupied:

       1A    -11.264016     2A    -11.263659     3A    -11.263658
       4A    -11.263251     5A    -11.263249     6A    -11.263215
       7A    -11.263063     8A    -11.263059     9A    -11.263056
      10A    -11.262834    11A    -11.262704    12A    -11.262699
      13A    -11.262213    14A    -11.262210    15A    -11.262177
      16A    -11.262176    17A    -11.262076    18A    -11.262071
      19A    -11.262025    20A    -11.261988    21A    -11.261986
      22A    -11.261871    23A    -11.261866    24A    -11.261729
      25A    -11.261719    26A    -11.261701    27A    -11.261695
      28A    -11.261653    29A    -11.261644    30A    -11.261550
      31A    -11.261528    32A    -11.261524    33A    -11.261497
      34A    -11.261495    35A    -11.261492    36A    -11.261473
      37A    -11.261314    38A    -11.261306    39A    -11.261301
      40A    -11.261295    41A    -11.261290    42A    -11.261285
      43A    -11.261263    44A    -11.261245    45A    -11.261241
      46A    -11.261217    47A    -11.261215    48A    -11.261208
      49A    -11.261016    50A    -11.260983    51A    -11.260979
      52A    -11.260900    53A    -11.260897    54A    -11.260838
      55A    -11.259890    56A    -11.259877    57A    -11.259874
      58A    -11.259844    59A    -11.259843    60A    -11.259826
      61A    -11.259261    62A    -11.259235    63A    -11.259232
      64A    -11.259180    65A    -11.259176    66A    -11.259147
      67A    -11.258892    68A    -11.258874    69A    -11.258872
      70A    -11.258843    71A    -11.258841    72A    -11.258829
      73A    -11.254517    74A    -11.254515    75A    -11.254512
      76A    -11.254511    77A    -11.254509    78A    -11.254508
      79A    -11.253634    80A    -11.253633    81A    -11.253631
      82A    -11.253630    83A    -11.253626    84A    -11.253626
      85A    -11.253550    86A    -11.253549    87A    -11.253546
      88A    -11.253545    89A    -11.253542    90A    -11.253541
      91A    -11.253045    92A    -11.253043    93A    -11.253039
      94A    -11.253039    95A    -11.253037    96A    -11.253036
      97A     -1.253829    98A     -1.238938    99A     -1.238936
     100A     -1.220425   101A     -1.220420   102A     -1.215310
     103A     -1.201013   104A     -1.195574   105A     -1.188055
     106A     -1.188052   107A     -1.173738   108A     -1.173736
     109A     -1.155565   110A     -1.155561   111A     -1.152586
     112A     -1.144699   113A     -1.144696   114A     -1.128519
     115A     -1.114653   116A     -1.113131   117A     -1.112387
     118A     -1.112372   119A     -1.111599   120A     -1.088378
     121A     -1.088363   122A     -1.076934   123A     -1.076933
     124A     -1.067558   125A     -1.067528   126A     -1.064864
     127A     -1.046758   128A     -1.046751   129A     -1.040434
     130A     -1.038710   131A     -1.038709   132A     -1.025170
     133A     -1.021264   134A     -1.021213   135A     -1.007139
     136A     -1.006771   137A     -1.003756   138A     -1.000424
     139A     -1.000377   140A     -0.991052   141A     -0.970921
     142A     -0.970873   143A     -0.955848   144A     -0.955793
     145A     -0.905529   146A     -0.905507   147A     -0.905489
     148A     -0.905464   149A     -0.904204   150A     -0.892280
     151A     -0.892220   152A     -0.890291   153A     -0.890233
     154A     -0.889403   155A     -0.872180   156A     -0.869040
     157A     -0.851506   158A     -0.847789   159A     -0.847768
     160A     -0.845529   161A     -0.842967   162A     -0.834524
     163A     -0.834511   164A     -0.828083   165A     -0.828079
     166A     -0.784503   167A     -0.784492   168A     -0.783592
     169A     -0.783565   170A     -0.782228   171A     -0.782208
     172A     -0.781952   173A     -0.766955   174A     -0.760701
     175A     -0.750500   176A     -0.733454   177A     -0.727023
     178A     -0.727010   179A     -0.725032   180A     -0.724503
     181A     -0.724484   182A     -0.718403   183A     -0.713683
     184A     -0.713676   185A     -0.699530   186A     -0.699518
     187A     -0.686015   188A     -0.685926   189A     -0.685923
     190A     -0.682139   191A     -0.682129   192A     -0.678704
     193A     -0.653574   194A     -0.650812   195A     -0.650783
     196A     -0.649728   197A     -0.649712   198A     -0.649531
     199A     -0.640826   200A     -0.640799   201A     -0.640055
     202A     -0.639136   203A     -0.635953   204A     -0.635926
     205A     -0.629096   206A     -0.617746   207A     -0.615273
     208A     -0.615253   209A     -0.608758   210A     -0.608752
     211A     -0.599104   212A     -0.599070   213A     -0.598679
     214A     -0.598550   215A     -0.598528   216A     -0.597949
     217A     -0.595034   218A     -0.595021   219A     -0.594674
     220A     -0.594147   221A     -0.591888   222A     -0.591886
     223A     -0.587305   224A     -0.577774   225A     -0.577764
     226A     -0.575630   227A     -0.575626   228A     -0.573345
     229A     -0.569597   230A     -0.568036   231A     -0.568012
     232A     -0.566693   233A     -0.566683   234A     -0.560889
     235A     -0.558652   236A     -0.558633   237A     -0.558401
     238A     -0.554318   239A     -0.550520   240A     -0.547452
     241A     -0.544232   242A     -0.535004   243A     -0.534967
     244A     -0.533481   245A     -0.533460   246A     -0.528036
     247A     -0.528021   248A     -0.527708   249A     -0.517072
     250A     -0.517037   251A     -0.515322   252A     -0.515316
     253A     -0.509606   254A     -0.509590   255A     -0.497986
     256A     -0.496397   257A     -0.496370   258A     -0.493740
     259A     -0.493728   260A     -0.489442   261A     -0.481416
     262A     -0.477391   263A     -0.477388   264A     -0.473953
     265A     -0.469385   266A     -0.466468   267A     -0.466463
     268A     -0.458750   269A     -0.446584   270A     -0.446524
     271A     -0.440994   272A     -0.440742   273A     -0.440716
     274A     -0.434659   275A     -0.433884   276A     -0.407329
     277A     -0.407305   278A     -0.386344   279A     -0.386295
     280A     -0.385709   281A     -0.385707   282A     -0.383708
     283A     -0.354294   284A     -0.354278   285A     -0.350607
     286A     -0.338022   287A     -0.335498   288A     -0.335428
     289A     -0.332686   290A     -0.332679   291A     -0.306992
     292A     -0.301863   293A     -0.301801   294A     -0.300825
     295A     -0.286130   296A     -0.256455   297A     -0.253400
     298A     -0.253346   299A     -0.204217   300A     -0.204128

  @DF-RHF Final Energy: -3650.34135323287865

   => Energetics <=

    Nuclear Repulsion Energy =          15611.4211649754324753
    One-Electron Energy =              -36072.1773781342926668
    Two-Electron Energy =               16810.4148599259824550
    Total Energy =                      -3650.3413532328777364
 Dipole X            :          0.0004425            0.0002304            0.0006729
 Dipole Y            :          0.0013912           -0.0013052            0.0000859
 Dipole Z            :       -195.2355462          195.2336432           -0.0019030
 Magnitude           :                                                    0.0020203

    SAPT Results
  --------------------------------------------------------------------------------------------------------
    Electrostatics               -330.37702367 [mEh]    -207.31471227 [kcal/mol]    -867.40475614 [kJ/mol]
      Elst10,r                   -330.37702367 [mEh]    -207.31471227 [kcal/mol]    -867.40475614 [kJ/mol]

    Exchange                      780.57164455 [mEh]     489.81610192 [kcal/mol]    2049.39057043 [kJ/mol]
      Exch10                      780.57164455 [mEh]     489.81610192 [kcal/mol]    2049.39057043 [kJ/mol]
      Exch10(S^2)                 726.71650697 [mEh]     456.02149288 [kcal/mol]    1907.99392620 [kJ/mol]

    Induction                     -40.88082221 [mEh]     -25.65310323 [kcal/mol]    -107.33258392 [kJ/mol]
      Ind20,r                    -457.63294882 [mEh]    -287.16901090 [kcal/mol]   -1201.51514159 [kJ/mol]
      Exch-Ind20,r                320.57960189 [mEh]     201.16673729 [kcal/mol]     841.68162881 [kJ/mol]
      delta HF,r (2)               96.17252472 [mEh]      60.34917038 [kcal/mol]     252.50092887 [kJ/mol]

    Dispersion                    -72.40518592 [mEh]     -45.43494012 [kcal/mol]    -190.09978945 [kJ/mol]
      Disp20                     -117.04439545 [mEh]     -73.44646700 [kcal/mol]    -307.30001791 [kJ/mol]
      Exch-Disp20                  44.63920952 [mEh]      28.01152688 [kcal/mol]     117.20022845 [kJ/mol]
      Disp20 (SS)                 -58.52219772 [mEh]     -36.72323350 [kcal/mol]    -153.65000895 [kJ/mol]
      Disp20 (OS)                 -58.52219772 [mEh]     -36.72323350 [kcal/mol]    -153.65000895 [kJ/mol]
      Exch-Disp20 (SS)             21.25194903 [mEh]      13.33579935 [kcal/mol]      55.79698449 [kJ/mol]
      Exch-Disp20 (OS)             23.38726049 [mEh]      14.67572752 [kcal/mol]      61.40324396 [kJ/mol]

  Total HF                        409.31379868 [mEh]     256.84828642 [kcal/mol]    1074.65323037 [kJ/mol]
  Total SAPT0                     336.90861275 [mEh]     211.41334630 [kcal/mol]     884.55344092 [kJ/mol]

  Special recipe for scaled SAPT0 (see Manual):
    Electrostatics sSAPT0        -330.37702367 [mEh]    -207.31471227 [kcal/mol]    -867.40475614 [kJ/mol]
    Exchange sSAPT0               780.57164455 [mEh]     489.81610192 [kcal/mol]    2049.39057043 [kJ/mol]
    Induction sSAPT0               35.80349483 [mEh]      22.46703220 [kcal/mol]      94.00206272 [kJ/mol]
    Dispersion sSAPT0             -61.72725359 [mEh]     -38.73443642 [kcal/mol]    -162.06488198 [kJ/mol]
  Total sSAPT0                    424.27086212 [mEh]     266.23398543 [kcal/mol]    1113.92299502 [kJ/mol]
  --------------------------------------------------------------------------------------------------------

*** Psi4 exiting successfully. Buy a developer a beer!
