                               Psi4 1.9 release

  ==> Input File <==

--------------------------------------------------------------------------
memory 64 GB # how much memory is available ! Depends on the nodes/cores !

molecule dimer {
# monomer A
-1 1    # Charge and multiplicity
B -1.977592e-04  2.742729e-04 -4.399966
F  1.123153e-16  1.430594e-17 -2.987181
F  1.147860e+00  6.757812e-01 -4.871107
F  1.191806e-02 -1.332011e+00 -4.870905
F -1.159666e+00  6.560735e-01 -4.870826
--
# monomer B
0 1     # Charge and multiplicity
C   -3.66844126402057      7.80375217008252      0.00190004133558
C   -4.84759871934653      7.13124183134024     -0.00046653359696
C   -4.89495929917518      5.69633040353158     -0.00103944469517
C   -3.65374067877320      4.98073034095895      0.00662099703436
C   -2.40942512149445      7.11398103667468      0.00209438359570
C   -2.42547734410473      5.68112195090346     -0.00491050527438
C   -1.19474401643570      7.78614419430947      0.00356656413763
C   0.03795902893699      7.09942164575698      0.00139585983271
C   0.03033258741920      5.66948955970466     -0.00408752508301
C   -1.20098450790502      4.96927034791531      0.00488220885047
C   1.27795782581485      7.77285944319479      0.00277170839332
C   2.48535808472416      7.08769688523756      0.00049722048857
C   2.48612868491717      5.65477081024076     -0.00644052849921
C   1.25408291964399      4.95607811366431      0.00518741308898
C   3.75171459140595      7.76391215098033      0.00062407186893
C   4.92356605618520      7.07878077698995     -0.00143240883900
C   4.95560727132542      5.64344746336949     -0.00159282164606
C   3.70680153420475      4.94121020833308      0.00349873852374
H   -3.65852113775815      8.89082741913536      0.00358502958574
H   -1.18921332975660      8.87412108735996      0.00753844057883
H   1.28429423888630      8.86083343548850      0.00693053253426
H   3.75354208679975      8.85103527897216      0.00214659618464
H   5.86995870320703      7.61379483465560     -0.00235777588134
H   -5.78823170750226      7.67630221293400     -0.00202638095293
C   -6.09197395869619      4.99326001364347     -0.00291168518608
C   -6.12866148031747      3.58258016879823     -0.00171050815740
C   -3.66457974004527      3.56418217974434     -0.00463560277484
C   -4.89429820469869      2.86108077590057      0.00453338221034
C   -2.43733499489796      2.84761165708481      0.00719617576166
C   -1.20922785759670      3.54788693497833     -0.00648285103018
C   1.24714157216223      3.53468075142962     -0.00729145743546
C   0.01517603956900      2.83311183930540      0.00439272578912
C   2.46764517244071      2.82128997725533      0.00449278391269
C   3.70254947457969      3.52466015442405     -0.00899517692985
C   6.14498038638375      4.92757236613191     -0.00282626685777
C   6.16658835886151      3.51658447594213     -0.00065971342101
C   4.92460995845939      2.80840792535402      0.00587903281610
H   7.08990550964105      5.46688776622306     -0.00658814770723
H   -7.03104175110130      5.54268795285765     -0.00714490013730
C   -7.33969804112295      2.85841153457957     -0.00333767559888
C   -7.36488195805880      1.47032337158330     -0.00157213747140
C   -4.90350460894690      1.44442681216000     -0.00628840166334
C   -6.13225715261081      0.73993935705394      0.00600164231964
C   -3.67687480051673      0.72669714267312      0.00433931473643
C   -2.44565658606518      1.42964113326212     -0.00597039546461
C   -1.22360068130162      0.71532450163492      0.00545886906656
C   0.00763786931376      1.41738314923765      0.00392452278437
C   1.23121980774686      0.70211669058719     -0.01490206287210
C   2.46082110053113      1.40329203612573      0.00460244601878
C   3.68443025419614      0.68719842821222      0.00377365974158
C   4.91870890153864      1.39173456118907     -0.00862816189375
C   7.36980207796101      2.77948220318441     -0.00242013321349
C   7.38016266612146      1.39121750785509     -0.00087345036788
C   6.13979953912259      0.67411862320065      0.00545489144369
H   -8.27919079934664      3.40711804112415     -0.00763522772059
H   8.31511347147953      3.31811809662368     -0.00663070901292
C   -8.59175593758115      0.72483255304480     -0.00123170985383
C   -8.59902460370342     -0.63263980622873      0.00089141472904
C   -6.13981313911873     -0.67413663715361     -0.00609792660607
C   -7.38018411213749     -1.39126618958160      0.00131813493501
C   -4.91868448025621     -1.39175501803000      0.00624257154343
C   -3.68443829568458     -0.68723731573599     -0.00478966852105
C   -2.46081704024768     -1.40334517882457      0.00575341766833
C   -1.23116201232071     -0.70217386488055     -0.00636696112346
C   -0.00756962538737     -1.41741884941102      0.00108956317991
C   1.22364771588843     -0.71527537726392      0.01109518512883
C   2.44567064933149     -1.42964328900682     -0.00065482763106
C   3.67686670284649     -0.72670743155550     -0.00479541202602
C   6.13224884641929     -0.73997883984993     -0.00632338623858
C   4.90351914550401     -1.44445752054090      0.00751768830159
C   8.59901484869081      0.63260386666793     -0.00101133422380
C   8.59174548810050     -0.72485086719319      0.00072504603735
C   7.36486276438985     -1.47033266560598      0.00049486934466
H   -9.52830597181814      1.27684744919284     -0.00270163681798
H   9.54141097460619      1.17457248844457     -0.00206336648518
C   -7.36983790976868     -2.77954514593389      0.00312634335708
C   -4.92459910905015     -2.80843725734101     -0.00460528907921
C   -6.16662249566744     -3.51665219282533      0.00169655107992
C   -3.70251035970491     -3.52468154912026      0.00571878010666
C   -2.46764698511392     -2.82132596280400     -0.00632585824990
C   -0.01513347410770     -2.83314164539971     -0.00604426974092
C   -1.24712184122656     -3.53473217556300      0.00551968366725
C   1.20924506964357     -3.54791467864352      0.00805871345849
C   2.43733602215464     -2.84764173817541     -0.00608104485234
C   4.89430234377080     -2.86112296828604     -0.00526030478103
C   3.66461525504104     -3.56421984553201      0.00761911515957
C   6.12863901474565     -3.58258405771778      0.00096495711699
C   7.33967266469532     -2.85841330737039      0.00248018319869
H   -9.54144911125902     -1.17456346666430      0.00226083090216
H   9.52826186807155     -1.27691907390448      0.00197485379837
H   -8.31516504384864     -3.31814985321231      0.00729857188773
H   8.27915514249207     -3.40714078989363      0.00681973918158
C   -6.14499418870218     -4.92764727278338      0.00302254913999
C   -3.70678334799751     -4.94126171411716     -0.00679841894792
C   -4.95559005800169     -5.64349397349412      0.00116871569699
C   -2.48612132622665     -5.65478557440947      0.00614125209662
C   -1.25405833548005     -4.95612205000132     -0.00503435388927
C   1.20101257386816     -4.96928038819302     -0.00385322963129
C   -0.03033667441341     -5.66952030313900      0.00398997003238
C   3.65375010132847     -4.98074377541453     -0.00309522988330
C   2.42549269587528     -5.68117463552727      0.00628170066869
C   6.09196561781097     -4.99325796338655      0.00325918379042
C   4.89497644461045     -5.69634842095790      0.00202298796027
H   -7.08989238804069     -5.46699984223871      0.00742531082125
H   7.03105520920009     -5.54265853633254      0.00683896355417
C   -4.92354532219813     -7.07882109967734      0.00061394679214
C   -2.48534208823777     -7.08772807792913     -0.00189594564379
C   -3.75168589177895     -7.76394715763627     -0.00170126671874
C   -0.03794895698805     -7.09946487446944     -0.00168022049625
C   -1.27795610040136     -7.77290438466689     -0.00366491325785
C   2.40944432072629     -7.11402201200282     -0.00081701968533
C   1.19474993715296     -7.78618536556242     -0.00296931056689
C   4.84762105249800     -7.13126211057943      0.00168979497423
C   3.66847160587561     -7.80378799294376     -0.00065863938960
H   -5.86994035041618     -7.61383059804164      0.00215798365757
H   5.78824962538815     -7.67633218931421      0.00281691445618
H   -3.75352693944918     -8.85107156923607     -0.00353718114765
H   -1.28430440589466     -8.86087539249706     -0.00809229711623
H   1.18922157469537     -8.87416062058945     -0.00706194725726
H   3.65854661482387     -8.89086063405326     -0.00231318081200

    units angstrom      # Angstroms are the default
    no_reorient         # Geometry fixed, default
    symmetry c1         # C1 symmetry, default
}

set {
    scf_type DF         # Density fitting, faster than exact integrals
    freeze_core True    # Freeze core electrons
    basis jun-cc-pVDZ   # Jun-cc-pVDZ basis set, recommended for sSAPT0 in https://doi.org/10.1063/1.4867135
}

energy('ssapt0')        # Compute sSAPT0 energy, includes also SAPT0
--------------------------------------------------------------------------

  //              Dimer HF             //
    Molecular point group: c1
  Charge       = -1
  Multiplicity = 1
  Basis Set: JUN-CC-PVDZ
    Blend: JUN-CC-PVDZ
  Basis Set: (JUN-CC-PVDZ AUX)
    Blend: JUN-CC-PVDZ-JKFIT
  @DF-RHF Final Energy: -4073.11052766066587
    Total Energy =                      -4073.1105276606649568
 Dipole X            :          0.0003244           -0.0000548            0.0002696
 Dipole Y            :          0.0009250           -0.0002464            0.0006787
 Dipole Z            :        -19.8375405           26.1846164            6.3470759
 Magnitude           :                                                    6.3470759
  //            Monomer A HF           //
    Molecular point group: c1
  Multiplicity = 1
  Basis Set: JUN-CC-PVDZ
    Blend: JUN-CC-PVDZ
  Basis Set: (JUN-CC-PVDZ AUX)
    Blend: JUN-CC-PVDZ-JKFIT
  @DF-RHF Final Energy:  -422.77244758465002
    Total Energy =                       -422.7724475846500241
  //            Monomer B HF           //
    Molecular point group: c1

    Geometry (in Angstrom), charge = 0, multiplicity = 1:

       Center              X                  Y                   Z               Mass
    ------------   -----------------  -----------------  -----------------  -----------------
      Gh(B)          -0.000201921932     0.000288800891    -4.096916845035    11.009305360000
      Gh(F)          -0.000004162732     0.000014527991    -2.684131845035    18.998403162730
      Gh(F)           1.147855837268     0.675795727991    -4.568057845035    18.998403162730
      Gh(F)           0.011913897268    -1.331996472009    -4.567855845035    18.998403162730
      Gh(F)          -1.159670162732     0.656088027991    -4.567776845035    18.998403162730
         C           -3.668445426752     7.803766698073     0.304949196301    12.000000000000
         C           -4.847602882078     7.131256359331     0.302582621368    12.000000000000
         C           -4.894963461907     5.696344931522     0.302009710270    12.000000000000
         C           -3.653744841505     4.980744868950     0.309670151999    12.000000000000
         C           -2.409429284226     7.113995564665     0.305143538561    12.000000000000
         C           -2.425481506836     5.681136478894     0.298138649691    12.000000000000
         C           -1.194748179167     7.786158722300     0.306615719103    12.000000000000
         C            0.037954866205     7.099436173748     0.304445014798    12.000000000000
         C            0.030328424687     5.669504087695     0.298961629882    12.000000000000
         C           -1.200988670637     4.969284875906     0.307931363816    12.000000000000
         C            1.277953663083     7.772873971185     0.305820863358    12.000000000000
         C            2.485353921992     7.087711413228     0.303546375454    12.000000000000
         C            2.486124522185     5.654785338231     0.296608626466    12.000000000000
         C            1.254078756912     4.956092641655     0.308236568054    12.000000000000
         C            3.751710428674     7.763926678971     0.303673226834    12.000000000000
         C            4.923561893453     7.078795304981     0.301616746126    12.000000000000
         C            4.955603108594     5.643461991360     0.301456333319    12.000000000000
         C            3.706797371473     4.941224736324     0.306547893489    12.000000000000
         H           -3.658525300490     8.890841947126     0.306634184551     1.007825032230
         H           -1.189217492488     8.874135615351     0.310587595544     1.007825032230
         H            1.284290076155     8.860847963479     0.309979687499     1.007825032230
         H            3.753537924068     8.851049806963     0.305195751150     1.007825032230
         H            5.869954540475     7.613809362646     0.300691379084     1.007825032230
         H           -5.788235870234     7.676316740925     0.301022774012     1.007825032230
         C           -6.091978121428     4.993274541634     0.300137469779    12.000000000000
         C           -6.128665643049     3.582594696789     0.301338646808    12.000000000000
         C           -3.664583902777     3.564196707735     0.298413552190    12.000000000000
         C           -4.894302367430     2.861095303891     0.307582537175    12.000000000000
         C           -2.437339157630     2.847626185075     0.310245330727    12.000000000000
         C           -1.209232020328     3.547901462969     0.296566303935    12.000000000000
         C            1.247137409430     3.534695279420     0.295757697530    12.000000000000
         C            0.015171876837     2.833126367296     0.307441880754    12.000000000000
         C            2.467641009709     2.821304505246     0.307541938878    12.000000000000
         C            3.702545311848     3.524674682415     0.294053978035    12.000000000000
         C            6.144976223652     4.927586894122     0.300222888107    12.000000000000
         C            6.166584196130     3.516599003933     0.302389441544    12.000000000000
         C            4.924605795728     2.808422453345     0.308928187781    12.000000000000
         H            7.089901346909     5.466902294214     0.296461007258     1.007825032230
         H           -7.031045913833     5.542702480848     0.295904254828     1.007825032230
         C           -7.339702203855     2.858426062570     0.299711479366    12.000000000000
         C           -7.364886120791     1.470337899574     0.301477017494    12.000000000000
         C           -4.903508771679     1.444441340151     0.296760753302    12.000000000000
         C           -6.132261315343     0.739953885044     0.309050797285    12.000000000000
         C           -3.676878963248     0.726711670664     0.307388469702    12.000000000000
         C           -2.445660748797     1.429655661253     0.297078759501    12.000000000000
         C           -1.223604844033     0.715339029625     0.308508024032    12.000000000000
         C            0.007633706582     1.417397677228     0.306973677749    12.000000000000
         C            1.231215645015     0.702131218578     0.288147092093    12.000000000000
         C            2.460816937799     1.403306564116     0.307651600984    12.000000000000
         C            3.684426091464     0.687212956203     0.306822814707    12.000000000000
         C            4.918704738807     1.391749089180     0.294420993071    12.000000000000
         C            7.369797915229     2.779496731175     0.300629021752    12.000000000000
         C            7.380158503390     1.391232035846     0.302175704597    12.000000000000
         C            6.139795376391     0.674133151191     0.308504046409    12.000000000000
         H           -8.279194962078     3.407132569115     0.295413927245     1.007825032230
         H            8.315109308748     3.318132624614     0.296418445952     1.007825032230
         C           -8.591760100313     0.724847081035     0.301817445111    12.000000000000
         C           -8.599028766435    -0.632625278238     0.303940569694    12.000000000000
         C           -6.139817301850    -0.674122109163     0.296951228359    12.000000000000
         C           -7.380188274869    -1.391251661591     0.304367289900    12.000000000000
         C           -4.918688642988    -1.391740490039     0.309291726509    12.000000000000
         C           -3.684442458416    -0.687222787745     0.298259486444    12.000000000000
         C           -2.460821202979    -1.403330650834     0.308802572633    12.000000000000
         C           -1.231166175052    -0.702159336890     0.296682193842    12.000000000000
         C           -0.007573788119    -1.417404321420     0.304138718145    12.000000000000
         C            1.223643553157    -0.715260849273     0.314144340094    12.000000000000
         C            2.445666486600    -1.429628761016     0.302394327334    12.000000000000
         C            3.676862540115    -0.726692903565     0.298253742939    12.000000000000
         C            6.132244683688    -0.739964311859     0.296725768727    12.000000000000
         C            4.903514982772    -1.444442992550     0.310566843267    12.000000000000
         C            8.599010685959     0.632618394658     0.302037820741    12.000000000000
         C            8.591741325369    -0.724836339203     0.303774201002    12.000000000000
         C            7.364858601658    -1.470318137615     0.303544024310    12.000000000000
         H           -9.528310134550     1.276861977183     0.300347518147     1.007825032230
         H            9.541406811874     1.174587016435     0.300985788480     1.007825032230
         C           -7.369842072500    -2.779530617943     0.306175498322    12.000000000000
         C           -4.924603271782    -2.808422729350     0.298443865886    12.000000000000
         C           -6.166626658399    -3.516637664835     0.304745706045    12.000000000000
         C           -3.702514522437    -3.524667021130     0.308767935072    12.000000000000
         C           -2.467651147846    -2.821311434813     0.296723296715    12.000000000000
         C           -0.015137636839    -2.833127117409     0.297004885224    12.000000000000
         C           -1.247126003958    -3.534717647572     0.308568838632    12.000000000000
         C            1.209240906912    -3.547900150653     0.311107868424    12.000000000000
         C            2.437331859423    -2.847627210185     0.296968110113    12.000000000000
         C            4.894298181039    -2.861108440295     0.297788850184    12.000000000000
         C            3.664611092309    -3.564205317541     0.310668270125    12.000000000000
         C            6.128634852014    -3.582569529727     0.304014112082    12.000000000000
         C            7.339668501964    -2.858398779380     0.305529338164    12.000000000000
         H           -9.541453273991    -1.174548938674     0.305309985867     1.007825032230
         H            9.528257705340    -1.276904545914     0.305024008763     1.007825032230
         H           -8.315169206580    -3.318135325222     0.310347726853     1.007825032230
         H            8.279150979760    -3.407126261903     0.309868894147     1.007825032230
         C           -6.144998351434    -4.927632744793     0.306071704105    12.000000000000
         C           -3.706787510729    -4.941247186127     0.296250736017    12.000000000000
         C           -4.955594220733    -5.643479445504     0.304217870662    12.000000000000
         C           -2.486125488958    -5.654771046419     0.309190407062    12.000000000000
         C           -1.254062498212    -4.956107522011     0.298014801076    12.000000000000
         C            1.201008411136    -4.969265860202     0.299195925334    12.000000000000
         C           -0.030340837145    -5.669505775148     0.307039124998    12.000000000000
         C            3.653745938597    -4.980729247424     0.299953925082    12.000000000000
         C            2.425488533144    -5.681160107537     0.309330855634    12.000000000000
         C            6.091961455079    -4.993243435396     0.306308338756    12.000000000000
         C            4.894972281879    -5.696333892967     0.305072142925    12.000000000000
         H           -7.089896550772    -5.466985314248     0.310474465786     1.007825032230
         H            7.031051046468    -5.542644008342     0.309888118519     1.007825032230
         C           -4.923549484930    -7.078806571687     0.303663101757    12.000000000000
         C           -2.485346250970    -7.087713549939     0.301153209321    12.000000000000
         C           -3.751690054511    -7.763932629646     0.301347888246    12.000000000000
         C           -0.037953119720    -7.099450346479     0.301368934469    12.000000000000
         C           -1.277960263133    -7.772889856676     0.299384241707    12.000000000000
         C            2.409440157995    -7.114007484012     0.302232135280    12.000000000000
         C            1.194745774421    -7.786170837572     0.300079844398    12.000000000000
         C            4.847616889766    -7.131247582589     0.304738949939    12.000000000000
         C            3.668467443144    -7.803773464953     0.302390515576    12.000000000000
         H           -5.869944513148    -7.613816070051     0.305207138623     1.007825032230
         H            5.788245462656    -7.676317661324     0.305866069421     1.007825032230
         H           -3.753531102181    -8.851057041246     0.299511973817     1.007825032230
         H           -1.284308568626    -8.860860864507     0.294956857849     1.007825032230
         H            1.189217411964    -8.874146092599     0.295987207708     1.007825032230
         H            3.658542452092    -8.890846106063     0.300735974153     1.007825032230

  Charge       = 0
  Multiplicity = 1
  Basis Set: JUN-CC-PVDZ
    Blend: JUN-CC-PVDZ
  Basis Set: (JUN-CC-PVDZ AUX)
    Blend: JUN-CC-PVDZ-JKFIT

    Orbital Energies [Eh]
    ---------------------

    Doubly Occupied:

       1A    -11.264110     2A    -11.263750     3A    -11.263748
       4A    -11.263334     5A    -11.263332     6A    -11.263301
       7A    -11.263153     8A    -11.263150     9A    -11.263141
      10A    -11.262925    11A    -11.262795    12A    -11.262791
      13A    -11.262301    14A    -11.262297    15A    -11.262272
      16A    -11.262272    17A    -11.262166    18A    -11.262159
      19A    -11.262104    20A    -11.262068    21A    -11.262066
      22A    -11.261954    23A    -11.261951    24A    -11.261793
      25A    -11.261791    26A    -11.261768    27A    -11.261761
      28A    -11.261725    29A    -11.261717    30A    -11.261627
      31A    -11.261605    32A    -11.261602    33A    -11.261588
      34A    -11.261571    35A    -11.261569    36A    -11.261547
      37A    -11.261373    38A    -11.261365    39A    -11.261358
      40A    -11.261352    41A    -11.261348    42A    -11.261342
      43A    -11.261329    44A    -11.261313    45A    -11.261308
      46A    -11.261287    47A    -11.261283    48A    -11.261278
      49A    -11.261103    50A    -11.261069    51A    -11.261066
      52A    -11.260986    53A    -11.260985    54A    -11.260925
      55A    -11.259966    56A    -11.259953    57A    -11.259950
      58A    -11.259921    59A    -11.259919    60A    -11.259903
      61A    -11.259339    62A    -11.259313    63A    -11.259311
      64A    -11.259258    65A    -11.259256    66A    -11.259227
      67A    -11.258969    68A    -11.258952    69A    -11.258949
      70A    -11.258921    71A    -11.258919    72A    -11.258908
      73A    -11.254560    74A    -11.254560    75A    -11.254556
      76A    -11.254554    77A    -11.254552    78A    -11.254550
      79A    -11.253697    80A    -11.253695    81A    -11.253693
      82A    -11.253691    83A    -11.253690    84A    -11.253685
      85A    -11.253612    86A    -11.253611    87A    -11.253608
      88A    -11.253607    89A    -11.253606    90A    -11.253601
      91A    -11.253088    92A    -11.253088    93A    -11.253084
      94A    -11.253082    95A    -11.253079    96A    -11.253078
      97A     -1.254006    98A     -1.239060    99A     -1.239059
     100A     -1.220521   101A     -1.220516   102A     -1.215489
     103A     -1.201094   104A     -1.195658   105A     -1.188198
     106A     -1.188196   107A     -1.173815   108A     -1.173812
     109A     -1.155688   110A     -1.155685   111A     -1.152768
     112A     -1.144771   113A     -1.144768   114A     -1.128628
     115A     -1.114774   116A     -1.113210   117A     -1.112534
     118A     -1.112519   119A     -1.111665   120A     -1.088486
     121A     -1.088471   122A     -1.077008   123A     -1.077006
     124A     -1.067670   125A     -1.067641   126A     -1.065026
     127A     -1.046855   128A     -1.046847   129A     -1.040539
     130A     -1.038781   131A     -1.038781   132A     -1.025298
     133A     -1.021443   134A     -1.021393   135A     -1.007230
     136A     -1.006870   137A     -1.003846   138A     -1.000546
     139A     -1.000498   140A     -0.991119   141A     -0.971042
     142A     -0.970994   143A     -0.955931   144A     -0.955876
     145A     -0.905652   146A     -0.905610   147A     -0.905594
     148A     -0.905554   149A     -0.904396   150A     -0.892433
     151A     -0.892374   152A     -0.890419   153A     -0.890362
     154A     -0.889515   155A     -0.872264   156A     -0.869096
     157A     -0.851589   158A     -0.847925   159A     -0.847903
     160A     -0.845654   161A     -0.843078   162A     -0.834618
     163A     -0.834605   164A     -0.828160   165A     -0.828156
     166A     -0.784599   167A     -0.784588   168A     -0.783710
     169A     -0.783683   170A     -0.782343   171A     -0.782323
     172A     -0.782092   173A     -0.767045   174A     -0.760854
     175A     -0.750625   176A     -0.733530   177A     -0.727124
     178A     -0.727111   179A     -0.725140   180A     -0.724595
     181A     -0.724577   182A     -0.718545   183A     -0.713826
     184A     -0.713820   185A     -0.699627   186A     -0.699614
     187A     -0.686178   188A     -0.686006   189A     -0.686003
     190A     -0.682225   191A     -0.682214   192A     -0.678816
     193A     -0.653669   194A     -0.650920   195A     -0.650891
     196A     -0.649865   197A     -0.649849   198A     -0.649612
     199A     -0.640982   200A     -0.640955   201A     -0.640137
     202A     -0.639208   203A     -0.636071   204A     -0.636045
     205A     -0.629196   206A     -0.617731   207A     -0.615349
     208A     -0.615329   209A     -0.608850   210A     -0.608843
     211A     -0.599143   212A     -0.599107   213A     -0.598792
     214A     -0.598666   215A     -0.598641   216A     -0.598081
     217A     -0.595114   218A     -0.595101   219A     -0.594771
     220A     -0.594289   221A     -0.592006   222A     -0.592003
     223A     -0.587449   224A     -0.577834   225A     -0.577824
     226A     -0.575684   227A     -0.575680   228A     -0.573430
     229A     -0.569605   230A     -0.568188   231A     -0.568165
     232A     -0.566803   233A     -0.566792   234A     -0.560952
     235A     -0.558769   236A     -0.558751   237A     -0.558466
     238A     -0.554419   239A     -0.550581   240A     -0.547512
     241A     -0.544292   242A     -0.535032   243A     -0.534993
     244A     -0.533578   245A     -0.533556   246A     -0.528121
     247A     -0.528105   248A     -0.527848   249A     -0.517208
     250A     -0.517174   251A     -0.515380   252A     -0.515375
     253A     -0.509686   254A     -0.509670   255A     -0.498075
     256A     -0.496495   257A     -0.496469   258A     -0.493787
     259A     -0.493777   260A     -0.489468   261A     -0.481495
     262A     -0.477444   263A     -0.477441   264A     -0.474041
     265A     -0.469494   266A     -0.466575   267A     -0.466570
     268A     -0.458819   269A     -0.446741   270A     -0.446681
     271A     -0.441053   272A     -0.440798   273A     -0.440774
     274A     -0.434714   275A     -0.433933   276A     -0.407397
     277A     -0.407373   278A     -0.386418   279A     -0.386370
     280A     -0.385757   281A     -0.385756   282A     -0.383774
     283A     -0.354347   284A     -0.354330   285A     -0.350680
     286A     -0.338095   287A     -0.335628   288A     -0.335556
     289A     -0.332738   290A     -0.332732   291A     -0.307091
     292A     -0.301951   293A     -0.301889   294A     -0.300875
     295A     -0.286194   296A     -0.256494   297A     -0.253522
     298A     -0.253468   299A     -0.204284   300A     -0.204195

  @DF-RHF Final Energy: -3650.33909926675597

   => Energetics <=

    Nuclear Repulsion Energy =          15611.4211649754324753
    One-Electron Energy =              -36072.1192632649763254
    Two-Electron Energy =               16810.3589990227883391
    Total Energy =                      -3650.3390992667555111
 Dipole X            :         -0.0004448            0.0002304           -0.0002143
 Dipole Y            :          0.0012013           -0.0013052           -0.0001040
 Dipole Z            :       -343.6089112          343.6113352            0.0024240
 Magnitude           :                                                    0.0024357

    SAPT Results
  --------------------------------------------------------------------------------------------------------
    Electrostatics                 10.30584974 [mEh]       6.46701835 [kcal/mol]      27.05800478 [kJ/mol]
      Elst10,r                     10.30584974 [mEh]       6.46701835 [kcal/mol]      27.05800478 [kJ/mol]

    Exchange                        3.54364082 [mEh]       2.22366818 [kcal/mol]       9.30382768 [kJ/mol]
      Exch10                        3.54364082 [mEh]       2.22366818 [kcal/mol]       9.30382768 [kJ/mol]
      Exch10(S^2)                   3.54336388 [mEh]       2.22349440 [kcal/mol]       9.30310058 [kJ/mol]

    Induction                     -12.83029982 [mEh]      -8.05113469 [kcal/mol]     -33.68594753 [kJ/mol]
      Ind20,r                     -13.40701936 [mEh]      -8.41303167 [kcal/mol]     -35.20012449 [kJ/mol]
      Exch-Ind20,r                  0.78616662 [mEh]       0.49332700 [kcal/mol]       2.06408018 [kJ/mol]
      delta HF,r (2)               -0.20944708 [mEh]      -0.13143003 [kcal/mol]      -0.54990323 [kJ/mol]

    Dispersion                     -5.59030664 [mEh]      -3.50797038 [kcal/mol]     -14.67734805 [kJ/mol]
      Disp20                       -6.10935189 [mEh]      -3.83367619 [kcal/mol]     -16.04010117 [kJ/mol]
      Exch-Disp20                   0.51904525 [mEh]       0.32570581 [kcal/mol]       1.36275312 [kJ/mol]
      Disp20 (SS)                  -3.05467594 [mEh]      -1.91683809 [kcal/mol]      -8.02005058 [kJ/mol]
      Disp20 (OS)                  -3.05467594 [mEh]      -1.91683809 [kcal/mol]      -8.02005058 [kJ/mol]
      Exch-Disp20 (SS)              0.30790696 [mEh]       0.19321454 [kcal/mol]       0.80840963 [kJ/mol]
      Exch-Disp20 (OS)              0.21113829 [mEh]       0.13249127 [kcal/mol]       0.55434349 [kJ/mol]

  Total HF                          1.01919074 [mEh]       0.63955184 [kcal/mol]       2.67588492 [kJ/mol]
  Total SAPT0                      -4.57111590 [mEh]      -2.86841853 [kcal/mol]     -12.00146313 [kJ/mol]

  Special recipe for scaled SAPT0 (see Manual):
    Electrostatics sSAPT0          10.30584974 [mEh]       6.46701835 [kcal/mol]      27.05800478 [kJ/mol]
    Exchange sSAPT0                 3.54364082 [mEh]       2.22366818 [kcal/mol]       9.30382768 [kJ/mol]
    Induction sSAPT0              -12.83011547 [mEh]      -8.05101901 [kcal/mol]     -33.68546353 [kJ/mol]
    Dispersion sSAPT0              -5.59018493 [mEh]      -3.50789400 [kcal/mol]     -14.67702850 [kJ/mol]
  Total sSAPT0                     -4.57080984 [mEh]      -2.86822648 [kcal/mol]     -12.00065958 [kJ/mol]
  --------------------------------------------------------------------------------------------------------

*** Psi4 exiting successfully. Buy a developer a beer!
