                               Psi4 1.9 release

  ==> Input File <==

--------------------------------------------------------------------------
memory 47 GB # how much memory is available ! Depends on the nodes/cores !

molecule dimer {
# monomer A
-1 1    # Charge and multiplicity
B -0.000046  0.000337 4.399994
F -1.153597  0.000048 5.215641
F  1.153661 -0.000581 5.215641
F -0.000019 -1.153637 3.584360
F -0.000019  1.153978 3.584360
--
# monomer B
0 1     # Charge and multiplicity
C   -3.66844126402057      7.80375217008252      0.00190004133558
C   -4.84759871934653      7.13124183134024     -0.00046653359696
C   -4.89495929917518      5.69633040353158     -0.00103944469517
C   -3.65374067877320      4.98073034095895      0.00662099703436
C   -2.40942512149445      7.11398103667468      0.00209438359570
C   -2.42547734410473      5.68112195090346     -0.00491050527438
C   -1.19474401643570      7.78614419430947      0.00356656413763
C   0.03795902893699      7.09942164575698      0.00139585983271
C   0.03033258741920      5.66948955970466     -0.00408752508301
C   -1.20098450790502      4.96927034791531      0.00488220885047
C   1.27795782581485      7.77285944319479      0.00277170839332
C   2.48535808472416      7.08769688523756      0.00049722048857
C   2.48612868491717      5.65477081024076     -0.00644052849921
C   1.25408291964399      4.95607811366431      0.00518741308898
C   3.75171459140595      7.76391215098033      0.00062407186893
C   4.92356605618520      7.07878077698995     -0.00143240883900
C   4.95560727132542      5.64344746336949     -0.00159282164606
C   3.70680153420475      4.94121020833308      0.00349873852374
H   -3.65852113775815      8.89082741913536      0.00358502958574
H   -1.18921332975660      8.87412108735996      0.00753844057883
H   1.28429423888630      8.86083343548850      0.00693053253426
H   3.75354208679975      8.85103527897216      0.00214659618464
H   5.86995870320703      7.61379483465560     -0.00235777588134
H   -5.78823170750226      7.67630221293400     -0.00202638095293
C   -6.09197395869619      4.99326001364347     -0.00291168518608
C   -6.12866148031747      3.58258016879823     -0.00171050815740
C   -3.66457974004527      3.56418217974434     -0.00463560277484
C   -4.89429820469869      2.86108077590057      0.00453338221034
C   -2.43733499489796      2.84761165708481      0.00719617576166
C   -1.20922785759670      3.54788693497833     -0.00648285103018
C   1.24714157216223      3.53468075142962     -0.00729145743546
C   0.01517603956900      2.83311183930540      0.00439272578912
C   2.46764517244071      2.82128997725533      0.00449278391269
C   3.70254947457969      3.52466015442405     -0.00899517692985
C   6.14498038638375      4.92757236613191     -0.00282626685777
C   6.16658835886151      3.51658447594213     -0.00065971342101
C   4.92460995845939      2.80840792535402      0.00587903281610
H   7.08990550964105      5.46688776622306     -0.00658814770723
H   -7.03104175110130      5.54268795285765     -0.00714490013730
C   -7.33969804112295      2.85841153457957     -0.00333767559888
C   -7.36488195805880      1.47032337158330     -0.00157213747140
C   -4.90350460894690      1.44442681216000     -0.00628840166334
C   -6.13225715261081      0.73993935705394      0.00600164231964
C   -3.67687480051673      0.72669714267312      0.00433931473643
C   -2.44565658606518      1.42964113326212     -0.00597039546461
C   -1.22360068130162      0.71532450163492      0.00545886906656
C   0.00763786931376      1.41738314923765      0.00392452278437
C   1.23121980774686      0.70211669058719     -0.01490206287210
C   2.46082110053113      1.40329203612573      0.00460244601878
C   3.68443025419614      0.68719842821222      0.00377365974158
C   4.91870890153864      1.39173456118907     -0.00862816189375
C   7.36980207796101      2.77948220318441     -0.00242013321349
C   7.38016266612146      1.39121750785509     -0.00087345036788
C   6.13979953912259      0.67411862320065      0.00545489144369
H   -8.27919079934664      3.40711804112415     -0.00763522772059
H   8.31511347147953      3.31811809662368     -0.00663070901292
C   -8.59175593758115      0.72483255304480     -0.00123170985383
C   -8.59902460370342     -0.63263980622873      0.00089141472904
C   -6.13981313911873     -0.67413663715361     -0.00609792660607
C   -7.38018411213749     -1.39126618958160      0.00131813493501
C   -4.91868448025621     -1.39175501803000      0.00624257154343
C   -3.68443829568458     -0.68723731573599     -0.00478966852105
C   -2.46081704024768     -1.40334517882457      0.00575341766833
C   -1.23116201232071     -0.70217386488055     -0.00636696112346
C   -0.00756962538737     -1.41741884941102      0.00108956317991
C   1.22364771588843     -0.71527537726392      0.01109518512883
C   2.44567064933149     -1.42964328900682     -0.00065482763106
C   3.67686670284649     -0.72670743155550     -0.00479541202602
C   6.13224884641929     -0.73997883984993     -0.00632338623858
C   4.90351914550401     -1.44445752054090      0.00751768830159
C   8.59901484869081      0.63260386666793     -0.00101133422380
C   8.59174548810050     -0.72485086719319      0.00072504603735
C   7.36486276438985     -1.47033266560598      0.00049486934466
H   -9.52830597181814      1.27684744919284     -0.00270163681798
H   9.54141097460619      1.17457248844457     -0.00206336648518
C   -7.36983790976868     -2.77954514593389      0.00312634335708
C   -4.92459910905015     -2.80843725734101     -0.00460528907921
C   -6.16662249566744     -3.51665219282533      0.00169655107992
C   -3.70251035970491     -3.52468154912026      0.00571878010666
C   -2.46764698511392     -2.82132596280400     -0.00632585824990
C   -0.01513347410770     -2.83314164539971     -0.00604426974092
C   -1.24712184122656     -3.53473217556300      0.00551968366725
C   1.20924506964357     -3.54791467864352      0.00805871345849
C   2.43733602215464     -2.84764173817541     -0.00608104485234
C   4.89430234377080     -2.86112296828604     -0.00526030478103
C   3.66461525504104     -3.56421984553201      0.00761911515957
C   6.12863901474565     -3.58258405771778      0.00096495711699
C   7.33967266469532     -2.85841330737039      0.00248018319869
H   -9.54144911125902     -1.17456346666430      0.00226083090216
H   9.52826186807155     -1.27691907390448      0.00197485379837
H   -8.31516504384864     -3.31814985321231      0.00729857188773
H   8.27915514249207     -3.40714078989363      0.00681973918158
C   -6.14499418870218     -4.92764727278338      0.00302254913999
C   -3.70678334799751     -4.94126171411716     -0.00679841894792
C   -4.95559005800169     -5.64349397349412      0.00116871569699
C   -2.48612132622665     -5.65478557440947      0.00614125209662
C   -1.25405833548005     -4.95612205000132     -0.00503435388927
C   1.20101257386816     -4.96928038819302     -0.00385322963129
C   -0.03033667441341     -5.66952030313900      0.00398997003238
C   3.65375010132847     -4.98074377541453     -0.00309522988330
C   2.42549269587528     -5.68117463552727      0.00628170066869
C   6.09196561781097     -4.99325796338655      0.00325918379042
C   4.89497644461045     -5.69634842095790      0.00202298796027
H   -7.08989238804069     -5.46699984223871      0.00742531082125
H   7.03105520920009     -5.54265853633254      0.00683896355417
C   -4.92354532219813     -7.07882109967734      0.00061394679214
C   -2.48534208823777     -7.08772807792913     -0.00189594564379
C   -3.75168589177895     -7.76394715763627     -0.00170126671874
C   -0.03794895698805     -7.09946487446944     -0.00168022049625
C   -1.27795610040136     -7.77290438466689     -0.00366491325785
C   2.40944432072629     -7.11402201200282     -0.00081701968533
C   1.19474993715296     -7.78618536556242     -0.00296931056689
C   4.84762105249800     -7.13126211057943      0.00168979497423
C   3.66847160587561     -7.80378799294376     -0.00065863938960
H   -5.86994035041618     -7.61383059804164      0.00215798365757
H   5.78824962538815     -7.67633218931421      0.00281691445618
H   -3.75352693944918     -8.85107156923607     -0.00353718114765
H   -1.28430440589466     -8.86087539249706     -0.00809229711623
H   1.18922157469537     -8.87416062058945     -0.00706194725726
H   3.65854661482387     -8.89086063405326     -0.00231318081200

    units angstrom      # Angstroms are the default
    no_reorient         # Geometry fixed, default
    symmetry c1         # C1 symmetry, default
}

set {
    scf_type DF         # Density fitting, faster than exact integrals
    freeze_core True    # Freeze core electrons
    basis jun-cc-pVDZ   # Jun-cc-pVDZ basis set, recommended for sSAPT0 in https://doi.org/10.1063/1.4867135
}

energy('ssapt0')        # Compute sSAPT0 energy, includes also SAPT0
--------------------------------------------------------------------------

  //              Dimer HF             //
    Molecular point group: c1
  Charge       = -1
  Multiplicity = 1
  Basis Set: JUN-CC-PVDZ
    Blend: JUN-CC-PVDZ
  Basis Set: (JUN-CC-PVDZ AUX)
    Blend: JUN-CC-PVDZ-JKFIT
  @DF-RHF Final Energy: -4073.11143872433922
    Total Energy =                      -4073.1114387243396777
 Dipole X            :          0.0008878           -0.0001188            0.0007690
 Dipole Y            :          0.0013595           -0.0002727            0.0010868
 Dipole Z            :         19.8357700          -26.1854109           -6.3496409
 Magnitude           :                                                    6.3496411
  //            Monomer A HF           //
    Molecular point group: c1
  Multiplicity = 1
  Basis Set: JUN-CC-PVDZ
    Blend: JUN-CC-PVDZ
  Basis Set: (JUN-CC-PVDZ AUX)
    Blend: JUN-CC-PVDZ-JKFIT
  @DF-RHF Final Energy:  -422.77262154530246
    Total Energy =                       -422.7726215453024565
  //            Monomer B HF           //
    Molecular point group: c1

    Geometry (in Angstrom), charge = 0, multiplicity = 1:

       Center              X                  Y                   Z               Mass
    ------------   -----------------  -----------------  -----------------  -----------------
      Gh(B)          -0.000050191042     0.000351518223     4.096938608989    11.009305360000
      Gh(F)          -1.153601191042     0.000062518223     4.912585608989    18.998403162730
      Gh(F)           1.153656808958    -0.000566481777     4.912585608989    18.998403162730
      Gh(F)          -0.000023191042    -1.153622481777     3.281304608989    18.998403162730
      Gh(F)          -0.000023191042     1.153992518223     3.281304608989    18.998403162730
         C           -3.668445455062     7.803766688305    -0.301155349676    12.000000000000
         C           -4.847602910388     7.131256349563    -0.303521924608    12.000000000000
         C           -4.894963490217     5.696344921754    -0.304094835706    12.000000000000
         C           -3.653744869815     4.980744859182    -0.296434393977    12.000000000000
         C           -2.409429312536     7.113995554897    -0.300961007415    12.000000000000
         C           -2.425481535146     5.681136469126    -0.307965896286    12.000000000000
         C           -1.194748207477     7.786158712532    -0.299488826874    12.000000000000
         C            0.037954837895     7.099436163980    -0.301659531178    12.000000000000
         C            0.030328396378     5.669504077927    -0.307142916094    12.000000000000
         C           -1.200988698947     4.969284866138    -0.298173182161    12.000000000000
         C            1.277953634773     7.772873961417    -0.300283682618    12.000000000000
         C            2.485353893683     7.087711403460    -0.302558170523    12.000000000000
         C            2.486124493876     5.654785328463    -0.309495919510    12.000000000000
         C            1.254078728602     4.956092631887    -0.297867977922    12.000000000000
         C            3.751710400364     7.763926669203    -0.302431319142    12.000000000000
         C            4.923561865144     7.078795295213    -0.304487799850    12.000000000000
         C            4.955603080284     5.643461981592    -0.304648212657    12.000000000000
         C            3.706797343163     4.941224726556    -0.299556652487    12.000000000000
         H           -3.658525328800     8.890841937358    -0.299470361425     1.007825032230
         H           -1.189217520798     8.874135605583    -0.295516950432     1.007825032230
         H            1.284290047845     8.860847953711    -0.296124858477     1.007825032230
         H            3.753537895758     8.851049797195    -0.300908794827     1.007825032230
         H            5.869954512165     7.613809352878    -0.305413166893     1.007825032230
         H           -5.788235898544     7.676316731157    -0.305081771964     1.007825032230
         C           -6.091978149738     4.993274531866    -0.305967076197    12.000000000000
         C           -6.128665671359     3.582594687021    -0.304765899169    12.000000000000
         C           -3.664583931087     3.564196697967    -0.307690993786    12.000000000000
         C           -4.894302395740     2.861095294123    -0.298522008801    12.000000000000
         C           -2.437339185940     2.847626175307    -0.295859215250    12.000000000000
         C           -1.209232048638     3.547901453201    -0.309538242041    12.000000000000
         C            1.247137381121     3.534695269652    -0.310346848447    12.000000000000
         C            0.015171848527     2.833126357528    -0.298662665222    12.000000000000
         C            2.467640981399     2.821304495478    -0.298562607099    12.000000000000
         C            3.702545283538     3.524674672647    -0.312050567941    12.000000000000
         C            6.144976195342     4.927586884354    -0.305881657869    12.000000000000
         C            6.166584167820     3.516598994165    -0.303715104432    12.000000000000
         C            4.924605767418     2.808422443577    -0.297176358195    12.000000000000
         H            7.089901318599     5.466902284446    -0.309643538718     1.007825032230
         H           -7.031045942143     5.542702471080    -0.310200291148     1.007825032230
         C           -7.339702232165     2.858426052802    -0.306393066610    12.000000000000
         C           -7.364886149100     1.470337889806    -0.304627528483    12.000000000000
         C           -4.903508799989     1.444441330383    -0.309343792675    12.000000000000
         C           -6.132261343652     0.739953875277    -0.297053748692    12.000000000000
         C           -3.676878991558     0.726711660896    -0.298716076275    12.000000000000
         C           -2.445660777107     1.429655651485    -0.309025786476    12.000000000000
         C           -1.223604872343     0.715339019858    -0.297596521945    12.000000000000
         C            0.007633678272     1.417397667460    -0.299130868227    12.000000000000
         C            1.231215616705     0.702131208810    -0.317957453883    12.000000000000
         C            2.460816909489     1.403306554348    -0.298452944992    12.000000000000
         C            3.684426063155     0.687212946435    -0.299281731270    12.000000000000
         C            4.918704710497     1.391749079412    -0.311683552905    12.000000000000
         C            7.369797886919     2.779496721407    -0.305475524225    12.000000000000
         C            7.380158475080     1.391232026078    -0.303928841379    12.000000000000
         C            6.139795348081     0.674133141423    -0.297600499568    12.000000000000
         H           -8.279194990388     3.407132559347    -0.310690618732     1.007825032230
         H            8.315109280438     3.318132614846    -0.309686100024     1.007825032230
         C           -8.591760128623     0.724847071267    -0.304287100865    12.000000000000
         C           -8.599028794745    -0.632625288006    -0.302163976282    12.000000000000
         C           -6.139817330160    -0.674122118931    -0.309153317617    12.000000000000
         C           -7.380188303179    -1.391251671359    -0.301737256076    12.000000000000
         C           -4.918688671298    -1.391740499807    -0.296812819468    12.000000000000
         C           -3.684442486726    -0.687222797513    -0.307845059532    12.000000000000
         C           -2.460821231289    -1.403330660602    -0.297301973343    12.000000000000
         C           -1.231166203362    -0.702159346658    -0.309422352135    12.000000000000
         C           -0.007573816429    -1.417404331188    -0.301965827831    12.000000000000
         C            1.223643524847    -0.715260859041    -0.291960205882    12.000000000000
         C            2.445666458290    -1.429628770784    -0.303710218642    12.000000000000
         C            3.676862511805    -0.726692913333    -0.307850803037    12.000000000000
         C            6.132244655378    -0.739964321627    -0.309378777250    12.000000000000
         C            4.903514954462    -1.444443002318    -0.295537702710    12.000000000000
         C            8.599010657649     0.632618384891    -0.304066725235    12.000000000000
         C            8.591741297059    -0.724836348971    -0.302330344974    12.000000000000
         C            7.364858573348    -1.470318147383    -0.302560521667    12.000000000000
         H           -9.528310162860     1.276861967415    -0.305757027829     1.007825032230
         H            9.541406783565     1.174587006667    -0.305118757496     1.007825032230
         C           -7.369842100810    -2.779530627711    -0.299929047654    12.000000000000
         C           -4.924603300092    -2.808422739118    -0.307660680090    12.000000000000
         C           -6.166626686709    -3.516637674603    -0.301358839931    12.000000000000
         C           -3.702514550747    -3.524667030898    -0.297336610905    12.000000000000
         C           -2.467651176156    -2.821311444581    -0.309381249261    12.000000000000
         C           -0.015137665149    -2.833127127177    -0.309099660752    12.000000000000
         C           -1.247126032268    -3.534717657340    -0.297535707344    12.000000000000
         C            1.209240878602    -3.547900160421    -0.294996677553    12.000000000000
         C            2.437331831113    -2.847627219953    -0.309136435864    12.000000000000
         C            4.894298152729    -2.861108450063    -0.308315695792    12.000000000000
         C            3.664611063999    -3.564205327309    -0.295436275852    12.000000000000
         C            6.128634823704    -3.582569539495    -0.302090433894    12.000000000000
         C            7.339668473654    -2.858398789148    -0.300575207813    12.000000000000
         H           -9.541453302301    -1.174548948442    -0.300794560109     1.007825032230
         H            9.528257677030    -1.276904555682    -0.301080537213     1.007825032230
         H           -8.315169234890    -3.318135334990    -0.295756819123     1.007825032230
         H            8.279150951450    -3.407126271671    -0.296235651830     1.007825032230
         C           -6.144998379744    -4.927632754561    -0.300032841871    12.000000000000
         C           -3.706787539039    -4.941247195895    -0.309853809959    12.000000000000
         C           -4.955594249043    -5.643479455272    -0.301886675314    12.000000000000
         C           -2.486125517268    -5.654771056187    -0.296914138915    12.000000000000
         C           -1.254062526522    -4.956107531779    -0.308089744900    12.000000000000
         C            1.201008382827    -4.969265869970    -0.306908620642    12.000000000000
         C           -0.030340865455    -5.669505784916    -0.299065420979    12.000000000000
         C            3.653745910287    -4.980729257192    -0.306150620894    12.000000000000
         C            2.425488504834    -5.681160117305    -0.296773690343    12.000000000000
         C            6.091961426769    -4.993243445164    -0.299796207221    12.000000000000
         C            4.894972253569    -5.696333902735    -0.301032403051    12.000000000000
         H           -7.089896579082    -5.466985324016    -0.295630080190     1.007825032230
         H            7.031051018158    -5.542644018110    -0.296216427457     1.007825032230
         C           -4.923549513240    -7.078806581455    -0.302441444219    12.000000000000
         C           -2.485346279279    -7.087713559707    -0.304951336655    12.000000000000
         C           -3.751690082821    -7.763932639414    -0.304756657730    12.000000000000
         C           -0.037953148030    -7.099450356247    -0.304735611507    12.000000000000
         C           -1.277960291443    -7.772889866444    -0.306720304269    12.000000000000
         C            2.409440129685    -7.114007493780    -0.303872410697    12.000000000000
         C            1.194745746111    -7.786170847340    -0.306024701578    12.000000000000
         C            4.847616861456    -7.131247592357    -0.301365596037    12.000000000000
         C            3.668467414834    -7.803773474721    -0.303714030401    12.000000000000
         H           -5.869944541458    -7.613816079819    -0.300897407354     1.007825032230
         H            5.788245434347    -7.676317671092    -0.300238476555     1.007825032230
         H           -3.753531130491    -8.851057051013    -0.306592572159     1.007825032230
         H           -1.284308596936    -8.860860874274    -0.311147688127     1.007825032230
         H            1.189217383654    -8.874146102367    -0.310117338268     1.007825032230
         H            3.658542423782    -8.890846115831    -0.305368571823     1.007825032230

  Charge       = 0
  Multiplicity = 1
  Basis Set: JUN-CC-PVDZ
    Blend: JUN-CC-PVDZ
  Basis Set: (JUN-CC-PVDZ AUX)
    Blend: JUN-CC-PVDZ-JKFIT

    Orbital Energies [Eh]
    ---------------------

    Doubly Occupied:

       1A    -11.264091     2A    -11.263778     3A    -11.263705
       4A    -11.263379     5A    -11.263318     6A    -11.263297
       7A    -11.263174     8A    -11.263147     9A    -11.263122
      10A    -11.262925    11A    -11.262792    12A    -11.262788
      13A    -11.262303    14A    -11.262294    15A    -11.262265
      16A    -11.262243    17A    -11.262156    18A    -11.262141
      19A    -11.262103    20A    -11.262065    21A    -11.262046
      22A    -11.261949    23A    -11.261921    24A    -11.261787
      25A    -11.261776    26A    -11.261762    27A    -11.261744
      28A    -11.261713    29A    -11.261697    30A    -11.261609
      31A    -11.261589    32A    -11.261584    33A    -11.261570
      34A    -11.261557    35A    -11.261554    36A    -11.261537
      37A    -11.261358    38A    -11.261349    39A    -11.261341
      40A    -11.261335    41A    -11.261330    42A    -11.261325
      43A    -11.261314    44A    -11.261297    45A    -11.261294
      46A    -11.261269    47A    -11.261266    48A    -11.261260
      49A    -11.261092    50A    -11.261063    51A    -11.261059
      52A    -11.260998    53A    -11.260972    54A    -11.260922
      55A    -11.259946    56A    -11.259934    57A    -11.259928
      58A    -11.259903    59A    -11.259896    60A    -11.259882
      61A    -11.259318    62A    -11.259293    63A    -11.259288
      64A    -11.259238    65A    -11.259233    66A    -11.259205
      67A    -11.258949    68A    -11.258934    69A    -11.258926
      70A    -11.258903    71A    -11.258896    72A    -11.258886
      73A    -11.254546    74A    -11.254545    75A    -11.254543
      76A    -11.254540    77A    -11.254536    78A    -11.254535
      79A    -11.253681    80A    -11.253680    81A    -11.253676
      82A    -11.253675    83A    -11.253674    84A    -11.253670
      85A    -11.253596    86A    -11.253595    87A    -11.253591
      88A    -11.253590    89A    -11.253590    90A    -11.253585
      91A    -11.253074    92A    -11.253073    93A    -11.253071
      94A    -11.253068    95A    -11.253064    96A    -11.253062
      97A     -1.253978    98A     -1.239040    99A     -1.239024
     100A     -1.220497   101A     -1.220493   102A     -1.215468
     103A     -1.201072   104A     -1.195638   105A     -1.188177
     106A     -1.188166   107A     -1.173797   108A     -1.173790
     109A     -1.155662   110A     -1.155658   111A     -1.152742
     112A     -1.144753   113A     -1.144749   114A     -1.128601
     115A     -1.114747   116A     -1.113191   117A     -1.112507
     118A     -1.112500   119A     -1.111648   120A     -1.088463
     121A     -1.088443   122A     -1.076989   123A     -1.076988
     124A     -1.067646   125A     -1.067619   126A     -1.065000
     127A     -1.046832   128A     -1.046825   129A     -1.040513
     130A     -1.038763   131A     -1.038762   132A     -1.025273
     133A     -1.021414   134A     -1.021368   135A     -1.007210
     136A     -1.006845   137A     -1.003825   138A     -1.000520
     139A     -1.000473   140A     -0.991102   141A     -0.971020
     142A     -0.970972   143A     -0.955911   144A     -0.955856
     145A     -0.905625   146A     -0.905578   147A     -0.905576
     148A     -0.905537   149A     -0.904364   150A     -0.892397
     151A     -0.892347   152A     -0.890399   153A     -0.890333
     154A     -0.889489   155A     -0.872244   156A     -0.869080
     157A     -0.851569   158A     -0.847898   159A     -0.847878
     160A     -0.845628   161A     -0.843051   162A     -0.834596
     163A     -0.834582   164A     -0.828141   165A     -0.828140
     166A     -0.784579   167A     -0.784565   168A     -0.783692
     169A     -0.783659   170A     -0.782316   171A     -0.782301
     172A     -0.782064   173A     -0.767023   174A     -0.760822
     175A     -0.750601   176A     -0.733512   177A     -0.727098
     178A     -0.727090   179A     -0.725114   180A     -0.724568
     181A     -0.724556   182A     -0.718517   183A     -0.713801
     184A     -0.713794   185A     -0.699599   186A     -0.699595
     187A     -0.686148   188A     -0.685983   189A     -0.685983
     190A     -0.682205   191A     -0.682190   192A     -0.678796
     193A     -0.653649   194A     -0.650897   195A     -0.650870
     196A     -0.649842   197A     -0.649821   198A     -0.649592
     199A     -0.640947   200A     -0.640935   201A     -0.640116
     202A     -0.639188   203A     -0.636043   204A     -0.636023
     205A     -0.629171   206A     -0.617749   207A     -0.615328
     208A     -0.615310   209A     -0.608829   210A     -0.608822
     211A     -0.599166   212A     -0.599088   213A     -0.598768
     214A     -0.598644   215A     -0.598607   216A     -0.598059
     217A     -0.595093   218A     -0.595081   219A     -0.594748
     220A     -0.594261   221A     -0.591980   222A     -0.591977
     223A     -0.587417   224A     -0.577817   225A     -0.577808
     226A     -0.575678   227A     -0.575673   228A     -0.573408
     229A     -0.569595   230A     -0.568161   231A     -0.568144
     232A     -0.566782   233A     -0.566765   234A     -0.560935
     235A     -0.558738   236A     -0.558727   237A     -0.558449
     238A     -0.554394   239A     -0.550567   240A     -0.547495
     241A     -0.544278   242A     -0.535070   243A     -0.534967
     244A     -0.533559   245A     -0.533536   246A     -0.528100
     247A     -0.528086   248A     -0.527817   249A     -0.517184
     250A     -0.517151   251A     -0.515365   252A     -0.515358
     253A     -0.509667   254A     -0.509648   255A     -0.498052
     256A     -0.496474   257A     -0.496447   258A     -0.493802
     259A     -0.493781   260A     -0.489455   261A     -0.481475
     262A     -0.477431   263A     -0.477425   264A     -0.474018
     265A     -0.469467   266A     -0.466551   267A     -0.466545
     268A     -0.458812   269A     -0.446713   270A     -0.446649
     271A     -0.441044   272A     -0.440780   273A     -0.440763
     274A     -0.434698   275A     -0.433920   276A     -0.407384
     277A     -0.407363   278A     -0.386414   279A     -0.386362
     280A     -0.385743   281A     -0.385740   282A     -0.383762
     283A     -0.354325   284A     -0.354313   285A     -0.350670
     286A     -0.338108   287A     -0.335628   288A     -0.335525
     289A     -0.332723   290A     -0.332714   291A     -0.307073
     292A     -0.301944   293A     -0.301894   294A     -0.300854
     295A     -0.286183   296A     -0.256478   297A     -0.253518
     298A     -0.253449   299A     -0.204270   300A     -0.204185

  @DF-RHF Final Energy: -3650.33948674996918

   => Energetics <=

    Nuclear Repulsion Energy =          15611.4211649754324753
    One-Electron Energy =              -36072.1307702508420334
    Two-Electron Energy =               16810.3701185254394659
    Total Energy =                      -3650.3394867499700922
 Dipole X            :         -0.0004253            0.0001983           -0.0002269
 Dipole Y            :          0.0011448           -0.0013163           -0.0001715
 Dipole Z            :        343.6093090         -343.6116220           -0.0023130
 Magnitude           :                                                    0.0023304

    SAPT Results
  --------------------------------------------------------------------------------------------------------
    Electrostatics                 11.44980331 [mEh]       7.18486005 [kcal/mol]      30.06145445 [kJ/mol]
      Elst10,r                     11.44980331 [mEh]       7.18486005 [kcal/mol]      30.06145445 [kJ/mol]

    Exchange                        1.16526379 [mEh]       0.73121407 [kcal/mol]       3.05939965 [kJ/mol]
      Exch10                        1.16526379 [mEh]       0.73121407 [kcal/mol]       3.05939965 [kJ/mol]
      Exch10(S^2)                   1.16520092 [mEh]       0.73117462 [kcal/mol]       3.05923460 [kJ/mol]

    Induction                     -11.94549616 [mEh]      -7.49591201 [kcal/mol]     -31.36289585 [kJ/mol]
      Ind20,r                     -12.17007836 [mEh]      -7.63683947 [kcal/mol]     -31.95253634 [kJ/mol]
      Exch-Ind20,r                  0.25512490 [mEh]       0.16009329 [kcal/mol]       0.66983034 [kJ/mol]
      delta HF,r (2)               -0.03054270 [mEh]      -0.01916583 [kcal/mol]      -0.08018985 [kJ/mol]

    Dispersion                     -4.66078879 [mEh]      -2.92468912 [kcal/mol]     -12.23689929 [kJ/mol]
      Disp20                       -4.88629502 [mEh]      -3.06619642 [kcal/mol]     -12.82896580 [kJ/mol]
      Exch-Disp20                   0.22550622 [mEh]       0.14150729 [kcal/mol]       0.59206651 [kJ/mol]
      Disp20 (SS)                  -2.44314751 [mEh]      -1.53309821 [kcal/mol]      -6.41448290 [kJ/mol]
      Disp20 (OS)                  -2.44314751 [mEh]      -1.53309821 [kcal/mol]      -6.41448290 [kJ/mol]
      Exch-Disp20 (SS)              0.14248302 [mEh]       0.08940945 [kcal/mol]       0.37408912 [kJ/mol]
      Exch-Disp20 (OS)              0.08302320 [mEh]       0.05209785 [kcal/mol]       0.21797739 [kJ/mol]

  Total HF                          0.66957093 [mEh]       0.42016210 [kcal/mol]       1.75795824 [kJ/mol]
  Total SAPT0                      -3.99121786 [mEh]      -2.50452702 [kcal/mol]     -10.47894105 [kJ/mol]

  Special recipe for scaled SAPT0 (see Manual):
    Electrostatics sSAPT0          11.44980331 [mEh]       7.18486005 [kcal/mol]      30.06145445 [kJ/mol]
    Exchange sSAPT0                 1.16526379 [mEh]       0.73121407 [kcal/mol]       3.05939965 [kJ/mol]
    Induction sSAPT0              -11.94545487 [mEh]      -7.49588610 [kcal/mol]     -31.36278744 [kJ/mol]
    Dispersion sSAPT0              -4.66075229 [mEh]      -2.92466622 [kcal/mol]     -12.23680346 [kJ/mol]
  Total sSAPT0                     -3.99114007 [mEh]      -2.50447820 [kcal/mol]     -10.47873680 [kJ/mol]
  --------------------------------------------------------------------------------------------------------

*** Psi4 exiting successfully. Buy a developer a beer!
