                               Psi4 1.9 release

  ==> Input File <==

--------------------------------------------------------------------------
memory 32 GB # how much memory is available ! Depends on the nodes/cores !

molecule dimer {
# monomer A
+1 1    # Charge and multiplicity
C  0.680067 -1.215929 7.208042
C -0.680504 -1.215545 7.206014
N -1.085635  0.102779 7.205016
C  0.000108  0.884180 7.201740
C -2.477365  0.570758 7.155610
N  1.085222  0.102779 7.205016
H  1.385146 -2.033368 7.215870
H -1.385302 -2.033214 7.206204
H -0.000009  1.965269 7.199993
C  2.478117  0.567877 7.221908
H  2.490592  1.658130 7.194563
H  2.967028  0.220701 8.135354
H  3.001428  0.176405 6.346425
H -2.857359  0.490799 6.133539
H -3.082679 -0.042306 7.825694
H -2.518128  1.610706 7.482594
--
# monomer B
0 1     # Charge and multiplicity
C   1.22531237526482      0.70753866091955      0.00613762728373
C   1.22532433589282     -0.70753852257020     -0.00619318228664
C   -0.00000567409046      1.41496628609039     -0.00672680580738
C   2.45644923379077      1.41832825917820      0.00902448468363
C   0.00001130712078     -1.41497612663474      0.00347275151708
C   -1.22530046906674      0.70754574598412      0.00838914760619
C   2.45643823516184     -1.41832293188077     -0.00843833914343
C   -0.00000085313587      2.83680140328112     -0.00913035594137
C   3.68182717731192      0.70931832800114     -0.00808954934571
C   2.45512052870677      2.83422403348893     -0.00819210630633
C   3.68182158506039     -0.70933346742900      0.00798293467272
C   -1.22531311884624     -0.70752714354401     -0.00512042085974
C   1.22670006104402      3.54346985599427      0.00816696660346
C   0.00000526469929     -2.83678176723568      0.00832091913869
C   -2.45643555300670      1.41831729028492      0.00842454345199
C   2.45512389762097     -2.83422965658853      0.00783102630520
C   -1.22671388474763      3.54346943575023      0.00827029982280
C   4.91451777504333      1.42717324448953     -0.00160886631602
C   3.69315067131765      3.54279566454522     -0.00155906667985
C   -2.45643712022637     -1.41831290883911     -0.00846337726810
C   1.22670532178455     -3.54347386990643     -0.00780316414624
C   -2.45512491866593      2.83421703463423     -0.00818572995999
C   4.91452486062398     -1.42718653794377      0.00136387641845
C   1.22142509354026      4.97013443726031      0.00150231067809
C   4.89300870916237      2.82518837202648     -0.00039219795739
C   -1.22669652864725     -3.54347062507680     -0.00753595973677
C   -3.68181849668397      0.70932533873199     -0.00807686886569
C   3.69314758099218     -3.54280096939050      0.00148176697923
C   -1.22143177215231      4.97012866986289      0.00168580605083
C   6.13477145276790      0.68054831910577     -0.00083909176631
C   3.65678936045204      4.97295361556775     -0.00065042889723
C   -2.45512642789169     -2.83421472106065      0.00758666850712
C   -3.68181869921921     -0.70932533146830      0.00810055625144
C   4.89301309775526     -2.82519973363176      0.00021895393805
C   -0.00000059327114      5.65044773803267      0.00045449734393
C   6.13477559217374     -0.68055448207492      0.00042622874941
C   2.47813196269732      5.65357712333155      0.00063835075260
C   1.22142288457925     -4.97012668293268     -0.00129718634452
C   -3.69316190412301      3.54279732619245     -0.00139355922051
C   -1.22142804110313     -4.97011793159564     -0.00140994817719
C   -4.91452132810043      1.42717581899491     -0.00153192130862
C   3.65678749952045     -4.97295485423912      0.00080007163680
C   -2.47813805026426      5.65357479452875      0.00092287576113
C   -3.69314125872231     -3.54278984697859      0.00136564082345
C   -4.91451200321153     -1.42718062802730      0.00139857359209
C   -0.00000552908399     -5.65043791501335      0.00005899322272
C   -4.89302000425900      2.82518897091939     -0.00040227981744
C   2.47812647313991     -5.65357317188818     -0.00029052915548
C   -3.65679823041642      4.97295655404175     -0.00047374852278
C   -4.89299899901461     -2.82519139505969      0.00006491824035
C   -2.47812801824129     -5.65356579800621     -0.00056571680280
C   -6.13477002348955      0.68054913825639     -0.00086464346868
C   -3.65678835334731     -4.97294365097028      0.00058578382008
C   -6.13476456307132     -0.68055354348201      0.00040575295444
H   5.83528897565761      3.36927626695423      0.00396712770529
H   7.07385965258860      1.22821762089947     -0.00037744837300
H   4.60066374401555      5.51238117445323     -0.00014522814529
H   5.83528386714679     -3.36930568472863     -0.00423551337640
H   -0.00001167146422      6.73853104613662     -0.00389474766392
H   7.07386165167227     -1.22822657074368     -0.00008250934481
H   2.47331421164041      6.74068466339473      0.00017162982210
H   4.60066897122302     -5.51237575717576      0.00039007446835
H   -2.47331820069565      6.74068209160650      0.00047297644710
H   -0.00000978838621     -6.73852780445195      0.00458867820736
H   -5.83530143450167      3.36927132229595      0.00410314985360
H   2.47330840367253     -6.74068500242887      0.00027980126949
H   -4.60067436136587      5.51237839860371      0.00002010017831
H   -5.83527902699321     -3.36928859177951     -0.00451481925734
H   -2.47329986759855     -6.74067870613986     -0.00016951527498
H   -7.07385728692578      1.22822084484047     -0.00046143985387
H   -4.60067330624313     -5.51236229778631      0.00021776644566
H   -7.07385645456741     -1.22822025997701     -0.00017736581114

    units angstrom      # Angstroms are the default
    no_reorient         # Geometry fixed, default
    symmetry c1         # C1 symmetry, default
}

set {
    scf_type DF         # Density fitting, faster than exact integrals
    freeze_core True    # Freeze core electrons
    basis jun-cc-pVDZ   # Jun-cc-pVDZ basis set, recommended for sSAPT0 in https://doi.org/10.1063/1.4867135
}

energy('ssapt0')        # Compute sSAPT0 energy, includes also SAPT0
--------------------------------------------------------------------------

  //              Dimer HF             //
    Molecular point group: c1
  Charge       = 1
  Multiplicity = 1
  Basis Set: JUN-CC-PVDZ
    Blend: JUN-CC-PVDZ
  Basis Set: (JUN-CC-PVDZ AUX)
    Blend: JUN-CC-PVDZ-JKFIT
  @DF-RHF Final Energy: -2359.19727683032488
    Total Energy =                      -2359.1972768303257908
 Dipole X            :          0.0027102            0.0006313            0.0033415
 Dipole Y            :         -1.5062211            1.8864948            0.3802737
 Dipole Z            :        -26.3718977           37.4753323           11.1034346
 Magnitude           :                                                   11.1099451
  //            Monomer A HF           //
    Molecular point group: c1
  Multiplicity = 1
  Basis Set: JUN-CC-PVDZ
    Blend: JUN-CC-PVDZ
  Basis Set: (JUN-CC-PVDZ AUX)
    Blend: JUN-CC-PVDZ-JKFIT
  @DF-RHF Final Energy:  -303.29723311107495
    Total Energy =                       -303.2972331110749451
  //            Monomer B HF           //
    Molecular point group: c1

    Geometry (in Angstrom), charge = 0, multiplicity = 1:

       Center              X                  Y                   Z               Mass
    ------------   -----------------  -----------------  -----------------  -----------------
      Gh(C)           0.680066520158    -1.215933861162     6.292248358016    12.000000000000
      Gh(C)          -0.680504479842    -1.215549861162     6.290220358016    12.000000000000
      Gh(N)          -1.085635479842     0.102774138838     6.289222358016    14.003074004430
      Gh(C)           0.000107520158     0.884175138838     6.285946358016    12.000000000000
      Gh(C)          -2.477365479842     0.570753138838     6.239816358016    12.000000000000
      Gh(N)           1.085221520158     0.102774138838     6.289222358016    14.003074004430
      Gh(H)           1.385145520158    -2.033372861162     6.300076358016     1.007825032230
      Gh(H)          -1.385302479842    -2.033218861162     6.290410358016     1.007825032230
      Gh(H)          -0.000009479842     1.965264138838     6.284199358016     1.007825032230
      Gh(C)           2.478116520158     0.567872138838     6.306114358016    12.000000000000
      Gh(H)           2.490591520158     1.658125138838     6.278769358016     1.007825032230
      Gh(H)           2.967027520158     0.220696138838     7.219560358016     1.007825032230
      Gh(H)           3.001427520158     0.176400138838     5.430631358016     1.007825032230
      Gh(H)          -2.857359479842     0.490794138838     5.217745358016     1.007825032230
      Gh(H)          -3.082679479842    -0.042310861162     6.909900358016     1.007825032230
      Gh(H)          -2.518128479842     1.610701138838     6.566800358016     1.007825032230
         C            1.225311895423     0.707533799757    -0.909656014701    12.000000000000
         C            1.225323856051    -0.707543383733    -0.921986824271    12.000000000000
         C           -0.000006153932     1.414961424928    -0.922520447792    12.000000000000
         C            2.456448753949     1.418323398016    -0.906769157301    12.000000000000
         C            0.000010827279    -1.414980987797    -0.912320890467    12.000000000000
         C           -1.225300948908     0.707540884822    -0.907404494378    12.000000000000
         C            2.456437755320    -1.418327793043    -0.924231981128    12.000000000000
         C           -0.000001332978     2.836796542119    -0.924923997926    12.000000000000
         C            3.681826697470     0.709313466839    -0.923883191330    12.000000000000
         C            2.455120048865     2.834219172327    -0.923985748291    12.000000000000
         C            3.681821105219    -0.709338328591    -0.907810707312    12.000000000000
         C           -1.225313598688    -0.707532004706    -0.920914062844    12.000000000000
         C            1.226699581202     3.543464994832    -0.907626675381    12.000000000000
         C            0.000004784858    -2.836786628398    -0.907472722846    12.000000000000
         C           -2.456436032848     1.418312429123    -0.907369098533    12.000000000000
         C            2.455123417779    -2.834234517751    -0.907962615679    12.000000000000
         C           -1.226714364589     3.543464574588    -0.907523342162    12.000000000000
         C            4.914517295202     1.427168383327    -0.917402508301    12.000000000000
         C            3.693150191476     3.542790803383    -0.917352708664    12.000000000000
         C           -2.456437600068    -1.418317770001    -0.924257019253    12.000000000000
         C            1.226704841943    -3.543478731069    -0.923596806131    12.000000000000
         C           -2.455125398508     2.834212173472    -0.923979371944    12.000000000000
         C            4.914524380782    -1.427191399106    -0.914429765566    12.000000000000
         C            1.221424613699     4.970129576098    -0.914291331306    12.000000000000
         C            4.893008229321     2.825183510864    -0.916185839942    12.000000000000
         C           -1.226697008489    -3.543475486239    -0.923329601721    12.000000000000
         C           -3.681818976526     0.709320477570    -0.923870510850    12.000000000000
         C            3.693147101150    -3.542805830553    -0.914311875005    12.000000000000
         C           -1.221432251994     4.970123808701    -0.914107835934    12.000000000000
         C            6.134770972926     0.680543457943    -0.916632733751    12.000000000000
         C            3.656788880610     4.972948754405    -0.916444070882    12.000000000000
         C           -2.455126907733    -2.834219582223    -0.908206973477    12.000000000000
         C           -3.681819179061    -0.709330192631    -0.907693085733    12.000000000000
         C            4.893012617914    -2.825204594794    -0.915574688046    12.000000000000
         C           -0.000001073113     5.650442876870    -0.915339144641    12.000000000000
         C            6.134775112332    -0.680559343237    -0.915367413235    12.000000000000
         C            2.478131482856     5.653572262169    -0.915155291232    12.000000000000
         C            1.221422404738    -4.970131544095    -0.917090828329    12.000000000000
         C           -3.693162383965     3.542792465030    -0.917187201205    12.000000000000
         C           -1.221428520945    -4.970122792758    -0.917203590162    12.000000000000
         C           -4.914521807942     1.427170957833    -0.917325563293    12.000000000000
         C            3.656787019679    -4.972959715401    -0.914993570348    12.000000000000
         C           -2.478138530106     5.653569933366    -0.914870766223    12.000000000000
         C           -3.693141738564    -3.542794708141    -0.914428001161    12.000000000000
         C           -4.914512483053    -1.427185489190    -0.914395068392    12.000000000000
         C           -0.000006008926    -5.650442776176    -0.915734648762    12.000000000000
         C           -4.893020484101     2.825184109757    -0.916195921802    12.000000000000
         C            2.478125993298    -5.653578033051    -0.916084171140    12.000000000000
         C           -3.656798710258     4.972951692879    -0.916267390507    12.000000000000
         C           -4.892999478856    -2.825196256222    -0.915728723744    12.000000000000
         C           -2.478128498083    -5.653570659169    -0.916359358787    12.000000000000
         C           -6.134770503331     0.680544277094    -0.916658285453    12.000000000000
         C           -3.656788833189    -4.972948512133    -0.915207858164    12.000000000000
         C           -6.134765042913    -0.680558404644    -0.915387889030    12.000000000000
         H            5.835288495816     3.369271405792    -0.911826514279     1.007825032230
         H            7.073859172747     1.228212759737    -0.916171090357     1.007825032230
         H            4.600663264174     5.512376313291    -0.915938870130     1.007825032230
         H            5.835283387305    -3.369310545891    -0.920029155361     1.007825032230
         H           -0.000012151306     6.738526184974    -0.919688389648     1.007825032230
         H            7.073861171831    -1.228231431906    -0.915876151329     1.007825032230
         H            2.473313731799     6.740679802232    -0.915622012162     1.007825032230
         H            4.600668491381    -5.512380618338    -0.915403567516     1.007825032230
         H           -2.473318680537     6.740677230444    -0.915320665537     1.007825032230
         H           -0.000010268228    -6.738532665614    -0.911204963777     1.007825032230
         H           -5.835301914343     3.369266461134    -0.911690492131     1.007825032230
         H            2.473307923831    -6.740689863591    -0.915513840715     1.007825032230
         H           -4.600674841208     5.512373537441    -0.915773541806     1.007825032230
         H           -5.835279506835    -3.369293452942    -0.920308461242     1.007825032230
         H           -2.473300347440    -6.740683567302    -0.915963157259     1.007825032230
         H           -7.073857766768     1.228215983678    -0.916255081838     1.007825032230
         H           -4.600673786085    -5.512367158949    -0.915575875539     1.007825032230
         H           -7.073856934409    -1.228225121139    -0.915971007796     1.007825032230

  Charge       = 0
  Multiplicity = 1
  Basis Set: JUN-CC-PVDZ
    Blend: JUN-CC-PVDZ
  Basis Set: (JUN-CC-PVDZ AUX)
    Blend: JUN-CC-PVDZ-JKFIT

    Orbital Energies [Eh]
    ---------------------

    Doubly Occupied:

       1A    -11.260663     2A    -11.260220     3A    -11.260218
       4A    -11.259509     5A    -11.259509     6A    -11.259340
       7A    -11.259131     8A    -11.259053     9A    -11.259052
      10A    -11.258728    11A    -11.258724    12A    -11.258656
      13A    -11.258594    14A    -11.258588    15A    -11.258586
      16A    -11.258557    17A    -11.258551    18A    -11.258535
      19A    -11.258521    20A    -11.258516    21A    -11.258511
      22A    -11.258411    23A    -11.258408    24A    -11.258108
      25A    -11.257451    26A    -11.257389    27A    -11.257387
      28A    -11.257253    29A    -11.257253    30A    -11.257168
      31A    -11.256546    32A    -11.256475    33A    -11.256474
      34A    -11.256365    35A    -11.256365    36A    -11.256317
      37A    -11.252393    38A    -11.252393    39A    -11.252391
      40A    -11.252390    41A    -11.252387    42A    -11.252386
      43A    -11.251526    44A    -11.251524    45A    -11.251523
      46A    -11.251517    47A    -11.251516    48A    -11.251512
      49A    -11.250955    50A    -11.250954    51A    -11.250953
      52A    -11.250951    53A    -11.250949    54A    -11.250947
      55A     -1.244283    56A     -1.220004    57A     -1.220004
      58A     -1.189714    59A     -1.189706    60A     -1.181154
      61A     -1.157714    62A     -1.149145    63A     -1.135693
      64A     -1.135686    65A     -1.113347    66A     -1.113342
      67A     -1.082617    68A     -1.082610    69A     -1.078800
      70A     -1.066130    71A     -1.066126    72A     -1.039568
      73A     -1.024476    74A     -1.021980    75A     -1.021937
      76A     -1.017878    77A     -1.012941    78A     -0.987208
      79A     -0.987162    80A     -0.962039    81A     -0.961990
      82A     -0.894458    83A     -0.894431    84A     -0.888152
      85A     -0.886398    86A     -0.886341    87A     -0.881588
      88A     -0.881540    89A     -0.862063    90A     -0.837544
      91A     -0.818379    92A     -0.816818    93A     -0.812327
      94A     -0.812318    95A     -0.794845    96A     -0.794834
      97A     -0.746825    98A     -0.745053    99A     -0.733619
     100A     -0.733611   101A     -0.732343   102A     -0.732319
     103A     -0.716688   104A     -0.699140   105A     -0.699128
     106A     -0.693765   107A     -0.693748   108A     -0.661390
     109A     -0.653321   110A     -0.651365   111A     -0.650408
     112A     -0.650402   113A     -0.639520   114A     -0.639516
     115A     -0.629901   116A     -0.627712   117A     -0.627697
     118A     -0.606453   119A     -0.605928   120A     -0.601853
     121A     -0.599909   122A     -0.599876   123A     -0.593811
     124A     -0.591440   125A     -0.591428   126A     -0.585412
     127A     -0.576417   128A     -0.576411   129A     -0.567470
     130A     -0.567455   131A     -0.566153   132A     -0.566134
     133A     -0.558928   134A     -0.555013   135A     -0.555007
     136A     -0.538750   137A     -0.538748   138A     -0.538284
     139A     -0.538278   140A     -0.529885   141A     -0.528202
     142A     -0.523041   143A     -0.523033   144A     -0.500659
     145A     -0.495713   146A     -0.493397   147A     -0.487941
     148A     -0.485254   149A     -0.481935   150A     -0.481928
     151A     -0.470431   152A     -0.470415   153A     -0.451237
     154A     -0.451159   155A     -0.439182   156A     -0.439173
     157A     -0.404862   158A     -0.404840   159A     -0.403483
     160A     -0.375537   161A     -0.375534   162A     -0.349240
     163A     -0.337707   164A     -0.336674   165A     -0.336617
     166A     -0.311217   167A     -0.298205   168A     -0.284472
     169A     -0.284419   170A     -0.225041   171A     -0.224976

  @DF-RHF Final Energy: -2055.89175917820603

   => Energetics <=

    Nuclear Repulsion Energy =           6452.5568002797772351
    One-Electron Energy =              -15636.4298241897577100
    Two-Electron Energy =                7127.9812647317739902
    Total Energy =                      -2055.8917591782064846
 Dipole X            :          0.0000972           -0.0000085            0.0000887
 Dipole Y            :          0.0028642           -0.0028843           -0.0000201
 Dipole Z            :        591.8638155         -591.8663594           -0.0025439
 Magnitude           :                                                    0.0025455

    SAPT Results
  --------------------------------------------------------------------------------------------------------
    Electrostatics                 -6.56624328 [mEh]      -4.12037987 [kcal/mol]     -17.23966937 [kJ/mol]
      Elst10,r                     -6.56624328 [mEh]      -4.12037987 [kcal/mol]     -17.23966937 [kJ/mol]

    Exchange                       -0.00026490 [mEh]      -0.00016623 [kcal/mol]      -0.00069551 [kJ/mol]
      Exch10                       -0.00026490 [mEh]      -0.00016623 [kcal/mol]      -0.00069551 [kJ/mol]
      Exch10(S^2)                  -0.00026490 [mEh]      -0.00016623 [kcal/mol]      -0.00069551 [kJ/mol]

    Induction                      -1.71803286 [mEh]      -1.07808189 [kcal/mol]      -4.51069464 [kJ/mol]
      Ind20,r                      -1.69619116 [mEh]      -1.06437603 [kcal/mol]      -4.45334929 [kJ/mol]
      Exch-Ind20,r                  0.00026226 [mEh]       0.00016457 [kcal/mol]       0.00068856 [kJ/mol]
      delta HF,r (2)               -0.02210395 [mEh]      -0.01387044 [kcal/mol]      -0.05803391 [kJ/mol]

    Dispersion                     -1.05392351 [mEh]      -0.66134699 [kcal/mol]      -2.76707581 [kJ/mol]
      Disp20                       -1.05401022 [mEh]      -0.66140140 [kcal/mol]      -2.76730344 [kJ/mol]
      Exch-Disp20                   0.00008670 [mEh]       0.00005441 [kcal/mol]       0.00022764 [kJ/mol]
      Disp20 (SS)                  -0.52700511 [mEh]      -0.33070070 [kcal/mol]      -1.38365172 [kJ/mol]
      Disp20 (OS)                  -0.52700511 [mEh]      -0.33070070 [kcal/mol]      -1.38365172 [kJ/mol]
      Exch-Disp20 (SS)              0.00006587 [mEh]       0.00004133 [kcal/mol]       0.00017294 [kJ/mol]
      Exch-Disp20 (OS)              0.00002083 [mEh]       0.00001307 [kcal/mol]       0.00005470 [kJ/mol]

  Total HF                         -8.28454104 [mEh]      -5.19862799 [kcal/mol]     -21.75105951 [kJ/mol]
  Total SAPT0                      -9.33846456 [mEh]      -5.85997498 [kcal/mol]     -24.51813532 [kJ/mol]

  Special recipe for scaled SAPT0 (see Manual):
    Electrostatics sSAPT0          -6.56624328 [mEh]      -4.12037987 [kcal/mol]     -17.23966937 [kJ/mol]
    Exchange sSAPT0                -0.00026490 [mEh]      -0.00016623 [kcal/mol]      -0.00069551 [kJ/mol]
    Induction sSAPT0               -1.71803286 [mEh]      -1.07808189 [kcal/mol]      -4.51069464 [kJ/mol]
    Dispersion sSAPT0              -1.05392351 [mEh]      -0.66134699 [kcal/mol]      -2.76707581 [kJ/mol]
  Total sSAPT0                     -9.33846456 [mEh]      -5.85997498 [kcal/mol]     -24.51813532 [kJ/mol]
  --------------------------------------------------------------------------------------------------------

*** Psi4 exiting successfully. Buy a developer a beer!
