                               Psi4 1.9 release

  ==> Input File <==

--------------------------------------------------------------------------
memory 32 GB # how much memory is available ! Depends on the nodes/cores !

molecule dimer {
# monomer A
-1 1    # Charge and multiplicity
B -1.977592e-04  2.742729e-04 2.400034
F  1.123153e-16  1.430594e-17 3.812819
F  1.147860e+00  6.757812e-01 1.928893
F  1.191806e-02 -1.332011e+00 1.929095
F -1.159666e+00  6.560735e-01 1.929174
--
# monomer B
0 1     # Charge and multiplicity
C   1.22531237526482      0.70753866091955      0.00613762728373
C   1.22532433589282     -0.70753852257020     -0.00619318228664
C   -0.00000567409046      1.41496628609039     -0.00672680580738
C   2.45644923379077      1.41832825917820      0.00902448468363
C   0.00001130712078     -1.41497612663474      0.00347275151708
C   -1.22530046906674      0.70754574598412      0.00838914760619
C   2.45643823516184     -1.41832293188077     -0.00843833914343
C   -0.00000085313587      2.83680140328112     -0.00913035594137
C   3.68182717731192      0.70931832800114     -0.00808954934571
C   2.45512052870677      2.83422403348893     -0.00819210630633
C   3.68182158506039     -0.70933346742900      0.00798293467272
C   -1.22531311884624     -0.70752714354401     -0.00512042085974
C   1.22670006104402      3.54346985599427      0.00816696660346
C   0.00000526469929     -2.83678176723568      0.00832091913869
C   -2.45643555300670      1.41831729028492      0.00842454345199
C   2.45512389762097     -2.83422965658853      0.00783102630520
C   -1.22671388474763      3.54346943575023      0.00827029982280
C   4.91451777504333      1.42717324448953     -0.00160886631602
C   3.69315067131765      3.54279566454522     -0.00155906667985
C   -2.45643712022637     -1.41831290883911     -0.00846337726810
C   1.22670532178455     -3.54347386990643     -0.00780316414624
C   -2.45512491866593      2.83421703463423     -0.00818572995999
C   4.91452486062398     -1.42718653794377      0.00136387641845
C   1.22142509354026      4.97013443726031      0.00150231067809
C   4.89300870916237      2.82518837202648     -0.00039219795739
C   -1.22669652864725     -3.54347062507680     -0.00753595973677
C   -3.68181849668397      0.70932533873199     -0.00807686886569
C   3.69314758099218     -3.54280096939050      0.00148176697923
C   -1.22143177215231      4.97012866986289      0.00168580605083
C   6.13477145276790      0.68054831910577     -0.00083909176631
C   3.65678936045204      4.97295361556775     -0.00065042889723
C   -2.45512642789169     -2.83421472106065      0.00758666850712
C   -3.68181869921921     -0.70932533146830      0.00810055625144
C   4.89301309775526     -2.82519973363176      0.00021895393805
C   -0.00000059327114      5.65044773803267      0.00045449734393
C   6.13477559217374     -0.68055448207492      0.00042622874941
C   2.47813196269732      5.65357712333155      0.00063835075260
C   1.22142288457925     -4.97012668293268     -0.00129718634452
C   -3.69316190412301      3.54279732619245     -0.00139355922051
C   -1.22142804110313     -4.97011793159564     -0.00140994817719
C   -4.91452132810043      1.42717581899491     -0.00153192130862
C   3.65678749952045     -4.97295485423912      0.00080007163680
C   -2.47813805026426      5.65357479452875      0.00092287576113
C   -3.69314125872231     -3.54278984697859      0.00136564082345
C   -4.91451200321153     -1.42718062802730      0.00139857359209
C   -0.00000552908399     -5.65043791501335      0.00005899322272
C   -4.89302000425900      2.82518897091939     -0.00040227981744
C   2.47812647313991     -5.65357317188818     -0.00029052915548
C   -3.65679823041642      4.97295655404175     -0.00047374852278
C   -4.89299899901461     -2.82519139505969      0.00006491824035
C   -2.47812801824129     -5.65356579800621     -0.00056571680280
C   -6.13477002348955      0.68054913825639     -0.00086464346868
C   -3.65678835334731     -4.97294365097028      0.00058578382008
C   -6.13476456307132     -0.68055354348201      0.00040575295444
H   5.83528897565761      3.36927626695423      0.00396712770529
H   7.07385965258860      1.22821762089947     -0.00037744837300
H   4.60066374401555      5.51238117445323     -0.00014522814529
H   5.83528386714679     -3.36930568472863     -0.00423551337640
H   -0.00001167146422      6.73853104613662     -0.00389474766392
H   7.07386165167227     -1.22822657074368     -0.00008250934481
H   2.47331421164041      6.74068466339473      0.00017162982210
H   4.60066897122302     -5.51237575717576      0.00039007446835
H   -2.47331820069565      6.74068209160650      0.00047297644710
H   -0.00000978838621     -6.73852780445195      0.00458867820736
H   -5.83530143450167      3.36927132229595      0.00410314985360
H   2.47330840367253     -6.74068500242887      0.00027980126949
H   -4.60067436136587      5.51237839860371      0.00002010017831
H   -5.83527902699321     -3.36928859177951     -0.00451481925734
H   -2.47329986759855     -6.74067870613986     -0.00016951527498
H   -7.07385728692578      1.22822084484047     -0.00046143985387
H   -4.60067330624313     -5.51236229778631      0.00021776644566
H   -7.07385645456741     -1.22822025997701     -0.00017736581114

    units angstrom      # Angstroms are the default
    no_reorient         # Geometry fixed, default
    symmetry c1         # C1 symmetry, default
}

set {
    scf_type DF         # Density fitting, faster than exact integrals
    freeze_core True    # Freeze core electrons
    basis jun-cc-pVDZ   # Jun-cc-pVDZ basis set, recommended for sSAPT0 in https://doi.org/10.1063/1.4867135
}

energy('ssapt0')        # Compute sSAPT0 energy, includes also SAPT0
--------------------------------------------------------------------------

  //              Dimer HF             //
    Molecular point group: c1
  Charge       = -1
  Multiplicity = 1
  Basis Set: JUN-CC-PVDZ
    Blend: JUN-CC-PVDZ
  Basis Set: (JUN-CC-PVDZ AUX)
    Blend: JUN-CC-PVDZ-JKFIT
  @DF-RHF Final Energy: -2478.46593346764712
    Total Energy =                      -2478.4659334676471190
 Dipole X            :         -0.0010133            0.0000481           -0.0009653
 Dipole Y            :          0.0032518           -0.0001453            0.0031065
 Dipole Z            :         12.8565054          -14.7126449           -1.8561395
 Magnitude           :                                                    1.8561424
  //            Monomer A HF           //
    Molecular point group: c1
  Multiplicity = 1
  Basis Set: JUN-CC-PVDZ
    Blend: JUN-CC-PVDZ
  Basis Set: (JUN-CC-PVDZ AUX)
    Blend: JUN-CC-PVDZ-JKFIT
  @DF-RHF Final Energy:  -422.77709681878633
    Total Energy =                       -422.7770968187863332
  //            Monomer B HF           //
    Molecular point group: c1

    Geometry (in Angstrom), charge = 0, multiplicity = 1:

       Center              X                  Y                   Z               Mass
    ------------   -----------------  -----------------  -----------------  -----------------
      Gh(B)          -0.000198161052     0.000273808717     2.122789008292    11.009305360000
      Gh(F)          -0.000000401852    -0.000000464183     3.535574008292    18.998403162730
      Gh(F)           1.147859598148     0.675780735817     1.651648008292    18.998403162730
      Gh(F)           0.011917658148    -1.332011464183     1.651850008292    18.998403162730
      Gh(F)          -1.159666401852     0.656073035817     1.651929008292    18.998403162730
         C            1.225311973413     0.707538196736    -0.271107364424    12.000000000000
         C            1.225323934041    -0.707538986754    -0.283438173994    12.000000000000
         C           -0.000006075942     1.414965821907    -0.283971797515    12.000000000000
         C            2.456448831939     1.418327794995    -0.268220507024    12.000000000000
         C            0.000010905269    -1.414976590818    -0.273772240191    12.000000000000
         C           -1.225300870919     0.707545281801    -0.268855844101    12.000000000000
         C            2.456437833310    -1.418323396064    -0.285683330851    12.000000000000
         C           -0.000001254988     2.836800939098    -0.286375347649    12.000000000000
         C            3.681826775460     0.709317863818    -0.285334541053    12.000000000000
         C            2.455120126855     2.834223569306    -0.285437098014    12.000000000000
         C            3.681821183209    -0.709333931612    -0.269262057035    12.000000000000
         C           -1.225313520698    -0.707527607727    -0.282365412567    12.000000000000
         C            1.226699659192     3.543469391811    -0.269078025104    12.000000000000
         C            0.000004862847    -2.836782231419    -0.268924072569    12.000000000000
         C           -2.456435954859     1.418316826102    -0.268820448256    12.000000000000
         C            2.455123495769    -2.834230120772    -0.269413965402    12.000000000000
         C           -1.226714286599     3.543468971567    -0.268974691885    12.000000000000
         C            4.914517373191     1.427172780306    -0.278853858024    12.000000000000
         C            3.693150269466     3.542795200362    -0.278804058387    12.000000000000
         C           -2.456437522078    -1.418313373022    -0.285708368976    12.000000000000
         C            1.226704919933    -3.543474334090    -0.285048155854    12.000000000000
         C           -2.455125320518     2.834216570451    -0.285430721668    12.000000000000
         C            4.914524458772    -1.427187002127    -0.275881115289    12.000000000000
         C            1.221424691688     4.970133973077    -0.275742681030    12.000000000000
         C            4.893008307311     2.825187907843    -0.277637189665    12.000000000000
         C           -1.226696930499    -3.543471089260    -0.284780951444    12.000000000000
         C           -3.681818898536     0.709324874549    -0.285321860573    12.000000000000
         C            3.693147179140    -3.542801433574    -0.275763224728    12.000000000000
         C           -1.221432174004     4.970128205680    -0.275559185657    12.000000000000
         C            6.134771050916     0.680547854922    -0.278084083474    12.000000000000
         C            3.656788958600     4.972953151384    -0.277895420605    12.000000000000
         C           -2.455126829744    -2.834215185244    -0.269658323201    12.000000000000
         C           -3.681819101071    -0.709325795652    -0.269144435456    12.000000000000
         C            4.893012695903    -2.825200197815    -0.277026037770    12.000000000000
         C           -0.000000995123     5.650447273849    -0.276790494364    12.000000000000
         C            6.134775190322    -0.680554946258    -0.276818762958    12.000000000000
         C            2.478131560845     5.653576659148    -0.276606640955    12.000000000000
         C            1.221422482727    -4.970127147116    -0.278542178052    12.000000000000
         C           -3.693162305975     3.542796862009    -0.278638550928    12.000000000000
         C           -1.221428442955    -4.970118395779    -0.278654939885    12.000000000000
         C           -4.914521729952     1.427175354812    -0.278776913016    12.000000000000
         C            3.656787097669    -4.972955318422    -0.276444920071    12.000000000000
         C           -2.478138452116     5.653574330345    -0.276322115947    12.000000000000
         C           -3.693141660574    -3.542790311162    -0.275879350884    12.000000000000
         C           -4.914512405063    -1.427181092211    -0.275846418116    12.000000000000
         C           -0.000005930936    -5.650438379197    -0.277185998485    12.000000000000
         C           -4.893020406111     2.825188506736    -0.277647271525    12.000000000000
         C            2.478126071288    -5.653573636072    -0.277535520863    12.000000000000
         C           -3.656798632268     4.972956089858    -0.277718740230    12.000000000000
         C           -4.892999400866    -2.825191859243    -0.277180073467    12.000000000000
         C           -2.478128420093    -5.653566262190    -0.277810708510    12.000000000000
         C           -6.134770425341     0.680548674073    -0.278109635176    12.000000000000
         C           -3.656788755199    -4.972944115154    -0.276659207888    12.000000000000
         C           -6.134764964923    -0.680554007665    -0.276839238753    12.000000000000
         H            5.835288573806     3.369275802771    -0.273277864002     1.007825032230
         H            7.073859250737     1.228217156716    -0.277622440081     1.007825032230
         H            4.600663342164     5.512380710270    -0.277390219853     1.007825032230
         H            5.835283465295    -3.369306148912    -0.281480505084     1.007825032230
         H           -0.000012073316     6.738530581953    -0.281139739372     1.007825032230
         H            7.073861249820    -1.228227034927    -0.277327501052     1.007825032230
         H            2.473313809789     6.740684199211    -0.277073361886     1.007825032230
         H            4.600668569371    -5.512376221359    -0.276854917239     1.007825032230
         H           -2.473318602548     6.740681627423    -0.276772015261     1.007825032230
         H           -0.000010190238    -6.738528268635    -0.272656313500     1.007825032230
         H           -5.835301836354     3.369270858113    -0.273141841854     1.007825032230
         H            2.473308001821    -6.740685466612    -0.276965190438     1.007825032230
         H           -4.600674763218     5.512377934420    -0.277224891529     1.007825032230
         H           -5.835279428845    -3.369289055963    -0.281759810965     1.007825032230
         H           -2.473300269450    -6.740679170323    -0.277414506983     1.007825032230
         H           -7.073857688778     1.228220380657    -0.277706431562     1.007825032230
         H           -4.600673708095    -5.512362761970    -0.277027225262     1.007825032230
         H           -7.073856856419    -1.228220724160    -0.277422357519     1.007825032230

  Charge       = 0
  Multiplicity = 1
  Basis Set: JUN-CC-PVDZ
    Blend: JUN-CC-PVDZ
  Basis Set: (JUN-CC-PVDZ AUX)
    Blend: JUN-CC-PVDZ-JKFIT

    Orbital Energies [Eh]
    ---------------------

    Doubly Occupied:

       1A    -11.260784     2A    -11.260330     3A    -11.260328
       4A    -11.259486     5A    -11.259485     6A    -11.259267
       7A    -11.258984     8A    -11.258930     9A    -11.258930
      10A    -11.258635    11A    -11.258632    12A    -11.258481
      13A    -11.258449    14A    -11.258440    15A    -11.258432
      16A    -11.258381    17A    -11.258376    18A    -11.258363
      19A    -11.258361    20A    -11.258358    21A    -11.258353
      22A    -11.258308    23A    -11.258303    24A    -11.258134
      25A    -11.257243    26A    -11.257185    27A    -11.257184
      28A    -11.257050    29A    -11.257050    30A    -11.256968
      31A    -11.256330    32A    -11.256262    33A    -11.256261
      34A    -11.256155    35A    -11.256155    36A    -11.256109
      37A    -11.252262    38A    -11.252261    39A    -11.252260
      40A    -11.252258    41A    -11.252256    42A    -11.252254
      43A    -11.251364    44A    -11.251363    45A    -11.251363
      46A    -11.251315    47A    -11.251314    48A    -11.251312
      49A    -11.250824    50A    -11.250822    51A    -11.250821
      52A    -11.250818    53A    -11.250817    54A    -11.250816
      55A     -1.243910    56A     -1.219717    57A     -1.219716
      58A     -1.189473    59A     -1.189466    60A     -1.180804
      61A     -1.157515    62A     -1.148915    63A     -1.135363
      64A     -1.135357    65A     -1.113146    66A     -1.113142
      67A     -1.082330    68A     -1.082323    69A     -1.078482
      70A     -1.065941    71A     -1.065937    72A     -1.039331
      73A     -1.024148    74A     -1.021622    75A     -1.021579
      76A     -1.017693    77A     -1.012755    78A     -0.986925
      79A     -0.986879    80A     -0.961821    81A     -0.961771
      82A     -0.894235    83A     -0.894208    84A     -0.887801
      85A     -0.886052    86A     -0.885994    87A     -0.881303
      88A     -0.881256    89A     -0.861835    90A     -0.837388
      91A     -0.818145    92A     -0.816491    93A     -0.812036
      94A     -0.812026    95A     -0.794635    96A     -0.794624
      97A     -0.746522    98A     -0.744752    99A     -0.733293
     100A     -0.733284   101A     -0.732125   102A     -0.732101
     103A     -0.716398   104A     -0.698915   105A     -0.698905
     106A     -0.693502   107A     -0.693486   108A     -0.661169
     109A     -0.652964   110A     -0.651031   111A     -0.650202
     112A     -0.650196   113A     -0.639311   114A     -0.639309
     115A     -0.629623   116A     -0.627423   117A     -0.627407
     118A     -0.606501   119A     -0.605793   120A     -0.601567
     121A     -0.599669   122A     -0.599638   123A     -0.593567
     124A     -0.591071   125A     -0.591060   126A     -0.585251
     127A     -0.576360   128A     -0.576354   129A     -0.567285
     130A     -0.567270   131A     -0.565840   132A     -0.565821
     133A     -0.558602   134A     -0.554777   135A     -0.554771
     136A     -0.538539   137A     -0.538538   138A     -0.538146
     139A     -0.538140   140A     -0.529653   141A     -0.528205
     142A     -0.522804   143A     -0.522798   144A     -0.500451
     145A     -0.495560   146A     -0.493180   147A     -0.487801
     148A     -0.484997   149A     -0.481673   150A     -0.481665
     151A     -0.470344   152A     -0.470327   153A     -0.450892
     154A     -0.450814   155A     -0.439047   156A     -0.439038
     157A     -0.404689   158A     -0.404666   159A     -0.403323
     160A     -0.375404   161A     -0.375401   162A     -0.349089
     163A     -0.337466   164A     -0.336472   165A     -0.336415
     166A     -0.311031   167A     -0.298096   168A     -0.284240
     169A     -0.284187   170A     -0.224841   171A     -0.224775

  @DF-RHF Final Energy: -2055.89486646560135

   => Energetics <=

    Nuclear Repulsion Energy =           6452.5568002797772351
    One-Electron Energy =              -15636.5054978564858175
    Two-Electron Energy =                7128.0538311111067742
    Total Energy =                      -2055.8948664656018082
 Dipole X            :         -0.0000028            0.0000419            0.0000391
 Dipole Y            :          0.0000846           -0.0000426            0.0000420
 Dipole Z            :        179.1859577         -179.1810925            0.0048652
 Magnitude           :                                                    0.0048655

    SAPT Results
  --------------------------------------------------------------------------------------------------------
    Electrostatics               -192.94595579 [mEh]    -121.07541519 [kcal/mol]    -506.57953713 [kJ/mol]
      Elst10,r                   -192.94595579 [mEh]    -121.07541519 [kcal/mol]    -506.57953713 [kJ/mol]

    Exchange                      466.56615791 [mEh]     292.77468423 [kcal/mol]    1224.96927882 [kJ/mol]
      Exch10                      466.56615791 [mEh]     292.77468423 [kcal/mol]    1224.96927882 [kJ/mol]
      Exch10(S^2)                 443.86154308 [mEh]     278.52732333 [kcal/mol]    1165.35832081 [kJ/mol]

    Induction                     -67.59038538 [mEh]     -42.41360716 [kcal/mol]    -177.45853236 [kJ/mol]
      Ind20,r                    -303.24296398 [mEh]    -190.28783275 [kcal/mol]    -796.16429224 [kJ/mol]
      Exch-Ind20,r                245.24483251 [mEh]     153.89345580 [kcal/mol]     643.89021905 [kJ/mol]
      delta HF,r (2)               -9.59225391 [mEh]      -6.01923020 [kcal/mol]     -25.18445916 [kJ/mol]

    Dispersion                    -61.26526722 [mEh]     -38.44453559 [kcal/mol]    -160.85193692 [kJ/mol]
      Disp20                      -93.92997012 [mEh]     -58.94194612 [kcal/mol]    -246.61310258 [kJ/mol]
      Exch-Disp20                  32.66470290 [mEh]      20.49741053 [kcal/mol]      85.76116565 [kJ/mol]
      Disp20 (SS)                 -46.96498506 [mEh]     -29.47097306 [kcal/mol]    -123.30655129 [kJ/mol]
      Disp20 (OS)                 -46.96498506 [mEh]     -29.47097306 [kcal/mol]    -123.30655129 [kJ/mol]
      Exch-Disp20 (SS)             16.48119897 [mEh]      10.34210849 [kcal/mol]      43.27138194 [kJ/mol]
      Exch-Disp20 (OS)             16.18350393 [mEh]      10.15530203 [kcal/mol]      42.48978371 [kJ/mol]

  Total HF                        206.02981674 [mEh]     129.28566189 [kcal/mol]     540.93120933 [kJ/mol]
  Total SAPT0                     144.76454952 [mEh]      90.84112629 [kcal/mol]     380.07927241 [kJ/mol]

  Special recipe for scaled SAPT0 (see Manual):
    Electrostatics sSAPT0        -192.94595579 [mEh]    -121.07541519 [kcal/mol]    -506.57953713 [kJ/mol]
    Exchange sSAPT0               466.56615791 [mEh]     292.77468423 [kcal/mol]    1224.96927882 [kJ/mol]
    Induction sSAPT0              -27.99781829 [mEh]     -17.56889622 [kcal/mol]     -73.50826179 [kJ/mol]
    Dispersion sSAPT0             -55.99184544 [mEh]     -35.13541347 [kcal/mol]    -147.00656995 [kJ/mol]
  Total sSAPT0                    189.63053839 [mEh]     118.99495935 [kcal/mol]     497.87490994 [kJ/mol]
  --------------------------------------------------------------------------------------------------------

*** Psi4 exiting successfully. Buy a developer a beer!
