                               Psi4 1.9 release

  ==> Input File <==

--------------------------------------------------------------------------
memory 80 GB # how much memory is available ! Depends on the nodes/cores !

molecule dimer {
# monomer A
+1 1    # Charge and multiplicity
C  0.680067 1.417258 -5.015929
C -0.680504 1.419286 -5.015545
N -1.085635 1.420284 -3.697221
C  0.000108 1.423560 -2.915820
C -2.477365 1.469690 -3.229242
N  1.085222 1.420284 -3.697221
H  1.385146 1.409430 -5.833368
H -1.385302 1.419096 -5.833214
H -0.000009 1.425307 -1.834731
C  2.478117 1.403392 -3.232123
H  2.490592 1.430737 -2.141870
H  2.967028 0.489946 -3.579299
H  3.001428 2.278875 -3.623595
H -2.857359 2.491761 -3.309201
H -3.082679 0.799606 -3.842306
H -2.518128 1.142706 -2.189294
--
# monomer B
0 1     # Charge and multiplicity
C   -3.66844126402057      7.80375217008252      0.00190004133558
C   -4.84759871934653      7.13124183134024     -0.00046653359696
C   -4.89495929917518      5.69633040353158     -0.00103944469517
C   -3.65374067877320      4.98073034095895      0.00662099703436
C   -2.40942512149445      7.11398103667468      0.00209438359570
C   -2.42547734410473      5.68112195090346     -0.00491050527438
C   -1.19474401643570      7.78614419430947      0.00356656413763
C   0.03795902893699      7.09942164575698      0.00139585983271
C   0.03033258741920      5.66948955970466     -0.00408752508301
C   -1.20098450790502      4.96927034791531      0.00488220885047
C   1.27795782581485      7.77285944319479      0.00277170839332
C   2.48535808472416      7.08769688523756      0.00049722048857
C   2.48612868491717      5.65477081024076     -0.00644052849921
C   1.25408291964399      4.95607811366431      0.00518741308898
C   3.75171459140595      7.76391215098033      0.00062407186893
C   4.92356605618520      7.07878077698995     -0.00143240883900
C   4.95560727132542      5.64344746336949     -0.00159282164606
C   3.70680153420475      4.94121020833308      0.00349873852374
H   -3.65852113775815      8.89082741913536      0.00358502958574
H   -1.18921332975660      8.87412108735996      0.00753844057883
H   1.28429423888630      8.86083343548850      0.00693053253426
H   3.75354208679975      8.85103527897216      0.00214659618464
H   5.86995870320703      7.61379483465560     -0.00235777588134
H   -5.78823170750226      7.67630221293400     -0.00202638095293
C   -6.09197395869619      4.99326001364347     -0.00291168518608
C   -6.12866148031747      3.58258016879823     -0.00171050815740
C   -3.66457974004527      3.56418217974434     -0.00463560277484
C   -4.89429820469869      2.86108077590057      0.00453338221034
C   -2.43733499489796      2.84761165708481      0.00719617576166
C   -1.20922785759670      3.54788693497833     -0.00648285103018
C   1.24714157216223      3.53468075142962     -0.00729145743546
C   0.01517603956900      2.83311183930540      0.00439272578912
C   2.46764517244071      2.82128997725533      0.00449278391269
C   3.70254947457969      3.52466015442405     -0.00899517692985
C   6.14498038638375      4.92757236613191     -0.00282626685777
C   6.16658835886151      3.51658447594213     -0.00065971342101
C   4.92460995845939      2.80840792535402      0.00587903281610
H   7.08990550964105      5.46688776622306     -0.00658814770723
H   -7.03104175110130      5.54268795285765     -0.00714490013730
C   -7.33969804112295      2.85841153457957     -0.00333767559888
C   -7.36488195805880      1.47032337158330     -0.00157213747140
C   -4.90350460894690      1.44442681216000     -0.00628840166334
C   -6.13225715261081      0.73993935705394      0.00600164231964
C   -3.67687480051673      0.72669714267312      0.00433931473643
C   -2.44565658606518      1.42964113326212     -0.00597039546461
C   -1.22360068130162      0.71532450163492      0.00545886906656
C   0.00763786931376      1.41738314923765      0.00392452278437
C   1.23121980774686      0.70211669058719     -0.01490206287210
C   2.46082110053113      1.40329203612573      0.00460244601878
C   3.68443025419614      0.68719842821222      0.00377365974158
C   4.91870890153864      1.39173456118907     -0.00862816189375
C   7.36980207796101      2.77948220318441     -0.00242013321349
C   7.38016266612146      1.39121750785509     -0.00087345036788
C   6.13979953912259      0.67411862320065      0.00545489144369
H   -8.27919079934664      3.40711804112415     -0.00763522772059
H   8.31511347147953      3.31811809662368     -0.00663070901292
C   -8.59175593758115      0.72483255304480     -0.00123170985383
C   -8.59902460370342     -0.63263980622873      0.00089141472904
C   -6.13981313911873     -0.67413663715361     -0.00609792660607
C   -7.38018411213749     -1.39126618958160      0.00131813493501
C   -4.91868448025621     -1.39175501803000      0.00624257154343
C   -3.68443829568458     -0.68723731573599     -0.00478966852105
C   -2.46081704024768     -1.40334517882457      0.00575341766833
C   -1.23116201232071     -0.70217386488055     -0.00636696112346
C   -0.00756962538737     -1.41741884941102      0.00108956317991
C   1.22364771588843     -0.71527537726392      0.01109518512883
C   2.44567064933149     -1.42964328900682     -0.00065482763106
C   3.67686670284649     -0.72670743155550     -0.00479541202602
C   6.13224884641929     -0.73997883984993     -0.00632338623858
C   4.90351914550401     -1.44445752054090      0.00751768830159
C   8.59901484869081      0.63260386666793     -0.00101133422380
C   8.59174548810050     -0.72485086719319      0.00072504603735
C   7.36486276438985     -1.47033266560598      0.00049486934466
H   -9.52830597181814      1.27684744919284     -0.00270163681798
H   9.54141097460619      1.17457248844457     -0.00206336648518
C   -7.36983790976868     -2.77954514593389      0.00312634335708
C   -4.92459910905015     -2.80843725734101     -0.00460528907921
C   -6.16662249566744     -3.51665219282533      0.00169655107992
C   -3.70251035970491     -3.52468154912026      0.00571878010666
C   -2.46764698511392     -2.82132596280400     -0.00632585824990
C   -0.01513347410770     -2.83314164539971     -0.00604426974092
C   -1.24712184122656     -3.53473217556300      0.00551968366725
C   1.20924506964357     -3.54791467864352      0.00805871345849
C   2.43733602215464     -2.84764173817541     -0.00608104485234
C   4.89430234377080     -2.86112296828604     -0.00526030478103
C   3.66461525504104     -3.56421984553201      0.00761911515957
C   6.12863901474565     -3.58258405771778      0.00096495711699
C   7.33967266469532     -2.85841330737039      0.00248018319869
H   -9.54144911125902     -1.17456346666430      0.00226083090216
H   9.52826186807155     -1.27691907390448      0.00197485379837
H   -8.31516504384864     -3.31814985321231      0.00729857188773
H   8.27915514249207     -3.40714078989363      0.00681973918158
C   -6.14499418870218     -4.92764727278338      0.00302254913999
C   -3.70678334799751     -4.94126171411716     -0.00679841894792
C   -4.95559005800169     -5.64349397349412      0.00116871569699
C   -2.48612132622665     -5.65478557440947      0.00614125209662
C   -1.25405833548005     -4.95612205000132     -0.00503435388927
C   1.20101257386816     -4.96928038819302     -0.00385322963129
C   -0.03033667441341     -5.66952030313900      0.00398997003238
C   3.65375010132847     -4.98074377541453     -0.00309522988330
C   2.42549269587528     -5.68117463552727      0.00628170066869
C   6.09196561781097     -4.99325796338655      0.00325918379042
C   4.89497644461045     -5.69634842095790      0.00202298796027
H   -7.08989238804069     -5.46699984223871      0.00742531082125
H   7.03105520920009     -5.54265853633254      0.00683896355417
C   -4.92354532219813     -7.07882109967734      0.00061394679214
C   -2.48534208823777     -7.08772807792913     -0.00189594564379
C   -3.75168589177895     -7.76394715763627     -0.00170126671874
C   -0.03794895698805     -7.09946487446944     -0.00168022049625
C   -1.27795610040136     -7.77290438466689     -0.00366491325785
C   2.40944432072629     -7.11402201200282     -0.00081701968533
C   1.19474993715296     -7.78618536556242     -0.00296931056689
C   4.84762105249800     -7.13126211057943      0.00168979497423
C   3.66847160587561     -7.80378799294376     -0.00065863938960
H   -5.86994035041618     -7.61383059804164      0.00215798365757
H   5.78824962538815     -7.67633218931421      0.00281691445618
H   -3.75352693944918     -8.85107156923607     -0.00353718114765
H   -1.28430440589466     -8.86087539249706     -0.00809229711623
H   1.18922157469537     -8.87416062058945     -0.00706194725726
H   3.65854661482387     -8.89086063405326     -0.00231318081200

    units angstrom      # Angstroms are the default
    no_reorient         # Geometry fixed, default
    symmetry c1         # C1 symmetry, default
}

set {
    scf_type DF         # Density fitting, faster than exact integrals
    freeze_core True    # Freeze core electrons
    basis jun-cc-pVDZ   # Jun-cc-pVDZ basis set, recommended for sSAPT0 in https://doi.org/10.1063/1.4867135
}

energy('ssapt0')        # Compute sSAPT0 energy, includes also SAPT0
--------------------------------------------------------------------------

  //              Dimer HF             //
    Molecular point group: c1
  Charge       = 1
  Multiplicity = 1
  Basis Set: JUN-CC-PVDZ
    Blend: JUN-CC-PVDZ
  Basis Set: (JUN-CC-PVDZ AUX)
    Blend: JUN-CC-PVDZ-JKFIT
  @DF-RHF Final Energy: -3953.63094874093122
    Total Energy =                      -3953.6309487409307621
 Dipole X            :         -0.0096616            0.0004804           -0.0091812
 Dipole Y            :         -7.4330291            8.7122315            1.2792024
 Dipole Z            :         17.1053887          -21.1919960           -4.0866074
 Magnitude           :                                                    4.2821493
  //            Monomer A HF           //
    Molecular point group: c1
  Multiplicity = 1
  Basis Set: JUN-CC-PVDZ
    Blend: JUN-CC-PVDZ
  Basis Set: (JUN-CC-PVDZ AUX)
    Blend: JUN-CC-PVDZ-JKFIT
  @DF-RHF Final Energy:  -303.29887335451684
    Total Energy =                       -303.2988733545168429
  //            Monomer B HF           //
    Molecular point group: c1

    Geometry (in Angstrom), charge = 0, multiplicity = 1:

       Center              X                  Y                   Z               Mass
    ------------   -----------------  -----------------  -----------------  -----------------
      Gh(C)           0.680062820275     1.308604348936    -4.726214130564    12.000000000000
      Gh(C)          -0.680508179725     1.310632348936    -4.725830130564    12.000000000000
      Gh(N)          -1.085639179725     1.311630348936    -3.407506130564    14.003074004430
      Gh(C)           0.000103820275     1.314906348936    -2.626105130564    12.000000000000
      Gh(C)          -2.477369179725     1.361036348936    -2.939527130564    12.000000000000
      Gh(N)           1.085217820275     1.311630348936    -3.407506130564    14.003074004430
      Gh(H)           1.385141820275     1.300776348936    -5.543653130564     1.007825032230
      Gh(H)          -1.385306179725     1.310442348936    -5.543499130564     1.007825032230
      Gh(H)          -0.000013179725     1.316653348936    -1.545016130564     1.007825032230
      Gh(C)           2.478112820275     1.294738348936    -2.942408130564    12.000000000000
      Gh(H)           2.490587820275     1.322083348936    -1.852155130564     1.007825032230
      Gh(H)           2.967023820275     0.381292348936    -3.289584130564     1.007825032230
      Gh(H)           3.001423820275     2.170221348936    -3.333880130564     1.007825032230
      Gh(H)          -2.857363179725     2.383107348936    -3.019486130564     1.007825032230
      Gh(H)          -3.082683179725     0.690952348936    -3.552591130564     1.007825032230
      Gh(H)          -2.518132179725     1.034052348936    -1.899579130564     1.007825032230
         C           -3.668445443746     7.695098519018     0.291614910771    12.000000000000
         C           -4.847602899072     7.022588180276     0.289248335839    12.000000000000
         C           -4.894963478901     5.587676752467     0.288675424740    12.000000000000
         C           -3.653744858499     4.872076689895     0.296335866470    12.000000000000
         C           -2.409429301220     7.005327385610     0.291809253031    12.000000000000
         C           -2.425481523830     5.572468299839     0.284804364161    12.000000000000
         C           -1.194748196161     7.677490543245     0.293281433573    12.000000000000
         C            0.037954849212     6.990767994693     0.291110729268    12.000000000000
         C            0.030328407694     5.560835908640     0.285627344353    12.000000000000
         C           -1.200988687630     4.860616696851     0.294597078286    12.000000000000
         C            1.277953646089     7.664205792130     0.292486577829    12.000000000000
         C            2.485353904999     6.979043234173     0.290212089924    12.000000000000
         C            2.486124505192     5.546117159176     0.283274340936    12.000000000000
         C            1.254078739919     4.847424462600     0.294902282524    12.000000000000
         C            3.751710411681     7.655258499916     0.290338941304    12.000000000000
         C            4.923561876460     6.970127125926     0.288282460597    12.000000000000
         C            4.955603091600     5.534793812305     0.288122047789    12.000000000000
         C            3.706797354479     4.832556557269     0.293213607959    12.000000000000
         H           -3.658525317484     8.782173768071     0.293299899021     1.007825032230
         H           -1.189217509482     8.765467436296     0.297253310014     1.007825032230
         H            1.284290059161     8.752179784424     0.296645401970     1.007825032230
         H            3.753537907074     8.742381627908     0.291861465620     1.007825032230
         H            5.869954523482     7.505141183591     0.287357093554     1.007825032230
         H           -5.788235887228     7.567648561870     0.287688488483     1.007825032230
         C           -6.091978138422     4.884606362579     0.286803184249    12.000000000000
         C           -6.128665660043     3.473926517734     0.288004361278    12.000000000000
         C           -3.664583919771     3.455528528680     0.285079266661    12.000000000000
         C           -4.894302384424     2.752427124836     0.294248251646    12.000000000000
         C           -2.437339174623     2.738958006020     0.296911045197    12.000000000000
         C           -1.209232037322     3.439233283914     0.283232018405    12.000000000000
         C            1.247137392437     3.426027100365     0.282423412000    12.000000000000
         C            0.015171859844     2.724458188241     0.294107595225    12.000000000000
         C            2.467640992715     2.712636326191     0.294207653348    12.000000000000
         C            3.702545294854     3.416006503360     0.280719692506    12.000000000000
         C            6.144976206658     4.818918715067     0.286888602578    12.000000000000
         C            6.166584179136     3.407930824878     0.289055156015    12.000000000000
         C            4.924605778734     2.699754274290     0.295593902252    12.000000000000
         H            7.089901329916     5.358234115159     0.283126721728     1.007825032230
         H           -7.031045930827     5.434034301793     0.282569969298     1.007825032230
         C           -7.339702220848     2.749757883515     0.286377193837    12.000000000000
         C           -7.364886137784     1.361669720519     0.288142731964    12.000000000000
         C           -4.903508788672     1.335773161096     0.283426467772    12.000000000000
         C           -6.132261332336     0.631285705989     0.295716511755    12.000000000000
         C           -3.676878980242     0.618043491609     0.294054184172    12.000000000000
         C           -2.445660765791     1.320987482198     0.283744473971    12.000000000000
         C           -1.223604861027     0.606670850570     0.295173738502    12.000000000000
         C            0.007633689588     1.308729498173     0.293639392220    12.000000000000
         C            1.231215628021     0.593463039523     0.274812806563    12.000000000000
         C            2.460816920806     1.294638385061     0.294317315454    12.000000000000
         C            3.684426074471     0.578544777148     0.293488529177    12.000000000000
         C            4.918704721813     1.283080910125     0.281086707542    12.000000000000
         C            7.369797898236     2.670828552120     0.287294736222    12.000000000000
         C            7.380158486396     1.282563856791     0.288841419068    12.000000000000
         C            6.139795359397     0.565464972136     0.295169760879    12.000000000000
         H           -8.279194979072     3.298464390060     0.282079641715     1.007825032230
         H            8.315109291754     3.209464445559     0.283084160423     1.007825032230
         C           -8.591760117307     0.616178901980     0.288483159582    12.000000000000
         C           -8.599028783429    -0.741293457293     0.290606284165    12.000000000000
         C           -6.139817318844    -0.782790288218     0.283616942829    12.000000000000
         C           -7.380188291863    -1.499919840646     0.291033004371    12.000000000000
         C           -4.918688659982    -1.500408669094     0.295957440979    12.000000000000
         C           -3.684442475410    -0.795890966800     0.284925200914    12.000000000000
         C           -2.460821219973    -1.511998829889     0.295468287104    12.000000000000
         C           -1.231166192046    -0.810827515945     0.283347908312    12.000000000000
         C           -0.007573805113    -1.526072500475     0.290804432615    12.000000000000
         C            1.223643536163    -0.823929028328     0.300810054564    12.000000000000
         C            2.445666469606    -1.538296940071     0.289060041804    12.000000000000
         C            3.676862523121    -0.835361082620     0.284919457409    12.000000000000
         C            6.132244666694    -0.848632490914     0.283391483197    12.000000000000
         C            4.903514965779    -1.553111171605     0.297232557737    12.000000000000
         C            8.599010668965     0.523950215603     0.288703535212    12.000000000000
         C            8.591741308375    -0.833504518258     0.290439915473    12.000000000000
         C            7.364858584664    -1.578986316670     0.290209738780    12.000000000000
         H           -9.528310151544     1.168193798128     0.287013232618     1.007825032230
         H            9.541406794881     1.065918837380     0.287651502950     1.007825032230
         C           -7.369842089494    -2.888198796998     0.292841212793    12.000000000000
         C           -4.924603288776    -2.917090908405     0.285109580356    12.000000000000
         C           -6.166626675393    -3.625305843890     0.291411420515    12.000000000000
         C           -3.702514539430    -3.633335200185     0.295433649542    12.000000000000
         C           -2.467651164839    -2.929979613868     0.283389011186    12.000000000000
         C           -0.015137653833    -2.941795296464     0.283670599695    12.000000000000
         C           -1.247126020952    -3.643385826627     0.295234553103    12.000000000000
         C            1.209240889918    -3.656568329708     0.297773582894    12.000000000000
         C            2.437331842429    -2.956295389240     0.283633824583    12.000000000000
         C            4.894298164045    -2.969776619350     0.284454564654    12.000000000000
         C            3.664611075316    -3.672873496596     0.297333984595    12.000000000000
         C            6.128634835020    -3.691237708782     0.290679826553    12.000000000000
         C            7.339668484970    -2.967066958435     0.292195052634    12.000000000000
         H           -9.541453290984    -1.283217117729     0.291975700338     1.007825032230
         H            9.528257688346    -1.385572724969     0.291689723234     1.007825032230
         H           -8.315169223574    -3.426803504277     0.297013441323     1.007825032230
         H            8.279150962767    -3.515794440958     0.296534608617     1.007825032230
         C           -6.144998368428    -5.036300923848     0.292737418576    12.000000000000
         C           -3.706787527723    -5.049915365182     0.282916450488    12.000000000000
         C           -4.955594237727    -5.752147624559     0.290883585133    12.000000000000
         C           -2.486125505952    -5.763439225474     0.295856121532    12.000000000000
         C           -1.254062515205    -5.064775701066     0.284680515546    12.000000000000
         C            1.201008394143    -5.077934039257     0.285861639804    12.000000000000
         C           -0.030340854139    -5.778173954203     0.293704839468    12.000000000000
         C            3.653745921603    -5.089397426479     0.286619639552    12.000000000000
         C            2.425488516150    -5.789828286592     0.295996570104    12.000000000000
         C            6.091961438086    -5.101911614451     0.292974053226    12.000000000000
         C            4.894972264885    -5.805002072022     0.291737857396    12.000000000000
         H           -7.089896567766    -5.575653493303     0.297140180257     1.007825032230
         H            7.031051029475    -5.651312187397     0.296553832990     1.007825032230
         C           -4.923549501924    -7.187474750742     0.290328816228    12.000000000000
         C           -2.485346267963    -7.196381728994     0.287818923792    12.000000000000
         C           -3.751690071504    -7.872600808701     0.288013602717    12.000000000000
         C           -0.037953136713    -7.208118525534     0.288034648939    12.000000000000
         C           -1.277960280127    -7.881558035731     0.286049956178    12.000000000000
         C            2.409440141001    -7.222675663067     0.288897849750    12.000000000000
         C            1.194745757428    -7.894839016627     0.286745558869    12.000000000000
         C            4.847616872773    -7.239915761644     0.291404664410    12.000000000000
         C            3.668467426150    -7.912441644008     0.289056230046    12.000000000000
         H           -5.869944530142    -7.722484249106     0.291872853093     1.007825032230
         H            5.788245445663    -7.784985840379     0.292531783892     1.007825032230
         H           -3.753531119175    -8.959725220301     0.286177688288     1.007825032230
         H           -1.284308585620    -8.969529043562     0.281622572319     1.007825032230
         H            1.189217394970    -8.982814271654     0.282652922178     1.007825032230
         H            3.658542435098    -8.999514285118     0.287401688624     1.007825032230

  Charge       = 0
  Multiplicity = 1
  Basis Set: JUN-CC-PVDZ
    Blend: JUN-CC-PVDZ
  Basis Set: (JUN-CC-PVDZ AUX)
    Blend: JUN-CC-PVDZ-JKFIT

    Orbital Energies [Eh]
    ---------------------

    Doubly Occupied:

       1A    -11.264068     2A    -11.263697     3A    -11.263632
       4A    -11.263373     5A    -11.263280     6A    -11.263229
       7A    -11.263077     8A    -11.263067     9A    -11.263039
      10A    -11.262865    11A    -11.262736    12A    -11.262700
      13A    -11.262257    14A    -11.262231    15A    -11.262179
      16A    -11.262157    17A    -11.262075    18A    -11.262074
      19A    -11.262025    20A    -11.261991    21A    -11.261957
      22A    -11.261865    23A    -11.261831    24A    -11.261693
      25A    -11.261685    26A    -11.261662    27A    -11.261656
      28A    -11.261608    29A    -11.261602    30A    -11.261523
      31A    -11.261510    32A    -11.261491    33A    -11.261471
      34A    -11.261461    35A    -11.261451    36A    -11.261439
      37A    -11.261277    38A    -11.261270    39A    -11.261251
      40A    -11.261247    41A    -11.261224    42A    -11.261219
      43A    -11.261212    44A    -11.261206    45A    -11.261198
      46A    -11.261187    47A    -11.261166    48A    -11.261151
      49A    -11.261011    50A    -11.260991    51A    -11.260983
      52A    -11.260920    53A    -11.260912    54A    -11.260827
      55A    -11.259859    56A    -11.259835    57A    -11.259817
      58A    -11.259804    59A    -11.259779    60A    -11.259747
      61A    -11.259231    62A    -11.259202    63A    -11.259193
      64A    -11.259147    65A    -11.259138    66A    -11.259100
      67A    -11.258859    68A    -11.258835    69A    -11.258815
      70A    -11.258805    71A    -11.258779    72A    -11.258749
      73A    -11.254485    74A    -11.254481    75A    -11.254452
      76A    -11.254448    77A    -11.254443    78A    -11.254439
      79A    -11.253612    80A    -11.253587    81A    -11.253586
      82A    -11.253557    83A    -11.253554    84A    -11.253537
      85A    -11.253528    86A    -11.253500    87A    -11.253499
      88A    -11.253472    89A    -11.253468    90A    -11.253453
      91A    -11.253013    92A    -11.253008    93A    -11.252980
      94A    -11.252976    95A    -11.252970    96A    -11.252967
      97A     -1.253796    98A     -1.238871    99A     -1.238851
     100A     -1.220343   101A     -1.220337   102A     -1.215303
     103A     -1.200933   104A     -1.195489   105A     -1.188014
     106A     -1.187998   107A     -1.173658   108A     -1.173657
     109A     -1.155497   110A     -1.155490   111A     -1.152580
     112A     -1.144621   113A     -1.144617   114A     -1.128441
     115A     -1.114583   116A     -1.113060   117A     -1.112355
     118A     -1.112330   119A     -1.111521   120A     -1.088307
     121A     -1.088290   122A     -1.076863   123A     -1.076861
     124A     -1.067489   125A     -1.067451   126A     -1.064836
     127A     -1.046682   128A     -1.046674   129A     -1.040358
     130A     -1.038638   131A     -1.038633   132A     -1.025105
     133A     -1.021236   134A     -1.021179   135A     -1.007066
     136A     -1.006679   137A     -1.003681   138A     -1.000361
     139A     -1.000306   140A     -0.990982   141A     -0.970863
     142A     -0.970811   143A     -0.955778   144A     -0.955720
     145A     -0.905459   146A     -0.905437   147A     -0.905409
     148A     -0.905400   149A     -0.904175   150A     -0.892213
     151A     -0.892154   152A     -0.890217   153A     -0.890168
     154A     -0.889313   155A     -0.872115   156A     -0.868972
     157A     -0.851425   158A     -0.847723   159A     -0.847708
     160A     -0.845455   161A     -0.842879   162A     -0.834436
     163A     -0.834424   164A     -0.828021   165A     -0.828014
     166A     -0.784435   167A     -0.784426   168A     -0.783527
     169A     -0.783518   170A     -0.782164   171A     -0.782138
     172A     -0.781886   173A     -0.766861   174A     -0.760645
     175A     -0.750436   176A     -0.733382   177A     -0.726952
     178A     -0.726921   179A     -0.724949   180A     -0.724418
     181A     -0.724387   182A     -0.718347   183A     -0.713630
     184A     -0.713626   185A     -0.699460   186A     -0.699440
     187A     -0.685981   188A     -0.685842   189A     -0.685834
     190A     -0.682048   191A     -0.682042   192A     -0.678654
     193A     -0.653510   194A     -0.650751   195A     -0.650718
     196A     -0.649665   197A     -0.649662   198A     -0.649452
     199A     -0.640794   200A     -0.640751   201A     -0.639965
     202A     -0.639048   203A     -0.635892   204A     -0.635857
     205A     -0.629010   206A     -0.617723   207A     -0.615194
     208A     -0.615171   209A     -0.608678   210A     -0.608671
     211A     -0.599146   212A     -0.599071   213A     -0.598615
     214A     -0.598456   215A     -0.598442   216A     -0.597894
     217A     -0.594953   218A     -0.594938   219A     -0.594598
     220A     -0.594071   221A     -0.591823   222A     -0.591821
     223A     -0.587239   224A     -0.577702   225A     -0.577685
     226A     -0.575665   227A     -0.575647   228A     -0.573256
     229A     -0.569540   230A     -0.568003   231A     -0.567977
     232A     -0.566622   233A     -0.566615   234A     -0.560817
     235A     -0.558588   236A     -0.558551   237A     -0.558326
     238A     -0.554238   239A     -0.550521   240A     -0.547378
     241A     -0.544222   242A     -0.534960   243A     -0.534951
     244A     -0.533415   245A     -0.533400   246A     -0.527963
     247A     -0.527945   248A     -0.527641   249A     -0.517031
     250A     -0.517002   251A     -0.515297   252A     -0.515285
     253A     -0.509525   254A     -0.509512   255A     -0.497896
     256A     -0.496326   257A     -0.496286   258A     -0.493730
     259A     -0.493713   260A     -0.489368   261A     -0.481333
     262A     -0.477345   263A     -0.477344   264A     -0.473870
     265A     -0.469290   266A     -0.466383   267A     -0.466382
     268A     -0.458733   269A     -0.446518   270A     -0.446465
     271A     -0.440953   272A     -0.440697   273A     -0.440668
     274A     -0.434612   275A     -0.433827   276A     -0.407317
     277A     -0.407266   278A     -0.386317   279A     -0.386273
     280A     -0.385651   281A     -0.385650   282A     -0.383668
     283A     -0.354234   284A     -0.354222   285A     -0.350571
     286A     -0.337989   287A     -0.335477   288A     -0.335422
     289A     -0.332630   290A     -0.332626   291A     -0.306974
     292A     -0.301842   293A     -0.301777   294A     -0.300755
     295A     -0.286068   296A     -0.256399   297A     -0.253378
     298A     -0.253336   299A     -0.204158   300A     -0.204073

  @DF-RHF Final Energy: -3650.34224340913624

   => Energetics <=

    Nuclear Repulsion Energy =          15611.4211649754306563
    One-Electron Energy =              -36072.2095377806326724
    Two-Electron Energy =               16810.4461293960666808
    Total Energy =                      -3650.3422434091371542
 Dipole X            :         -0.0001704            0.0002112            0.0000407
 Dipole Y            :        123.2194383         -123.2131634            0.0062749
 Dipole Z            :       -328.4892868          328.4924465            0.0031597
 Magnitude           :                                                    0.0070257

    SAPT Results
  --------------------------------------------------------------------------------------------------------
    Electrostatics                -33.52703455 [mEh]     -21.03853181 [kcal/mol]     -88.02521707 [kJ/mol]
      Elst10,r                    -33.52703455 [mEh]     -21.03853181 [kcal/mol]     -88.02521707 [kJ/mol]

    Exchange                       80.78438678 [mEh]      50.69296804 [kcal/mol]     212.09937826 [kJ/mol]
      Exch10                       80.78438678 [mEh]      50.69296804 [kcal/mol]     212.09937826 [kJ/mol]
      Exch10(S^2)                  79.08466642 [mEh]      49.62637741 [kcal/mol]     207.63676309 [kJ/mol]

    Induction                     -37.08932951 [mEh]     -23.27390564 [kcal/mol]     -97.37802121 [kJ/mol]
      Ind20,r                     -49.27578158 [mEh]     -30.92101977 [kcal/mol]    -129.37354673 [kJ/mol]
      Exch-Ind20,r                 24.14511219 [mEh]      15.15128665 [kcal/mol]      63.39298333 [kJ/mol]
      delta HF,r (2)              -11.95866012 [mEh]      -7.50417252 [kcal/mol]     -31.39745781 [kJ/mol]

    Dispersion                    -43.72910543 [mEh]     -27.44042794 [kcal/mol]    -114.81075049 [kJ/mol]
      Disp20                      -48.74633439 [mEh]     -30.58878664 [kcal/mol]    -127.98348331 [kJ/mol]
      Exch-Disp20                   5.01722896 [mEh]       3.14835870 [kcal/mol]      13.17273281 [kJ/mol]
      Disp20 (SS)                 -24.37316719 [mEh]     -15.29439332 [kcal/mol]     -63.99174165 [kJ/mol]
      Disp20 (OS)                 -24.37316719 [mEh]     -15.29439332 [kcal/mol]     -63.99174165 [kJ/mol]
      Exch-Disp20 (SS)              3.09854263 [mEh]       1.94436486 [kcal/mol]       8.13522256 [kJ/mol]
      Exch-Disp20 (OS)              1.91868632 [mEh]       1.20399385 [kcal/mol]       5.03751025 [kJ/mol]

  Total HF                         10.16802272 [mEh]       6.38053059 [kcal/mol]      26.69613998 [kJ/mol]
  Total SAPT0                     -33.56108271 [mEh]     -21.05989735 [kcal/mol]     -88.11461051 [kJ/mol]

  Special recipe for scaled SAPT0 (see Manual):
    Electrostatics sSAPT0         -33.52703455 [mEh]     -21.03853181 [kcal/mol]     -88.02521707 [kJ/mol]
    Exchange sSAPT0                80.78438678 [mEh]      50.69296804 [kcal/mol]     212.09937826 [kJ/mol]
    Induction sSAPT0              -35.49881999 [mEh]     -22.27584585 [kcal/mol]     -93.20213903 [kJ/mol]
    Dispersion sSAPT0             -43.39860581 [mEh]     -27.23303629 [kcal/mol]    -113.94302386 [kJ/mol]
  Total sSAPT0                    -31.64007356 [mEh]     -19.85444591 [kcal/mol]     -83.07100170 [kJ/mol]
  --------------------------------------------------------------------------------------------------------

*** Psi4 exiting successfully. Buy a developer a beer!
