                               Psi4 1.9 release

  ==> Input File <==

--------------------------------------------------------------------------
memory 48 GB # how much memory is available ! Depends on the nodes/cores !

molecule dimer {
# monomer A
+1 1    # Charge and multiplicity
C  0.680067 -1.215929 3.108042
C -0.680504 -1.215545 3.106014
N -1.085635  0.102779 3.105016
C  0.000108  0.884180 3.101740
C -2.477365  0.570758 3.055610
N  1.085222  0.102779 3.105016
H  1.385146 -2.033368 3.115870
H -1.385302 -2.033214 3.106204
H -0.000009  1.965269 3.099993
C  2.478117  0.567877 3.121908
H  2.490592  1.658130 3.094563
H  2.967028  0.220701 4.035354
H  3.001428  0.176405 2.246425
H -2.857359  0.490799 2.033539
H -3.082679 -0.042306 3.725694
H -2.518128  1.610706 3.382594
--
# monomer B
0 1     # Charge and multiplicity
C   1.22531237526482      0.70753866091955      0.00613762728373
C   1.22532433589282     -0.70753852257020     -0.00619318228664
C   -0.00000567409046      1.41496628609039     -0.00672680580738
C   2.45644923379077      1.41832825917820      0.00902448468363
C   0.00001130712078     -1.41497612663474      0.00347275151708
C   -1.22530046906674      0.70754574598412      0.00838914760619
C   2.45643823516184     -1.41832293188077     -0.00843833914343
C   -0.00000085313587      2.83680140328112     -0.00913035594137
C   3.68182717731192      0.70931832800114     -0.00808954934571
C   2.45512052870677      2.83422403348893     -0.00819210630633
C   3.68182158506039     -0.70933346742900      0.00798293467272
C   -1.22531311884624     -0.70752714354401     -0.00512042085974
C   1.22670006104402      3.54346985599427      0.00816696660346
C   0.00000526469929     -2.83678176723568      0.00832091913869
C   -2.45643555300670      1.41831729028492      0.00842454345199
C   2.45512389762097     -2.83422965658853      0.00783102630520
C   -1.22671388474763      3.54346943575023      0.00827029982280
C   4.91451777504333      1.42717324448953     -0.00160886631602
C   3.69315067131765      3.54279566454522     -0.00155906667985
C   -2.45643712022637     -1.41831290883911     -0.00846337726810
C   1.22670532178455     -3.54347386990643     -0.00780316414624
C   -2.45512491866593      2.83421703463423     -0.00818572995999
C   4.91452486062398     -1.42718653794377      0.00136387641845
C   1.22142509354026      4.97013443726031      0.00150231067809
C   4.89300870916237      2.82518837202648     -0.00039219795739
C   -1.22669652864725     -3.54347062507680     -0.00753595973677
C   -3.68181849668397      0.70932533873199     -0.00807686886569
C   3.69314758099218     -3.54280096939050      0.00148176697923
C   -1.22143177215231      4.97012866986289      0.00168580605083
C   6.13477145276790      0.68054831910577     -0.00083909176631
C   3.65678936045204      4.97295361556775     -0.00065042889723
C   -2.45512642789169     -2.83421472106065      0.00758666850712
C   -3.68181869921921     -0.70932533146830      0.00810055625144
C   4.89301309775526     -2.82519973363176      0.00021895393805
C   -0.00000059327114      5.65044773803267      0.00045449734393
C   6.13477559217374     -0.68055448207492      0.00042622874941
C   2.47813196269732      5.65357712333155      0.00063835075260
C   1.22142288457925     -4.97012668293268     -0.00129718634452
C   -3.69316190412301      3.54279732619245     -0.00139355922051
C   -1.22142804110313     -4.97011793159564     -0.00140994817719
C   -4.91452132810043      1.42717581899491     -0.00153192130862
C   3.65678749952045     -4.97295485423912      0.00080007163680
C   -2.47813805026426      5.65357479452875      0.00092287576113
C   -3.69314125872231     -3.54278984697859      0.00136564082345
C   -4.91451200321153     -1.42718062802730      0.00139857359209
C   -0.00000552908399     -5.65043791501335      0.00005899322272
C   -4.89302000425900      2.82518897091939     -0.00040227981744
C   2.47812647313991     -5.65357317188818     -0.00029052915548
C   -3.65679823041642      4.97295655404175     -0.00047374852278
C   -4.89299899901461     -2.82519139505969      0.00006491824035
C   -2.47812801824129     -5.65356579800621     -0.00056571680280
C   -6.13477002348955      0.68054913825639     -0.00086464346868
C   -3.65678835334731     -4.97294365097028      0.00058578382008
C   -6.13476456307132     -0.68055354348201      0.00040575295444
H   5.83528897565761      3.36927626695423      0.00396712770529
H   7.07385965258860      1.22821762089947     -0.00037744837300
H   4.60066374401555      5.51238117445323     -0.00014522814529
H   5.83528386714679     -3.36930568472863     -0.00423551337640
H   -0.00001167146422      6.73853104613662     -0.00389474766392
H   7.07386165167227     -1.22822657074368     -0.00008250934481
H   2.47331421164041      6.74068466339473      0.00017162982210
H   4.60066897122302     -5.51237575717576      0.00039007446835
H   -2.47331820069565      6.74068209160650      0.00047297644710
H   -0.00000978838621     -6.73852780445195      0.00458867820736
H   -5.83530143450167      3.36927132229595      0.00410314985360
H   2.47330840367253     -6.74068500242887      0.00027980126949
H   -4.60067436136587      5.51237839860371      0.00002010017831
H   -5.83527902699321     -3.36928859177951     -0.00451481925734
H   -2.47329986759855     -6.74067870613986     -0.00016951527498
H   -7.07385728692578      1.22822084484047     -0.00046143985387
H   -4.60067330624313     -5.51236229778631      0.00021776644566
H   -7.07385645456741     -1.22822025997701     -0.00017736581114

    units angstrom      # Angstroms are the default
    no_reorient         # Geometry fixed, default
    symmetry c1         # C1 symmetry, default
}

set {
    scf_type DF         # Density fitting, faster than exact integrals
    freeze_core True    # Freeze core electrons
    basis jun-cc-pVDZ   # Jun-cc-pVDZ basis set, recommended for sSAPT0 in https://doi.org/10.1063/1.4867135
}

energy('ssapt0')        # Compute sSAPT0 energy, includes also SAPT0
--------------------------------------------------------------------------

  //              Dimer HF             //
    Molecular point group: c1
  Charge       = 1
  Multiplicity = 1
  Basis Set: JUN-CC-PVDZ
    Blend: JUN-CC-PVDZ
  Basis Set: (JUN-CC-PVDZ AUX)
    Blend: JUN-CC-PVDZ-JKFIT
  @DF-RHF Final Energy: -2359.18577627772038
    Total Energy =                      -2359.1857762777199241
 Dipole X            :          0.0033403            0.0006313            0.0039716
 Dipole Y            :         -1.6305562            1.8864948            0.2559387
 Dipole Z            :        -12.7165626           16.1034047            3.3868421
 Magnitude           :                                                    3.3965011
  //            Monomer A HF           //
    Molecular point group: c1
  Multiplicity = 1
  Basis Set: JUN-CC-PVDZ
    Blend: JUN-CC-PVDZ
  Basis Set: (JUN-CC-PVDZ AUX)
    Blend: JUN-CC-PVDZ-JKFIT
  @DF-RHF Final Energy:  -303.29951428064339
    Total Energy =                       -303.2995142806433932
  //            Monomer B HF           //
    Molecular point group: c1

    Geometry (in Angstrom), charge = 0, multiplicity = 1:

       Center              X                  Y                   Z               Mass
    ------------   -----------------  -----------------  -----------------  -----------------
      Gh(C)           0.680066520158    -1.215933861162     2.713743200865    12.000000000000
      Gh(C)          -0.680504479842    -1.215549861162     2.711715200865    12.000000000000
      Gh(N)          -1.085635479842     0.102774138838     2.710717200865    14.003074004430
      Gh(C)           0.000107520158     0.884175138838     2.707441200865    12.000000000000
      Gh(C)          -2.477365479842     0.570753138838     2.661311200865    12.000000000000
      Gh(N)           1.085221520158     0.102774138838     2.710717200865    14.003074004430
      Gh(H)           1.385145520158    -2.033372861162     2.721571200865     1.007825032230
      Gh(H)          -1.385302479842    -2.033218861162     2.711905200865     1.007825032230
      Gh(H)          -0.000009479842     1.965264138838     2.705694200865     1.007825032230
      Gh(C)           2.478116520158     0.567872138838     2.727609200865    12.000000000000
      Gh(H)           2.490591520158     1.658125138838     2.700264200865     1.007825032230
      Gh(H)           2.967027520158     0.220696138838     3.641055200865     1.007825032230
      Gh(H)           3.001427520158     0.176400138838     1.852126200865     1.007825032230
      Gh(H)          -2.857359479842     0.490794138838     1.639240200865     1.007825032230
      Gh(H)          -3.082679479842    -0.042310861162     3.331395200865     1.007825032230
      Gh(H)          -2.518128479842     1.610701138838     2.988295200865     1.007825032230
         C            1.225311895423     0.707533799757    -0.388161171852    12.000000000000
         C            1.225323856051    -0.707543383733    -0.400491981422    12.000000000000
         C           -0.000006153932     1.414961424928    -0.401025604943    12.000000000000
         C            2.456448753949     1.418323398016    -0.385274314452    12.000000000000
         C            0.000010827279    -1.414980987797    -0.390826047618    12.000000000000
         C           -1.225300948908     0.707540884822    -0.385909651529    12.000000000000
         C            2.456437755320    -1.418327793043    -0.402737138279    12.000000000000
         C           -0.000001332978     2.836796542119    -0.403429155077    12.000000000000
         C            3.681826697470     0.709313466839    -0.402388348481    12.000000000000
         C            2.455120048865     2.834219172327    -0.402490905442    12.000000000000
         C            3.681821105219    -0.709338328591    -0.386315864463    12.000000000000
         C           -1.225313598688    -0.707532004706    -0.399419219995    12.000000000000
         C            1.226699581202     3.543464994832    -0.386131832532    12.000000000000
         C            0.000004784858    -2.836786628398    -0.385977879997    12.000000000000
         C           -2.456436032848     1.418312429123    -0.385874255683    12.000000000000
         C            2.455123417779    -2.834234517751    -0.386467772830    12.000000000000
         C           -1.226714364589     3.543464574588    -0.386028499312    12.000000000000
         C            4.914517295202     1.427168383327    -0.395907665451    12.000000000000
         C            3.693150191476     3.542790803383    -0.395857865815    12.000000000000
         C           -2.456437600068    -1.418317770001    -0.402762176403    12.000000000000
         C            1.226704841943    -3.543478731069    -0.402101963282    12.000000000000
         C           -2.455125398508     2.834212173472    -0.402484529095    12.000000000000
         C            4.914524380782    -1.427191399106    -0.392934922717    12.000000000000
         C            1.221424613699     4.970129576098    -0.392796488457    12.000000000000
         C            4.893008229321     2.825183510864    -0.394690997093    12.000000000000
         C           -1.226697008489    -3.543475486239    -0.401834758872    12.000000000000
         C           -3.681818976526     0.709320477570    -0.402375668001    12.000000000000
         C            3.693147101150    -3.542805830553    -0.392817032156    12.000000000000
         C           -1.221432251994     4.970123808701    -0.392612993084    12.000000000000
         C            6.134770972926     0.680543457943    -0.395137890902    12.000000000000
         C            3.656788880610     4.972948754405    -0.394949228032    12.000000000000
         C           -2.455126907733    -2.834219582223    -0.386712130628    12.000000000000
         C           -3.681819179061    -0.709330192631    -0.386198242884    12.000000000000
         C            4.893012617914    -2.825204594794    -0.394079845197    12.000000000000
         C           -0.000001073113     5.650442876870    -0.393844301791    12.000000000000
         C            6.134775112332    -0.680559343237    -0.393872570386    12.000000000000
         C            2.478131482856     5.653572262169    -0.393660448383    12.000000000000
         C            1.221422404738    -4.970131544095    -0.395595985480    12.000000000000
         C           -3.693162383965     3.542792465030    -0.395692358356    12.000000000000
         C           -1.221428520945    -4.970122792758    -0.395708747312    12.000000000000
         C           -4.914521807942     1.427170957833    -0.395830720444    12.000000000000
         C            3.656787019679    -4.972959715401    -0.393498727498    12.000000000000
         C           -2.478138530106     5.653569933366    -0.393375923374    12.000000000000
         C           -3.693141738564    -3.542794708141    -0.392933158312    12.000000000000
         C           -4.914512483053    -1.427185489190    -0.392900225543    12.000000000000
         C           -0.000006008926    -5.650442776176    -0.394239805913    12.000000000000
         C           -4.893020484101     2.825184109757    -0.394701078953    12.000000000000
         C            2.478125993298    -5.653578033051    -0.394589328291    12.000000000000
         C           -3.656798710258     4.972951692879    -0.394772547658    12.000000000000
         C           -4.892999478856    -2.825196256222    -0.394233880895    12.000000000000
         C           -2.478128498083    -5.653570659169    -0.394864515938    12.000000000000
         C           -6.134770503331     0.680544277094    -0.395163442604    12.000000000000
         C           -3.656788833189    -4.972948512133    -0.393713015315    12.000000000000
         C           -6.134765042913    -0.680558404644    -0.393893046181    12.000000000000
         H            5.835288495816     3.369271405792    -0.390331671430     1.007825032230
         H            7.073859172747     1.228212759737    -0.394676247508     1.007825032230
         H            4.600663264174     5.512376313291    -0.394444027281     1.007825032230
         H            5.835283387305    -3.369310545891    -0.398534312512     1.007825032230
         H           -0.000012151306     6.738526184974    -0.398193546799     1.007825032230
         H            7.073861171831    -1.228231431906    -0.394381308480     1.007825032230
         H            2.473313731799     6.740679802232    -0.394127169313     1.007825032230
         H            4.600668491381    -5.512380618338    -0.393908724667     1.007825032230
         H           -2.473318680537     6.740677230444    -0.393825822688     1.007825032230
         H           -0.000010268228    -6.738532665614    -0.389710120928     1.007825032230
         H           -5.835301914343     3.369266461134    -0.390195649282     1.007825032230
         H            2.473307923831    -6.740689863591    -0.394018997866     1.007825032230
         H           -4.600674841208     5.512373537441    -0.394278698957     1.007825032230
         H           -5.835279506835    -3.369293452942    -0.398813618393     1.007825032230
         H           -2.473300347440    -6.740683567302    -0.394468314410     1.007825032230
         H           -7.073857766768     1.228215983678    -0.394760238989     1.007825032230
         H           -4.600673786085    -5.512367158949    -0.394081032690     1.007825032230
         H           -7.073856934409    -1.228225121139    -0.394476164946     1.007825032230

  Charge       = 0
  Multiplicity = 1
  Basis Set: JUN-CC-PVDZ
    Blend: JUN-CC-PVDZ
  Basis Set: (JUN-CC-PVDZ AUX)
    Blend: JUN-CC-PVDZ-JKFIT

    Orbital Energies [Eh]
    ---------------------

    Doubly Occupied:

       1A    -11.260677     2A    -11.260246     3A    -11.260198
       4A    -11.259483     5A    -11.259435     6A    -11.259266
       7A    -11.258999     8A    -11.258950     9A    -11.258900
      10A    -11.258591    11A    -11.258569    12A    -11.258404
      13A    -11.258357    14A    -11.258347    15A    -11.258340
      16A    -11.258312    17A    -11.258299    18A    -11.258285
      19A    -11.258279    20A    -11.258272    21A    -11.258260
      22A    -11.258243    23A    -11.258232    24A    -11.258070
      25A    -11.257246    26A    -11.257214    27A    -11.257151
      28A    -11.257071    29A    -11.257028    30A    -11.256964
      31A    -11.256356    32A    -11.256314    33A    -11.256241
      34A    -11.256185    35A    -11.256140    36A    -11.256097
      37A    -11.252148    38A    -11.252145    39A    -11.252130
      40A    -11.252125    41A    -11.252117    42A    -11.252101
      43A    -11.251223    44A    -11.251220    45A    -11.251211
      46A    -11.251209    47A    -11.251202    48A    -11.251183
      49A    -11.250710    50A    -11.250706    51A    -11.250691
      52A    -11.250686    53A    -11.250678    54A    -11.250662
      55A     -1.243801    56A     -1.219568    57A     -1.219545
      58A     -1.189302    59A     -1.189284    60A     -1.180701
      61A     -1.157333    62A     -1.148733    63A     -1.135253
      64A     -1.135229    65A     -1.112967    66A     -1.112960
      67A     -1.082181    68A     -1.082168    69A     -1.078358
      70A     -1.065763    71A     -1.065752    72A     -1.039162
      73A     -1.023997    74A     -1.021515    75A     -1.021458
      76A     -1.017499    77A     -1.012585    78A     -0.986773
      79A     -0.986710    80A     -0.961655    81A     -0.961600
      82A     -0.894053    83A     -0.894033    84A     -0.887654
      85A     -0.885897    86A     -0.885857    87A     -0.881122
      88A     -0.881076    89A     -0.861668    90A     -0.837206
      91A     -0.817952    92A     -0.816334    93A     -0.811870
      94A     -0.811866    95A     -0.794465    96A     -0.794453
      97A     -0.746330    98A     -0.744592    99A     -0.733148
     100A     -0.733135   101A     -0.731946   102A     -0.731927
     103A     -0.716246   104A     -0.698742   105A     -0.698705
     106A     -0.693338   107A     -0.693292   108A     -0.660997
     109A     -0.652853   110A     -0.650870   111A     -0.650032
     112A     -0.650024   113A     -0.639124   114A     -0.639103
     115A     -0.629450   116A     -0.627255   117A     -0.627244
     118A     -0.606453   119A     -0.605628   120A     -0.601382
     121A     -0.599504   122A     -0.599435   123A     -0.593359
     124A     -0.590932   125A     -0.590900   126A     -0.585072
     127A     -0.576396   128A     -0.576324   129A     -0.567107
     130A     -0.567086   131A     -0.565688   132A     -0.565681
     133A     -0.558451   134A     -0.554620   135A     -0.554608
     136A     -0.538364   137A     -0.538360   138A     -0.538139
     139A     -0.538131   140A     -0.529464   141A     -0.528099
     142A     -0.522637   143A     -0.522600   144A     -0.500273
     145A     -0.495505   146A     -0.492994   147A     -0.487729
     148A     -0.484795   149A     -0.481491   150A     -0.481490
     151A     -0.470253   152A     -0.470247   153A     -0.450720
     154A     -0.450654   155A     -0.438940   156A     -0.438934
     157A     -0.404613   158A     -0.404605   159A     -0.403246
     160A     -0.375279   161A     -0.375271   162A     -0.348981
     163A     -0.337512   164A     -0.336463   165A     -0.336427
     166A     -0.310924   167A     -0.297954   168A     -0.284201
     169A     -0.284159   170A     -0.224762   171A     -0.224708

  @DF-RHF Final Energy: -2055.89660722779945

   => Energetics <=

    Nuclear Repulsion Energy =           6452.5568002797781446
    One-Electron Energy =              -15636.5499066538886836
    Two-Electron Energy =                7128.0964991463106344
    Total Energy =                      -2055.8966072277989952
 Dipole X            :         -0.0001063           -0.0000085           -0.0001148
 Dipole Y            :          0.0015033           -0.0028843           -0.0013809
 Dipole Z            :        254.8320935         -254.8313687            0.0007247
 Magnitude           :                                                    0.0015638

    SAPT Results
  --------------------------------------------------------------------------------------------------------
    Electrostatics                -36.74843304 [mEh]     -23.05998988 [kcal/mol]     -96.48299765 [kJ/mol]
      Elst10,r                    -36.74843304 [mEh]     -23.05998988 [kcal/mol]     -96.48299765 [kJ/mol]

    Exchange                       67.81015488 [mEh]      42.55151460 [kcal/mol]     178.03553710 [kJ/mol]
      Exch10                       67.81015488 [mEh]      42.55151460 [kcal/mol]     178.03553710 [kJ/mol]
      Exch10(S^2)                  67.28490212 [mEh]      42.22191352 [kcal/mol]     176.65648618 [kJ/mol]

    Induction                     -20.71649112 [mEh]     -12.99979444 [kcal/mol]     -54.39113994 [kJ/mol]
      Ind20,r                     -38.85633657 [mEh]     -24.38271932 [kcal/mol]    -102.01729761 [kJ/mol]
      Exch-Ind20,r                 23.68651484 [mEh]      14.86351247 [kcal/mol]      62.18893616 [kJ/mol]
      delta HF,r (2)               -5.54666939 [mEh]      -3.48058759 [kcal/mol]     -14.56277848 [kJ/mol]

    Dispersion                    -53.73188615 [mEh]     -33.71726760 [kcal/mol]    -141.07304765 [kJ/mol]
      Disp20                      -60.49270408 [mEh]     -37.95974490 [kcal/mol]    -158.82357268 [kJ/mol]
      Exch-Disp20                   6.76081793 [mEh]       4.24247730 [kcal/mol]      17.75052502 [kJ/mol]
      Disp20 (SS)                 -30.24635204 [mEh]     -18.97987245 [kcal/mol]     -79.41178634 [kJ/mol]
      Disp20 (OS)                 -30.24635204 [mEh]     -18.97987245 [kcal/mol]     -79.41178634 [kJ/mol]
      Exch-Disp20 (SS)              4.05678768 [mEh]       2.54567270 [kcal/mol]      10.65109458 [kJ/mol]
      Exch-Disp20 (OS)              2.70403025 [mEh]       1.69680460 [kcal/mol]       7.09943044 [kJ/mol]

  Total HF                         10.34523072 [mEh]       6.49173029 [kcal/mol]      27.16139952 [kJ/mol]
  Total SAPT0                     -43.38665543 [mEh]     -27.22553732 [kcal/mol]    -113.91164813 [kJ/mol]

  Special recipe for scaled SAPT0 (see Manual):
    Electrostatics sSAPT0         -36.74843304 [mEh]     -23.05998988 [kcal/mol]     -96.48299765 [kJ/mol]
    Exchange sSAPT0                67.81015488 [mEh]      42.55151460 [kcal/mol]     178.03553710 [kJ/mol]
    Induction sSAPT0              -20.15743037 [mEh]     -12.64897853 [kcal/mol]     -52.92332615 [kJ/mol]
    Dispersion sSAPT0             -53.57231401 [mEh]     -33.61713457 [kcal/mol]    -140.65409105 [kJ/mol]
  Total sSAPT0                    -42.66802254 [mEh]     -26.77458837 [kcal/mol]    -112.02487775 [kJ/mol]
  --------------------------------------------------------------------------------------------------------

*** Psi4 exiting successfully. Buy a developer a beer!
