                               Psi4 1.9 release

  ==> Input File <==

--------------------------------------------------------------------------
memory 32 GB # how much memory is available ! Depends on the nodes/cores !

molecule dimer {
# monomer A
+1 1    # Charge and multiplicity
C  0.680067 -0.008042 -6.615929
C -0.680504 -0.006014 -6.615545
N -1.085635 -0.005016 -5.297221
C  0.000108 -0.001740 -4.515820
C -2.477365  0.044390 -4.829242
N  1.085222 -0.005016 -5.297221
H  1.385146 -0.015870 -7.433368
H -1.385302 -0.006204 -7.433214
H -0.000009  0.000007 -3.434731
C  2.478117 -0.021908 -4.832123
H  2.490592  0.005437 -3.741870
H  2.967028 -0.935354 -5.179299
H  3.001428  0.853575 -5.223595
H -2.857359  1.066461 -4.909201
H -3.082679 -0.625694 -5.442306
H -2.518128 -0.282594 -3.789294
--
# monomer B
0 1     # Charge and multiplicity
C   1.22531237526482      0.70753866091955      0.00613762728373
C   1.22532433589282     -0.70753852257020     -0.00619318228664
C   -0.00000567409046      1.41496628609039     -0.00672680580738
C   2.45644923379077      1.41832825917820      0.00902448468363
C   0.00001130712078     -1.41497612663474      0.00347275151708
C   -1.22530046906674      0.70754574598412      0.00838914760619
C   2.45643823516184     -1.41832293188077     -0.00843833914343
C   -0.00000085313587      2.83680140328112     -0.00913035594137
C   3.68182717731192      0.70931832800114     -0.00808954934571
C   2.45512052870677      2.83422403348893     -0.00819210630633
C   3.68182158506039     -0.70933346742900      0.00798293467272
C   -1.22531311884624     -0.70752714354401     -0.00512042085974
C   1.22670006104402      3.54346985599427      0.00816696660346
C   0.00000526469929     -2.83678176723568      0.00832091913869
C   -2.45643555300670      1.41831729028492      0.00842454345199
C   2.45512389762097     -2.83422965658853      0.00783102630520
C   -1.22671388474763      3.54346943575023      0.00827029982280
C   4.91451777504333      1.42717324448953     -0.00160886631602
C   3.69315067131765      3.54279566454522     -0.00155906667985
C   -2.45643712022637     -1.41831290883911     -0.00846337726810
C   1.22670532178455     -3.54347386990643     -0.00780316414624
C   -2.45512491866593      2.83421703463423     -0.00818572995999
C   4.91452486062398     -1.42718653794377      0.00136387641845
C   1.22142509354026      4.97013443726031      0.00150231067809
C   4.89300870916237      2.82518837202648     -0.00039219795739
C   -1.22669652864725     -3.54347062507680     -0.00753595973677
C   -3.68181849668397      0.70932533873199     -0.00807686886569
C   3.69314758099218     -3.54280096939050      0.00148176697923
C   -1.22143177215231      4.97012866986289      0.00168580605083
C   6.13477145276790      0.68054831910577     -0.00083909176631
C   3.65678936045204      4.97295361556775     -0.00065042889723
C   -2.45512642789169     -2.83421472106065      0.00758666850712
C   -3.68181869921921     -0.70932533146830      0.00810055625144
C   4.89301309775526     -2.82519973363176      0.00021895393805
C   -0.00000059327114      5.65044773803267      0.00045449734393
C   6.13477559217374     -0.68055448207492      0.00042622874941
C   2.47813196269732      5.65357712333155      0.00063835075260
C   1.22142288457925     -4.97012668293268     -0.00129718634452
C   -3.69316190412301      3.54279732619245     -0.00139355922051
C   -1.22142804110313     -4.97011793159564     -0.00140994817719
C   -4.91452132810043      1.42717581899491     -0.00153192130862
C   3.65678749952045     -4.97295485423912      0.00080007163680
C   -2.47813805026426      5.65357479452875      0.00092287576113
C   -3.69314125872231     -3.54278984697859      0.00136564082345
C   -4.91451200321153     -1.42718062802730      0.00139857359209
C   -0.00000552908399     -5.65043791501335      0.00005899322272
C   -4.89302000425900      2.82518897091939     -0.00040227981744
C   2.47812647313991     -5.65357317188818     -0.00029052915548
C   -3.65679823041642      4.97295655404175     -0.00047374852278
C   -4.89299899901461     -2.82519139505969      0.00006491824035
C   -2.47812801824129     -5.65356579800621     -0.00056571680280
C   -6.13477002348955      0.68054913825639     -0.00086464346868
C   -3.65678835334731     -4.97294365097028      0.00058578382008
C   -6.13476456307132     -0.68055354348201      0.00040575295444
H   5.83528897565761      3.36927626695423      0.00396712770529
H   7.07385965258860      1.22821762089947     -0.00037744837300
H   4.60066374401555      5.51238117445323     -0.00014522814529
H   5.83528386714679     -3.36930568472863     -0.00423551337640
H   -0.00001167146422      6.73853104613662     -0.00389474766392
H   7.07386165167227     -1.22822657074368     -0.00008250934481
H   2.47331421164041      6.74068466339473      0.00017162982210
H   4.60066897122302     -5.51237575717576      0.00039007446835
H   -2.47331820069565      6.74068209160650      0.00047297644710
H   -0.00000978838621     -6.73852780445195      0.00458867820736
H   -5.83530143450167      3.36927132229595      0.00410314985360
H   2.47330840367253     -6.74068500242887      0.00027980126949
H   -4.60067436136587      5.51237839860371      0.00002010017831
H   -5.83527902699321     -3.36928859177951     -0.00451481925734
H   -2.47329986759855     -6.74067870613986     -0.00016951527498
H   -7.07385728692578      1.22822084484047     -0.00046143985387
H   -4.60067330624313     -5.51236229778631      0.00021776644566
H   -7.07385645456741     -1.22822025997701     -0.00017736581114

    units angstrom      # Angstroms are the default
    no_reorient         # Geometry fixed, default
    symmetry c1         # C1 symmetry, default
}

set {
    scf_type DF         # Density fitting, faster than exact integrals
    freeze_core True    # Freeze core electrons
    basis jun-cc-pVDZ   # Jun-cc-pVDZ basis set, recommended for sSAPT0 in https://doi.org/10.1063/1.4867135
}

energy('ssapt0')        # Compute sSAPT0 energy, includes also SAPT0
--------------------------------------------------------------------------

  //              Dimer HF             //
    Molecular point group: c1
  Charge       = 1
  Multiplicity = 1
  Basis Set: JUN-CC-PVDZ
    Blend: JUN-CC-PVDZ
  Basis Set: (JUN-CC-PVDZ AUX)
    Blend: JUN-CC-PVDZ-JKFIT
  @DF-RHF Final Energy: -2359.20856443482535
    Total Energy =                      -2359.2085644348244386
 Dipole X            :         -0.0015872            0.0006313           -0.0009559
 Dipole Y            :         -0.0495542            0.0560211            0.0064669
 Dipole Z            :         19.0765227          -26.2616634           -7.1851407
 Magnitude           :                                                    7.1851437
  //            Monomer A HF           //
    Molecular point group: c1
  Multiplicity = 1
  Basis Set: JUN-CC-PVDZ
    Blend: JUN-CC-PVDZ
  Basis Set: (JUN-CC-PVDZ AUX)
    Blend: JUN-CC-PVDZ-JKFIT
  @DF-RHF Final Energy:  -303.29761973221082
    Total Energy =                       -303.2976197322108192
  //            Monomer B HF           //
    Molecular point group: c1

    Geometry (in Angstrom), charge = 0, multiplicity = 1:

       Center              X                  Y                   Z               Mass
    ------------   -----------------  -----------------  -----------------  -----------------
      Gh(C)           0.680066520158    -0.008042372515    -5.929084403064    12.000000000000
      Gh(C)          -0.680504479842    -0.006014372515    -5.928700403064    12.000000000000
      Gh(N)          -1.085635479842    -0.005016372515    -4.610376403064    14.003074004430
      Gh(C)           0.000107520158    -0.001740372515    -3.828975403064    12.000000000000
      Gh(C)          -2.477365479842     0.044389627485    -4.142397403064    12.000000000000
      Gh(N)           1.085221520158    -0.005016372515    -4.610376403064    14.003074004430
      Gh(H)           1.385145520158    -0.015870372515    -6.746523403064     1.007825032230
      Gh(H)          -1.385302479842    -0.006204372515    -6.746369403064     1.007825032230
      Gh(H)          -0.000009479842     0.000006627485    -2.747886403064     1.007825032230
      Gh(C)           2.478116520158    -0.021908372515    -4.145278403064    12.000000000000
      Gh(H)           2.490591520158     0.005436627485    -3.055025403064     1.007825032230
      Gh(H)           2.967027520158    -0.935354372515    -4.492454403064     1.007825032230
      Gh(H)           3.001427520158     0.853574627485    -4.536750403064     1.007825032230
      Gh(H)          -2.857359479842     1.066460627485    -4.222356403064     1.007825032230
      Gh(H)          -3.082679479842    -0.625694372515    -4.755461403064     1.007825032230
      Gh(H)          -2.518128479842    -0.282594372515    -3.102449403064     1.007825032230
         C            1.225311895423     0.707538288405     0.692982224220    12.000000000000
         C            1.225323856051    -0.707538895085     0.680651414649    12.000000000000
         C           -0.000006153932     1.414965913575     0.680117791129    12.000000000000
         C            2.456448753949     1.418327886663     0.695869081620    12.000000000000
         C            0.000010827279    -1.414976499150     0.690317348453    12.000000000000
         C           -1.225300948908     0.707545373469     0.695233744542    12.000000000000
         C            2.456437755320    -1.418323304396     0.678406257793    12.000000000000
         C           -0.000001332978     2.836801030766     0.677714240995    12.000000000000
         C            3.681826697470     0.709317955486     0.678755047590    12.000000000000
         C            2.455120048865     2.834223660974     0.678652490630    12.000000000000
         C            3.681821105219    -0.709333839944     0.694827531609    12.000000000000
         C           -1.225313598688    -0.707527516059     0.681724176076    12.000000000000
         C            1.226699581202     3.543469483479     0.695011563539    12.000000000000
         C            0.000004784858    -2.836782139751     0.695165516075    12.000000000000
         C           -2.456436032848     1.418316917770     0.695269140388    12.000000000000
         C            2.455123417779    -2.834230029103     0.694675623241    12.000000000000
         C           -1.226714364589     3.543469063235     0.695114896759    12.000000000000
         C            4.914517295202     1.427172871975     0.685235730620    12.000000000000
         C            3.693150191476     3.542795292030     0.685285530256    12.000000000000
         C           -2.456437600068    -1.418313281354     0.678381219668    12.000000000000
         C            1.226704841943    -3.543474242421     0.679041432790    12.000000000000
         C           -2.455125398508     2.834216662119     0.678658866976    12.000000000000
         C            4.914524380782    -1.427186910459     0.688208473354    12.000000000000
         C            1.221424613699     4.970134064745     0.688346907614    12.000000000000
         C            4.893008229321     2.825187999512     0.686452398979    12.000000000000
         C           -1.226697008489    -3.543470997592     0.679308637199    12.000000000000
         C           -3.681818976526     0.709324966217     0.678767728070    12.000000000000
         C            3.693147101150    -3.542801341905     0.688326363915    12.000000000000
         C           -1.221432251994     4.970128297348     0.688530402987    12.000000000000
         C            6.134770972926     0.680547946591     0.686005505170    12.000000000000
         C            3.656788880610     4.972953243053     0.686194168039    12.000000000000
         C           -2.455126907733    -2.834215093576     0.694431265443    12.000000000000
         C           -3.681819179061    -0.709325703983     0.694945153187    12.000000000000
         C            4.893012617914    -2.825200106147     0.687063550874    12.000000000000
         C           -0.000001073113     5.650447365518     0.687299094280    12.000000000000
         C            6.134775112332    -0.680554854590     0.687270825685    12.000000000000
         C            2.478131482856     5.653576750817     0.687482947689    12.000000000000
         C            1.221422404738    -4.970127055448     0.685547410591    12.000000000000
         C           -3.693162383965     3.542796953677     0.685451037715    12.000000000000
         C           -1.221428520945    -4.970118304111     0.685434648759    12.000000000000
         C           -4.914521807942     1.427175446480     0.685312675627    12.000000000000
         C            3.656787019679    -4.972955226754     0.687644668573    12.000000000000
         C           -2.478138530106     5.653574422014     0.687767472697    12.000000000000
         C           -3.693141738564    -3.542790219494     0.688210237759    12.000000000000
         C           -4.914512483053    -1.427181000542     0.688243170528    12.000000000000
         C           -0.000006008926    -5.650438287528     0.686903590159    12.000000000000
         C           -4.893020484101     2.825188598404     0.686442317119    12.000000000000
         C            2.478125993298    -5.653573544403     0.686554067780    12.000000000000
         C           -3.656798710258     4.972956181527     0.686370848413    12.000000000000
         C           -4.892999478856    -2.825191767575     0.686909515176    12.000000000000
         C           -2.478128498083    -5.653566170521     0.686278880133    12.000000000000
         C           -6.134770503331     0.680548765741     0.685979953467    12.000000000000
         C           -3.656788833189    -4.972944023485     0.687430380756    12.000000000000
         C           -6.134765042913    -0.680553915997     0.687250349890    12.000000000000
         H            5.835288495816     3.369275894439     0.690811724641     1.007825032230
         H            7.073859172747     1.228217248385     0.686467148563     1.007825032230
         H            4.600663264174     5.512380801938     0.686699368791     1.007825032230
         H            5.835283387305    -3.369306057244     0.682609083560     1.007825032230
         H           -0.000012151306     6.738530673622     0.682949849272     1.007825032230
         H            7.073861171831    -1.228226943259     0.686762087591     1.007825032230
         H            2.473313731799     6.740684290880     0.687016226758     1.007825032230
         H            4.600668491381    -5.512376129691     0.687234671404     1.007825032230
         H           -2.473318680537     6.740681719092     0.687317573383     1.007825032230
         H           -0.000010268228    -6.738528176967     0.691433275143     1.007825032230
         H           -5.835301914343     3.369270949781     0.690947746790     1.007825032230
         H            2.473307923831    -6.740685374944     0.687124398205     1.007825032230
         H           -4.600674841208     5.512378026089     0.686864697114     1.007825032230
         H           -5.835279506835    -3.369288964294     0.682329777679     1.007825032230
         H           -2.473300347440    -6.740679078655     0.686675081661     1.007825032230
         H           -7.073857766768     1.228220472326     0.686383157082     1.007825032230
         H           -4.600673786085    -5.512362670301     0.687062363382     1.007825032230
         H           -7.073856934409    -1.228220632492     0.686667231125     1.007825032230

  Charge       = 0
  Multiplicity = 1
  Basis Set: JUN-CC-PVDZ
    Blend: JUN-CC-PVDZ
  Basis Set: (JUN-CC-PVDZ AUX)
    Blend: JUN-CC-PVDZ-JKFIT

    Orbital Energies [Eh]
    ---------------------

    Doubly Occupied:

       1A    -11.260605     2A    -11.260168     3A    -11.260143
       4A    -11.259431     5A    -11.259409     6A    -11.259239
       7A    -11.259017     8A    -11.258951     9A    -11.258930
      10A    -11.258616    11A    -11.258613    12A    -11.258523
      13A    -11.258463    14A    -11.258456    15A    -11.258456
      16A    -11.258424    17A    -11.258415    18A    -11.258398
      19A    -11.258391    20A    -11.258384    21A    -11.258381
      22A    -11.258307    23A    -11.258299    24A    -11.258035
      25A    -11.257327    26A    -11.257281    27A    -11.257247
      28A    -11.257143    29A    -11.257112    30A    -11.257042
      31A    -11.256426    32A    -11.256375    33A    -11.256330
      34A    -11.256256    35A    -11.256221    36A    -11.256189
      37A    -11.252275    38A    -11.252274    39A    -11.252272
      40A    -11.252271    41A    -11.252259    42A    -11.252258
      43A    -11.251384    44A    -11.251383    45A    -11.251378
      46A    -11.251375    47A    -11.251371    48A    -11.251368
      49A    -11.250836    50A    -11.250835    51A    -11.250833
      52A    -11.250832    53A    -11.250820    54A    -11.250819
      55A     -1.244038    56A     -1.219797    57A     -1.219778
      58A     -1.189521    59A     -1.189506    60A     -1.180924
      61A     -1.157537    62A     -1.148955    63A     -1.135476
      64A     -1.135454    65A     -1.113170    66A     -1.113167
      67A     -1.082406    68A     -1.082396    69A     -1.078581
      70A     -1.065962    71A     -1.065953    72A     -1.039373
      73A     -1.024245    74A     -1.021746    75A     -1.021687
      76A     -1.017704    77A     -1.012778    78A     -0.986998
      79A     -0.986942    80A     -0.961859    81A     -0.961806
      82A     -0.894264    83A     -0.894241    84A     -0.887902
      85A     -0.886149    86A     -0.886103    87A     -0.881363
      88A     -0.881317    89A     -0.861874    90A     -0.837390
      91A     -0.818179    92A     -0.816583    93A     -0.812101
      94A     -0.812100    95A     -0.794667    96A     -0.794653
      97A     -0.746591    98A     -0.744828    99A     -0.733385
     100A     -0.733379   101A     -0.732156   102A     -0.732132
     103A     -0.716469   104A     -0.698954   105A     -0.698927
     106A     -0.693567   107A     -0.693527   108A     -0.661207
     109A     -0.653084   110A     -0.651125   111A     -0.650231
     112A     -0.650223   113A     -0.639340   114A     -0.639319
     115A     -0.629684   116A     -0.627490   117A     -0.627478
     118A     -0.606488   119A     -0.605792   120A     -0.601625
     121A     -0.599721   122A     -0.599660   123A     -0.593600
     124A     -0.591192   125A     -0.591162   126A     -0.585259
     127A     -0.576465   128A     -0.576335   129A     -0.567303
     130A     -0.567283   131A     -0.565926   132A     -0.565913
     133A     -0.558693   134A     -0.554822   135A     -0.554818
     136A     -0.538567   137A     -0.538567   138A     -0.538231
     139A     -0.538181   140A     -0.529687   141A     -0.528194
     142A     -0.522854   143A     -0.522825   144A     -0.500478
     145A     -0.495618   146A     -0.493208   147A     -0.487828
     148A     -0.485036   149A     -0.481722   150A     -0.481720
     151A     -0.470354   152A     -0.470300   153A     -0.450979
     154A     -0.450911   155A     -0.439061   156A     -0.439055
     157A     -0.404764   158A     -0.404703   159A     -0.403392
     160A     -0.375418   161A     -0.375408   162A     -0.349126
     163A     -0.337570   164A     -0.336521   165A     -0.336508
     166A     -0.311082   167A     -0.298100   168A     -0.284327
     169A     -0.284280   170A     -0.224900   171A     -0.224843

  @DF-RHF Final Energy: -2055.89380050888667

   => Energetics <=

    Nuclear Repulsion Energy =           6452.5568002797781446
    One-Electron Energy =              -15636.4892177629608341
    Two-Electron Energy =                7128.0386169742951097
    Total Energy =                      -2055.8938005088866703
 Dipole X            :          0.0001322           -0.0000085            0.0001237
 Dipole Y            :         -0.0000992            0.0000167           -0.0000826
 Dipole Z            :       -443.8895989          443.8968342            0.0072353
 Magnitude           :                                                    0.0072369

    SAPT Results
  --------------------------------------------------------------------------------------------------------
    Electrostatics                -10.86540041 [mEh]      -6.81814169 [kcal/mol]     -28.52710483 [kJ/mol]
      Elst10,r                    -10.86540041 [mEh]      -6.81814169 [kcal/mol]     -28.52710483 [kJ/mol]

    Exchange                        0.33012302 [mEh]       0.20715532 [kcal/mol]       0.86673786 [kJ/mol]
      Exch10                        0.33012302 [mEh]       0.20715532 [kcal/mol]       0.86673786 [kJ/mol]
      Exch10(S^2)                   0.33007842 [mEh]       0.20712733 [kcal/mol]       0.86662077 [kJ/mol]

    Induction                      -6.60891634 [mEh]      -4.14715761 [kcal/mol]     -17.35170746 [kJ/mol]
      Ind20,r                      -6.28862184 [mEh]      -3.94616978 [kcal/mol]     -16.51077437 [kJ/mol]
      Exch-Ind20,r                  0.05759893 [mEh]       0.03614387 [kcal/mol]       0.15122597 [kJ/mol]
      delta HF,r (2)               -0.37789342 [mEh]      -0.23713170 [kcal/mol]      -0.99215905 [kJ/mol]

    Dispersion                     -6.17226165 [mEh]      -3.87315266 [kcal/mol]     -16.20527073 [kJ/mol]
      Disp20                       -6.21513289 [mEh]      -3.90005477 [kcal/mol]     -16.31782915 [kJ/mol]
      Exch-Disp20                   0.04287124 [mEh]       0.02690211 [kcal/mol]       0.11255842 [kJ/mol]
      Disp20 (SS)                  -3.10756644 [mEh]      -1.95002738 [kcal/mol]      -8.15891457 [kJ/mol]
      Disp20 (OS)                  -3.10756644 [mEh]      -1.95002738 [kcal/mol]      -8.15891457 [kJ/mol]
      Exch-Disp20 (SS)              0.02809918 [mEh]       0.01763250 [kcal/mol]       0.07377438 [kJ/mol]
      Exch-Disp20 (OS)              0.01477206 [mEh]       0.00926961 [kcal/mol]       0.03878403 [kJ/mol]

  Total HF                        -17.14419373 [mEh]     -10.75814398 [kcal/mol]     -45.01207443 [kJ/mol]
  Total SAPT0                     -23.31645538 [mEh]     -14.63129665 [kcal/mol]     -61.21734516 [kJ/mol]

  Special recipe for scaled SAPT0 (see Manual):
    Electrostatics sSAPT0         -10.86540041 [mEh]      -6.81814169 [kcal/mol]     -28.52710483 [kJ/mol]
    Exchange sSAPT0                 0.33012302 [mEh]       0.20715532 [kcal/mol]       0.86673786 [kJ/mol]
    Induction sSAPT0               -6.60889299 [mEh]      -4.14714296 [kcal/mol]     -17.35164615 [kJ/mol]
    Dispersion sSAPT0              -6.17224427 [mEh]      -3.87314175 [kcal/mol]     -16.20522510 [kJ/mol]
  Total sSAPT0                    -23.31641465 [mEh]     -14.63127109 [kcal/mol]     -61.21723823 [kJ/mol]
  --------------------------------------------------------------------------------------------------------

*** Psi4 exiting successfully. Buy a developer a beer!
