                               Psi4 1.9 release

  ==> Input File <==

--------------------------------------------------------------------------
memory 80 GB # how much memory is available ! Depends on the nodes/cores !

molecule dimer {
# monomer A
+1 1    # Charge and multiplicity
C  0.680067 -0.008042 -5.115929
C -0.680504 -0.006014 -5.115545
N -1.085635 -0.005016 -3.797221
C  0.000108 -0.001740 -3.015820
C -2.477365  0.044390 -3.329242
N  1.085222 -0.005016 -3.797221
H  1.385146 -0.015870 -5.933368
H -1.385302 -0.006204 -5.933214
H -0.000009  0.000007 -1.934731
C  2.478117 -0.021908 -3.332123
H  2.490592  0.005437 -2.241870
H  2.967028 -0.935354 -3.679299
H  3.001428  0.853575 -3.723595
H -2.857359  1.066461 -3.409201
H -3.082679 -0.625694 -3.942306
H -2.518128 -0.282594 -2.289294
--
# monomer B
0 1     # Charge and multiplicity
C   -3.66844126402057      7.80375217008252      0.00190004133558
C   -4.84759871934653      7.13124183134024     -0.00046653359696
C   -4.89495929917518      5.69633040353158     -0.00103944469517
C   -3.65374067877320      4.98073034095895      0.00662099703436
C   -2.40942512149445      7.11398103667468      0.00209438359570
C   -2.42547734410473      5.68112195090346     -0.00491050527438
C   -1.19474401643570      7.78614419430947      0.00356656413763
C   0.03795902893699      7.09942164575698      0.00139585983271
C   0.03033258741920      5.66948955970466     -0.00408752508301
C   -1.20098450790502      4.96927034791531      0.00488220885047
C   1.27795782581485      7.77285944319479      0.00277170839332
C   2.48535808472416      7.08769688523756      0.00049722048857
C   2.48612868491717      5.65477081024076     -0.00644052849921
C   1.25408291964399      4.95607811366431      0.00518741308898
C   3.75171459140595      7.76391215098033      0.00062407186893
C   4.92356605618520      7.07878077698995     -0.00143240883900
C   4.95560727132542      5.64344746336949     -0.00159282164606
C   3.70680153420475      4.94121020833308      0.00349873852374
H   -3.65852113775815      8.89082741913536      0.00358502958574
H   -1.18921332975660      8.87412108735996      0.00753844057883
H   1.28429423888630      8.86083343548850      0.00693053253426
H   3.75354208679975      8.85103527897216      0.00214659618464
H   5.86995870320703      7.61379483465560     -0.00235777588134
H   -5.78823170750226      7.67630221293400     -0.00202638095293
C   -6.09197395869619      4.99326001364347     -0.00291168518608
C   -6.12866148031747      3.58258016879823     -0.00171050815740
C   -3.66457974004527      3.56418217974434     -0.00463560277484
C   -4.89429820469869      2.86108077590057      0.00453338221034
C   -2.43733499489796      2.84761165708481      0.00719617576166
C   -1.20922785759670      3.54788693497833     -0.00648285103018
C   1.24714157216223      3.53468075142962     -0.00729145743546
C   0.01517603956900      2.83311183930540      0.00439272578912
C   2.46764517244071      2.82128997725533      0.00449278391269
C   3.70254947457969      3.52466015442405     -0.00899517692985
C   6.14498038638375      4.92757236613191     -0.00282626685777
C   6.16658835886151      3.51658447594213     -0.00065971342101
C   4.92460995845939      2.80840792535402      0.00587903281610
H   7.08990550964105      5.46688776622306     -0.00658814770723
H   -7.03104175110130      5.54268795285765     -0.00714490013730
C   -7.33969804112295      2.85841153457957     -0.00333767559888
C   -7.36488195805880      1.47032337158330     -0.00157213747140
C   -4.90350460894690      1.44442681216000     -0.00628840166334
C   -6.13225715261081      0.73993935705394      0.00600164231964
C   -3.67687480051673      0.72669714267312      0.00433931473643
C   -2.44565658606518      1.42964113326212     -0.00597039546461
C   -1.22360068130162      0.71532450163492      0.00545886906656
C   0.00763786931376      1.41738314923765      0.00392452278437
C   1.23121980774686      0.70211669058719     -0.01490206287210
C   2.46082110053113      1.40329203612573      0.00460244601878
C   3.68443025419614      0.68719842821222      0.00377365974158
C   4.91870890153864      1.39173456118907     -0.00862816189375
C   7.36980207796101      2.77948220318441     -0.00242013321349
C   7.38016266612146      1.39121750785509     -0.00087345036788
C   6.13979953912259      0.67411862320065      0.00545489144369
H   -8.27919079934664      3.40711804112415     -0.00763522772059
H   8.31511347147953      3.31811809662368     -0.00663070901292
C   -8.59175593758115      0.72483255304480     -0.00123170985383
C   -8.59902460370342     -0.63263980622873      0.00089141472904
C   -6.13981313911873     -0.67413663715361     -0.00609792660607
C   -7.38018411213749     -1.39126618958160      0.00131813493501
C   -4.91868448025621     -1.39175501803000      0.00624257154343
C   -3.68443829568458     -0.68723731573599     -0.00478966852105
C   -2.46081704024768     -1.40334517882457      0.00575341766833
C   -1.23116201232071     -0.70217386488055     -0.00636696112346
C   -0.00756962538737     -1.41741884941102      0.00108956317991
C   1.22364771588843     -0.71527537726392      0.01109518512883
C   2.44567064933149     -1.42964328900682     -0.00065482763106
C   3.67686670284649     -0.72670743155550     -0.00479541202602
C   6.13224884641929     -0.73997883984993     -0.00632338623858
C   4.90351914550401     -1.44445752054090      0.00751768830159
C   8.59901484869081      0.63260386666793     -0.00101133422380
C   8.59174548810050     -0.72485086719319      0.00072504603735
C   7.36486276438985     -1.47033266560598      0.00049486934466
H   -9.52830597181814      1.27684744919284     -0.00270163681798
H   9.54141097460619      1.17457248844457     -0.00206336648518
C   -7.36983790976868     -2.77954514593389      0.00312634335708
C   -4.92459910905015     -2.80843725734101     -0.00460528907921
C   -6.16662249566744     -3.51665219282533      0.00169655107992
C   -3.70251035970491     -3.52468154912026      0.00571878010666
C   -2.46764698511392     -2.82132596280400     -0.00632585824990
C   -0.01513347410770     -2.83314164539971     -0.00604426974092
C   -1.24712184122656     -3.53473217556300      0.00551968366725
C   1.20924506964357     -3.54791467864352      0.00805871345849
C   2.43733602215464     -2.84764173817541     -0.00608104485234
C   4.89430234377080     -2.86112296828604     -0.00526030478103
C   3.66461525504104     -3.56421984553201      0.00761911515957
C   6.12863901474565     -3.58258405771778      0.00096495711699
C   7.33967266469532     -2.85841330737039      0.00248018319869
H   -9.54144911125902     -1.17456346666430      0.00226083090216
H   9.52826186807155     -1.27691907390448      0.00197485379837
H   -8.31516504384864     -3.31814985321231      0.00729857188773
H   8.27915514249207     -3.40714078989363      0.00681973918158
C   -6.14499418870218     -4.92764727278338      0.00302254913999
C   -3.70678334799751     -4.94126171411716     -0.00679841894792
C   -4.95559005800169     -5.64349397349412      0.00116871569699
C   -2.48612132622665     -5.65478557440947      0.00614125209662
C   -1.25405833548005     -4.95612205000132     -0.00503435388927
C   1.20101257386816     -4.96928038819302     -0.00385322963129
C   -0.03033667441341     -5.66952030313900      0.00398997003238
C   3.65375010132847     -4.98074377541453     -0.00309522988330
C   2.42549269587528     -5.68117463552727      0.00628170066869
C   6.09196561781097     -4.99325796338655      0.00325918379042
C   4.89497644461045     -5.69634842095790      0.00202298796027
H   -7.08989238804069     -5.46699984223871      0.00742531082125
H   7.03105520920009     -5.54265853633254      0.00683896355417
C   -4.92354532219813     -7.07882109967734      0.00061394679214
C   -2.48534208823777     -7.08772807792913     -0.00189594564379
C   -3.75168589177895     -7.76394715763627     -0.00170126671874
C   -0.03794895698805     -7.09946487446944     -0.00168022049625
C   -1.27795610040136     -7.77290438466689     -0.00366491325785
C   2.40944432072629     -7.11402201200282     -0.00081701968533
C   1.19474993715296     -7.78618536556242     -0.00296931056689
C   4.84762105249800     -7.13126211057943      0.00168979497423
C   3.66847160587561     -7.80378799294376     -0.00065863938960
H   -5.86994035041618     -7.61383059804164      0.00215798365757
H   5.78824962538815     -7.67633218931421      0.00281691445618
H   -3.75352693944918     -8.85107156923607     -0.00353718114765
H   -1.28430440589466     -8.86087539249706     -0.00809229711623
H   1.18922157469537     -8.87416062058945     -0.00706194725726
H   3.65854661482387     -8.89086063405326     -0.00231318081200

    units angstrom      # Angstroms are the default
    no_reorient         # Geometry fixed, default
    symmetry c1         # C1 symmetry, default
}

set {
    scf_type DF         # Density fitting, faster than exact integrals
    freeze_core True    # Freeze core electrons
    basis jun-cc-pVDZ   # Jun-cc-pVDZ basis set, recommended for sSAPT0 in https://doi.org/10.1063/1.4867135
}

energy('ssapt0')        # Compute sSAPT0 energy, includes also SAPT0
--------------------------------------------------------------------------

  //              Dimer HF             //
    Molecular point group: c1
  Charge       = 1
  Multiplicity = 1
  Basis Set: JUN-CC-PVDZ
    Blend: JUN-CC-PVDZ
  Basis Set: (JUN-CC-PVDZ AUX)
    Blend: JUN-CC-PVDZ-JKFIT
  @DF-RHF Final Energy: -3953.64837151449774
    Total Energy =                      -3953.6483715144968301
 Dipole X            :         -0.0011851            0.0004804           -0.0007047
 Dipole Y            :         -0.0508793            0.0561130            0.0052337
 Dipole Z            :         17.4114938          -21.7993151           -4.3878213
 Magnitude           :                                                    4.3878245
  //            Monomer A HF           //
    Molecular point group: c1
  Multiplicity = 1
  Basis Set: JUN-CC-PVDZ
    Blend: JUN-CC-PVDZ
  Basis Set: (JUN-CC-PVDZ AUX)
    Blend: JUN-CC-PVDZ-JKFIT
  @DF-RHF Final Energy:  -303.29865955084341
    Total Energy =                       -303.2986595508434107
  //            Monomer B HF           //
    Molecular point group: c1

    Geometry (in Angstrom), charge = 0, multiplicity = 1:

       Center              X                  Y                   Z               Mass
    ------------   -----------------  -----------------  -----------------  -----------------
      Gh(C)           0.680062820275    -0.008027535675    -4.818589903006    12.000000000000
      Gh(C)          -0.680508179725    -0.005999535675    -4.818205903006    12.000000000000
      Gh(N)          -1.085639179725    -0.005001535675    -3.499881903006    14.003074004430
      Gh(C)           0.000103820275    -0.001725535675    -2.718480903006    12.000000000000
      Gh(C)          -2.477369179725     0.044404464325    -3.031902903006    12.000000000000
      Gh(N)           1.085217820275    -0.005001535675    -3.499881903006    14.003074004430
      Gh(H)           1.385141820275    -0.015855535675    -5.636028903006     1.007825032230
      Gh(H)          -1.385306179725    -0.006189535675    -5.635874903006     1.007825032230
      Gh(H)          -0.000013179725     0.000021464325    -1.637391903006     1.007825032230
      Gh(C)           2.478112820275    -0.021893535675    -3.034783903006    12.000000000000
      Gh(H)           2.490587820275     0.005451464325    -1.944530903006     1.007825032230
      Gh(H)           2.967023820275    -0.935339535675    -3.381959903006     1.007825032230
      Gh(H)           3.001423820275     0.853589464325    -3.426255903006     1.007825032230
      Gh(H)          -2.857363179725     1.066475464325    -3.111861903006     1.007825032230
      Gh(H)          -3.082683179725    -0.625679535675    -3.644966903006     1.007825032230
      Gh(H)          -2.518132179725    -0.282579535675    -1.991954903006     1.007825032230
         C           -3.668445443746     7.803766634408     0.299239138329    12.000000000000
         C           -4.847602899072     7.131256295665     0.296872563397    12.000000000000
         C           -4.894963478901     5.696344867857     0.296299652299    12.000000000000
         C           -3.653744858499     4.980744805284     0.303960094028    12.000000000000
         C           -2.409429301220     7.113995501000     0.299433480590    12.000000000000
         C           -2.425481523830     5.681136415228     0.292428591720    12.000000000000
         C           -1.194748196161     7.786158658634     0.300905661132    12.000000000000
         C            0.037954849212     7.099436110082     0.298734956827    12.000000000000
         C            0.030328407694     5.669504024030     0.293251571911    12.000000000000
         C           -1.200988687630     4.969284812240     0.302221305844    12.000000000000
         C            1.277953646089     7.772873907520     0.300110805387    12.000000000000
         C            2.485353904999     7.087711349563     0.297836317482    12.000000000000
         C            2.486124505192     5.654785274566     0.290898568495    12.000000000000
         C            1.254078739919     4.956092577989     0.302526510083    12.000000000000
         C            3.751710411681     7.763926615305     0.297963168863    12.000000000000
         C            4.923561876460     7.078795241315     0.295906688155    12.000000000000
         C            4.955603091600     5.643461927694     0.295746275348    12.000000000000
         C            3.706797354479     4.941224672658     0.300837835518    12.000000000000
         H           -3.658525317484     8.890841883460     0.300924126580     1.007825032230
         H           -1.189217509482     8.874135551685     0.304877537573     1.007825032230
         H            1.284290059161     8.860847899813     0.304269629528     1.007825032230
         H            3.753537907074     8.851049743297     0.299485693179     1.007825032230
         H            5.869954523482     7.613809298981     0.294981321113     1.007825032230
         H           -5.788235887228     7.676316677259     0.295312716041     1.007825032230
         C           -6.091978138422     4.993274477968     0.294427411808    12.000000000000
         C           -6.128665660043     3.582594633123     0.295628588836    12.000000000000
         C           -3.664583919771     3.564196644069     0.292703494219    12.000000000000
         C           -4.894302384424     2.861095240226     0.301872479204    12.000000000000
         C           -2.437339174623     2.847626121410     0.304535272756    12.000000000000
         C           -1.209232037322     3.547901399303     0.290856245964    12.000000000000
         C            1.247137392437     3.534695215755     0.290047639558    12.000000000000
         C            0.015171859844     2.833126303630     0.301731822783    12.000000000000
         C            2.467640992715     2.821304441580     0.301831880907    12.000000000000
         C            3.702545294854     3.524674618749     0.288343920064    12.000000000000
         C            6.144976206658     4.927586830457     0.294512830136    12.000000000000
         C            6.166584179136     3.516598940267     0.296679383573    12.000000000000
         C            4.924605778734     2.808422389679     0.303218129810    12.000000000000
         H            7.089901329916     5.466902230548     0.290750949287     1.007825032230
         H           -7.031045930827     5.542702417183     0.290194196857     1.007825032230
         C           -7.339702220848     2.858425998905     0.294001421395    12.000000000000
         C           -7.364886137784     1.470337835908     0.295766959522    12.000000000000
         C           -4.903508788672     1.444441276485     0.291050695331    12.000000000000
         C           -6.132261332336     0.739953821379     0.303340739314    12.000000000000
         C           -3.676878980242     0.726711606998     0.301678411730    12.000000000000
         C           -2.445660765791     1.429655597587     0.291368701529    12.000000000000
         C           -1.223604861027     0.715338965960     0.302797966060    12.000000000000
         C            0.007633689588     1.417397613563     0.301263619778    12.000000000000
         C            1.231215628021     0.702131154912     0.282437034122    12.000000000000
         C            2.460816920806     1.403306500451     0.301941543013    12.000000000000
         C            3.684426074471     0.687212892537     0.301112756735    12.000000000000
         C            4.918704721813     1.391749025514     0.288710935100    12.000000000000
         C            7.369797898236     2.779496667509     0.294918963780    12.000000000000
         C            7.380158486396     1.391231972180     0.296465646626    12.000000000000
         C            6.139795359397     0.674133087526     0.302793988438    12.000000000000
         H           -8.279194979072     3.407132505449     0.289703869273     1.007825032230
         H            8.315109291754     3.318132560949     0.290708387981     1.007825032230
         C           -8.591760117307     0.724847017370     0.296107387140    12.000000000000
         C           -8.599028783429    -0.632625341904     0.298230511723    12.000000000000
         C           -6.139817318844    -0.674122172829     0.291241170388    12.000000000000
         C           -7.380188291863    -1.391251725257     0.298657231929    12.000000000000
         C           -4.918688659982    -1.391740553705     0.303581668537    12.000000000000
         C           -3.684442475410    -0.687222851411     0.292549428473    12.000000000000
         C           -2.460821219973    -1.403330714500     0.303092514662    12.000000000000
         C           -1.231166192046    -0.702159400556     0.290972135870    12.000000000000
         C           -0.007573805113    -1.417404385086     0.298428660174    12.000000000000
         C            1.223643536163    -0.715260912939     0.308434282123    12.000000000000
         C            2.445666469606    -1.429628824682     0.296684269363    12.000000000000
         C            3.676862523121    -0.726692967231     0.292543684968    12.000000000000
         C            6.132244666694    -0.739964375525     0.291015710755    12.000000000000
         C            4.903514965779    -1.444443056216     0.304856785295    12.000000000000
         C            8.599010668965     0.632618330993     0.296327762770    12.000000000000
         C            8.591741308375    -0.724836402868     0.298064143031    12.000000000000
         C            7.364858584664    -1.470318201281     0.297833966339    12.000000000000
         H           -9.528310151544     1.276861913518     0.294637460176     1.007825032230
         H            9.541406794881     1.174586952770     0.295275730509     1.007825032230
         C           -7.369842089494    -2.779530681609     0.300465440351    12.000000000000
         C           -4.924603288776    -2.808422793016     0.292733807915    12.000000000000
         C           -6.166626675393    -3.516637728500     0.299035648074    12.000000000000
         C           -3.702514539430    -3.524667084795     0.303057877101    12.000000000000
         C           -2.467651164839    -2.821311498479     0.291013238744    12.000000000000
         C           -0.015137653833    -2.833127181075     0.291294827253    12.000000000000
         C           -1.247126020952    -3.534717711238     0.302858780661    12.000000000000
         C            1.209240889918    -3.547900214319     0.305397810452    12.000000000000
         C            2.437331842429    -2.847627273850     0.291258052142    12.000000000000
         C            4.894298164045    -2.861108503961     0.292078792213    12.000000000000
         C            3.664611075316    -3.564205381207     0.304958212153    12.000000000000
         C            6.128634835020    -3.582569593393     0.298304054111    12.000000000000
         C            7.339668484970    -2.858398843045     0.299819280193    12.000000000000
         H           -9.541453290984    -1.174549002339     0.299599927896     1.007825032230
         H            9.528257688346    -1.276904609579     0.299313950792     1.007825032230
         H           -8.315169223574    -3.318135388887     0.304637668882     1.007825032230
         H            8.279150962767    -3.407126325569     0.304158836175     1.007825032230
         C           -6.144998368428    -4.927632808458     0.300361646134    12.000000000000
         C           -3.706787527723    -4.941247249792     0.290540678046    12.000000000000
         C           -4.955594237727    -5.643479509169     0.298507812691    12.000000000000
         C           -2.486125505952    -5.654771110084     0.303480349091    12.000000000000
         C           -1.254062515205    -4.956107585676     0.292304743105    12.000000000000
         C            1.201008394143    -4.969265923868     0.293485867363    12.000000000000
         C           -0.030340854139    -5.669505838814     0.301329067026    12.000000000000
         C            3.653745921603    -4.980729311090     0.294243867111    12.000000000000
         C            2.425488516150    -5.681160171202     0.303620797663    12.000000000000
         C            6.091961438086    -4.993243499062     0.300598280784    12.000000000000
         C            4.894972264885    -5.696333956633     0.299362084954    12.000000000000
         H           -7.089896567766    -5.466985377914     0.304764407815     1.007825032230
         H            7.031051029475    -5.542644072008     0.304178060548     1.007825032230
         C           -4.923549501924    -7.078806635352     0.297953043786    12.000000000000
         C           -2.485346267963    -7.087713613604     0.295443151350    12.000000000000
         C           -3.751690071504    -7.763932693311     0.295637830275    12.000000000000
         C           -0.037953136713    -7.099450410144     0.295658876498    12.000000000000
         C           -1.277960280127    -7.772889920342     0.293674183736    12.000000000000
         C            2.409440141001    -7.114007547678     0.296522077309    12.000000000000
         C            1.194745757428    -7.786170901237     0.294369786427    12.000000000000
         C            4.847616872773    -7.131247646254     0.299028891968    12.000000000000
         C            3.668467426150    -7.803773528619     0.296680457604    12.000000000000
         H           -5.869944530142    -7.613816133717     0.299497080651     1.007825032230
         H            5.788245445663    -7.676317724989     0.300156011450     1.007825032230
         H           -3.753531119175    -8.851057104911     0.293801915846     1.007825032230
         H           -1.284308585620    -8.860860928172     0.289246799878     1.007825032230
         H            1.189217394970    -8.874146156264     0.290277149737     1.007825032230
         H            3.658542435098    -8.890846169728     0.295025916182     1.007825032230

  Charge       = 0
  Multiplicity = 1
  Basis Set: JUN-CC-PVDZ
    Blend: JUN-CC-PVDZ
  Basis Set: (JUN-CC-PVDZ AUX)
    Blend: JUN-CC-PVDZ-JKFIT

    Orbital Energies [Eh]
    ---------------------

    Doubly Occupied:

       1A    -11.264039     2A    -11.263723     3A    -11.263644
       4A    -11.263300     5A    -11.263289     6A    -11.263218
       7A    -11.263132     8A    -11.263089     9A    -11.263045
      10A    -11.262855    11A    -11.262736    12A    -11.262714
      13A    -11.262238    14A    -11.262229    15A    -11.262219
      16A    -11.262158    17A    -11.262078    18A    -11.262062
      19A    -11.262023    20A    -11.261978    21A    -11.261969
      22A    -11.261873    23A    -11.261849    24A    -11.261703
      25A    -11.261701    26A    -11.261672    27A    -11.261664
      28A    -11.261627    29A    -11.261620    30A    -11.261529
      31A    -11.261511    32A    -11.261505    33A    -11.261502
      34A    -11.261485    35A    -11.261466    36A    -11.261454
      37A    -11.261282    38A    -11.261273    39A    -11.261267
      40A    -11.261264    41A    -11.261247    42A    -11.261238
      43A    -11.261232    44A    -11.261219    45A    -11.261211
      46A    -11.261191    47A    -11.261182    48A    -11.261176
      49A    -11.261029    50A    -11.261019    51A    -11.260968
      52A    -11.260933    53A    -11.260885    54A    -11.260847
      55A    -11.259858    56A    -11.259842    57A    -11.259838
      58A    -11.259812    59A    -11.259805    60A    -11.259790
      61A    -11.259227    62A    -11.259204    63A    -11.259192
      64A    -11.259149    65A    -11.259136    66A    -11.259111
      67A    -11.258859    68A    -11.258839    69A    -11.258837
      70A    -11.258813    71A    -11.258804    72A    -11.258793
      73A    -11.254490    74A    -11.254484    75A    -11.254481
      76A    -11.254476    77A    -11.254461    78A    -11.254452
      79A    -11.253611    80A    -11.253602    81A    -11.253591
      82A    -11.253581    83A    -11.253580    84A    -11.253576
      85A    -11.253527    86A    -11.253518    87A    -11.253504
      88A    -11.253494    89A    -11.253494    90A    -11.253487
      91A    -11.253018    92A    -11.253012    93A    -11.253008
      94A    -11.253003    95A    -11.252990    96A    -11.252980
      97A     -1.253817    98A     -1.238904    99A     -1.238859
     100A     -1.220372   101A     -1.220351   102A     -1.215329
     103A     -1.200952   104A     -1.195514   105A     -1.188039
     106A     -1.188010   107A     -1.173679   108A     -1.173679
     109A     -1.155516   110A     -1.155510   111A     -1.152606
     112A     -1.144642   113A     -1.144641   114A     -1.128460
     115A     -1.114602   116A     -1.113086   117A     -1.112383
     118A     -1.112344   119A     -1.111542   120A     -1.088328
     121A     -1.088304   122A     -1.076885   123A     -1.076884
     124A     -1.067515   125A     -1.067470   126A     -1.064861
     127A     -1.046706   128A     -1.046693   129A     -1.040377
     130A     -1.038663   131A     -1.038653   132A     -1.025126
     133A     -1.021267   134A     -1.021195   135A     -1.007092
     136A     -1.006700   137A     -1.003704   138A     -1.000384
     139A     -1.000319   140A     -0.991004   141A     -0.970889
     142A     -0.970832   143A     -0.955802   144A     -0.955739
     145A     -0.905479   146A     -0.905453   147A     -0.905434
     148A     -0.905424   149A     -0.904198   150A     -0.892229
     151A     -0.892177   152A     -0.890242   153A     -0.890191
     154A     -0.889339   155A     -0.872138   156A     -0.868994
     157A     -0.851447   158A     -0.847743   159A     -0.847735
     160A     -0.845478   161A     -0.842900   162A     -0.834457
     163A     -0.834453   164A     -0.828045   165A     -0.828033
     166A     -0.784454   167A     -0.784445   168A     -0.783551
     169A     -0.783540   170A     -0.782176   171A     -0.782160
     172A     -0.781918   173A     -0.766888   174A     -0.760669
     175A     -0.750459   176A     -0.733404   177A     -0.726986
     178A     -0.726933   179A     -0.724972   180A     -0.724449
     181A     -0.724407   182A     -0.718366   183A     -0.713655
     184A     -0.713647   185A     -0.699486   186A     -0.699456
     187A     -0.686004   188A     -0.685869   189A     -0.685851
     190A     -0.682075   191A     -0.682066   192A     -0.678675
     193A     -0.653531   194A     -0.650774   195A     -0.650737
     196A     -0.649688   197A     -0.649680   198A     -0.649475
     199A     -0.640821   200A     -0.640765   201A     -0.639992
     202A     -0.639072   203A     -0.635913   204A     -0.635877
     205A     -0.629033   206A     -0.617703   207A     -0.615220
     208A     -0.615189   209A     -0.608703   210A     -0.608696
     211A     -0.599160   212A     -0.599064   213A     -0.598642
     214A     -0.598481   215A     -0.598457   216A     -0.597917
     217A     -0.594977   218A     -0.594962   219A     -0.594621
     220A     -0.594096   221A     -0.591846   222A     -0.591841
     223A     -0.587257   224A     -0.577729   225A     -0.577704
     226A     -0.575674   227A     -0.575632   228A     -0.573281
     229A     -0.569537   230A     -0.568027   231A     -0.568000
     232A     -0.566644   233A     -0.566638   234A     -0.560838
     235A     -0.558618   236A     -0.558560   237A     -0.558349
     238A     -0.554261   239A     -0.550535   240A     -0.547400
     241A     -0.544214   242A     -0.534976   243A     -0.534931
     244A     -0.533441   245A     -0.533425   246A     -0.527988
     247A     -0.527965   248A     -0.527657   249A     -0.517044
     250A     -0.517024   251A     -0.515297   252A     -0.515291
     253A     -0.509547   254A     -0.509536   255A     -0.497924
     256A     -0.496357   257A     -0.496301   258A     -0.493755
     259A     -0.493700   260A     -0.489384   261A     -0.481355
     262A     -0.477354   263A     -0.477352   264A     -0.473892
     265A     -0.469314   266A     -0.466410   267A     -0.466404
     268A     -0.458755   269A     -0.446537   270A     -0.446489
     271A     -0.440964   272A     -0.440720   273A     -0.440666
     274A     -0.434623   275A     -0.433845   276A     -0.407302
     277A     -0.407284   278A     -0.386330   279A     -0.386270
     280A     -0.385671   281A     -0.385662   282A     -0.383671
     283A     -0.354247   284A     -0.354223   285A     -0.350585
     286A     -0.338005   287A     -0.335486   288A     -0.335469
     289A     -0.332653   290A     -0.332634   291A     -0.306968
     292A     -0.301854   293A     -0.301785   294A     -0.300784
     295A     -0.286088   296A     -0.256422   297A     -0.253388
     298A     -0.253350   299A     -0.204174   300A     -0.204098

  @DF-RHF Final Energy: -3650.34182600497979

   => Energetics <=

    Nuclear Repulsion Energy =          15611.4211649754306563
    One-Electron Energy =              -36072.1987376339457114
    Two-Electron Energy =               16810.4357466535366257
    Total Energy =                      -3650.3418260049802484
 Dipole X            :         -0.0008837            0.0002112           -0.0006726
 Dipole Y            :          0.0021413           -0.0013774            0.0007639
 Dipole Z            :       -337.1332914          337.1370677            0.0037763
 Magnitude           :                                                    0.0039111

    SAPT Results
  --------------------------------------------------------------------------------------------------------
    Electrostatics                -22.37962668 [mEh]     -14.04342776 [kcal/mol]     -58.75770176 [kJ/mol]
      Elst10,r                    -22.37962668 [mEh]     -14.04342776 [kcal/mol]     -58.75770176 [kJ/mol]

    Exchange                       41.49973381 [mEh]      26.04147613 [kcal/mol]     108.95753611 [kJ/mol]
      Exch10                       41.49973381 [mEh]      26.04147613 [kcal/mol]     108.95753611 [kJ/mol]
      Exch10(S^2)                  41.02189666 [mEh]      25.74162878 [kcal/mol]     107.70297483 [kJ/mol]

    Induction                     -27.00606580 [mEh]     -16.94656214 [kcal/mol]     -70.90441600 [kJ/mol]
      Ind20,r                     -31.50194023 [mEh]     -19.76776594 [kcal/mol]     -82.70833269 [kJ/mol]
      Exch-Ind20,r                 10.89117547 [mEh]       6.83431579 [kcal/mol]      28.59477725 [kJ/mol]
      delta HF,r (2)               -6.39530104 [mEh]      -4.01311199 [kcal/mol]     -16.79086056 [kJ/mol]

    Dispersion                    -36.65606981 [mEh]     -23.00203108 [kcal/mol]     -96.24049802 [kJ/mol]
      Disp20                      -40.04151423 [mEh]     -25.12642952 [kcal/mol]    -105.12898112 [kJ/mol]
      Exch-Disp20                   3.38544442 [mEh]       2.12439844 [kcal/mol]       8.88848309 [kJ/mol]
      Disp20 (SS)                 -20.02075711 [mEh]     -12.56321476 [kcal/mol]     -52.56449056 [kJ/mol]
      Disp20 (OS)                 -20.02075711 [mEh]     -12.56321476 [kcal/mol]     -52.56449056 [kJ/mol]
      Exch-Disp20 (SS)              2.01200834 [mEh]       1.26255429 [kcal/mol]       5.28252716 [kJ/mol]
      Exch-Disp20 (OS)              1.37343608 [mEh]       0.86184415 [kcal/mol]       3.60595593 [kJ/mol]

  Total HF                         -7.88595867 [mEh]      -4.94851378 [kcal/mol]     -20.70458165 [kJ/mol]
  Total SAPT0                     -44.54202848 [mEh]     -27.95054485 [kcal/mol]    -116.94507967 [kJ/mol]

  Special recipe for scaled SAPT0 (see Manual):
    Electrostatics sSAPT0         -22.37962668 [mEh]     -14.04342776 [kcal/mol]     -58.75770176 [kJ/mol]
    Exchange sSAPT0                41.49973381 [mEh]      26.04147613 [kcal/mol]     108.95753611 [kJ/mol]
    Induction sSAPT0              -26.62102285 [mEh]     -16.70494404 [kcal/mol]     -69.89348586 [kJ/mol]
    Dispersion sSAPT0             -36.53638195 [mEh]     -22.92692581 [kcal/mol]     -95.92625758 [kJ/mol]
  Total sSAPT0                    -44.03729767 [mEh]     -27.63382148 [kcal/mol]    -115.61990909 [kJ/mol]
  --------------------------------------------------------------------------------------------------------

*** Psi4 exiting successfully. Buy a developer a beer!
