                               Psi4 1.9 release

  ==> Input File <==

--------------------------------------------------------------------------
memory 32 GB # how much memory is available ! Depends on the nodes/cores !

molecule dimer {
# monomer A
-1 1    # Charge and multiplicity
B -1.977592e-04  2.742729e-04 3.800034
F  1.123153e-16  1.430594e-17 5.212819
F  1.147860e+00  6.757812e-01 3.328893
F  1.191806e-02 -1.332011e+00 3.329095
F -1.159666e+00  6.560735e-01 3.329174
--
# monomer B
0 1     # Charge and multiplicity
C   1.22531237526482      0.70753866091955      0.00613762728373
C   1.22532433589282     -0.70753852257020     -0.00619318228664
C   -0.00000567409046      1.41496628609039     -0.00672680580738
C   2.45644923379077      1.41832825917820      0.00902448468363
C   0.00001130712078     -1.41497612663474      0.00347275151708
C   -1.22530046906674      0.70754574598412      0.00838914760619
C   2.45643823516184     -1.41832293188077     -0.00843833914343
C   -0.00000085313587      2.83680140328112     -0.00913035594137
C   3.68182717731192      0.70931832800114     -0.00808954934571
C   2.45512052870677      2.83422403348893     -0.00819210630633
C   3.68182158506039     -0.70933346742900      0.00798293467272
C   -1.22531311884624     -0.70752714354401     -0.00512042085974
C   1.22670006104402      3.54346985599427      0.00816696660346
C   0.00000526469929     -2.83678176723568      0.00832091913869
C   -2.45643555300670      1.41831729028492      0.00842454345199
C   2.45512389762097     -2.83422965658853      0.00783102630520
C   -1.22671388474763      3.54346943575023      0.00827029982280
C   4.91451777504333      1.42717324448953     -0.00160886631602
C   3.69315067131765      3.54279566454522     -0.00155906667985
C   -2.45643712022637     -1.41831290883911     -0.00846337726810
C   1.22670532178455     -3.54347386990643     -0.00780316414624
C   -2.45512491866593      2.83421703463423     -0.00818572995999
C   4.91452486062398     -1.42718653794377      0.00136387641845
C   1.22142509354026      4.97013443726031      0.00150231067809
C   4.89300870916237      2.82518837202648     -0.00039219795739
C   -1.22669652864725     -3.54347062507680     -0.00753595973677
C   -3.68181849668397      0.70932533873199     -0.00807686886569
C   3.69314758099218     -3.54280096939050      0.00148176697923
C   -1.22143177215231      4.97012866986289      0.00168580605083
C   6.13477145276790      0.68054831910577     -0.00083909176631
C   3.65678936045204      4.97295361556775     -0.00065042889723
C   -2.45512642789169     -2.83421472106065      0.00758666850712
C   -3.68181869921921     -0.70932533146830      0.00810055625144
C   4.89301309775526     -2.82519973363176      0.00021895393805
C   -0.00000059327114      5.65044773803267      0.00045449734393
C   6.13477559217374     -0.68055448207492      0.00042622874941
C   2.47813196269732      5.65357712333155      0.00063835075260
C   1.22142288457925     -4.97012668293268     -0.00129718634452
C   -3.69316190412301      3.54279732619245     -0.00139355922051
C   -1.22142804110313     -4.97011793159564     -0.00140994817719
C   -4.91452132810043      1.42717581899491     -0.00153192130862
C   3.65678749952045     -4.97295485423912      0.00080007163680
C   -2.47813805026426      5.65357479452875      0.00092287576113
C   -3.69314125872231     -3.54278984697859      0.00136564082345
C   -4.91451200321153     -1.42718062802730      0.00139857359209
C   -0.00000552908399     -5.65043791501335      0.00005899322272
C   -4.89302000425900      2.82518897091939     -0.00040227981744
C   2.47812647313991     -5.65357317188818     -0.00029052915548
C   -3.65679823041642      4.97295655404175     -0.00047374852278
C   -4.89299899901461     -2.82519139505969      0.00006491824035
C   -2.47812801824129     -5.65356579800621     -0.00056571680280
C   -6.13477002348955      0.68054913825639     -0.00086464346868
C   -3.65678835334731     -4.97294365097028      0.00058578382008
C   -6.13476456307132     -0.68055354348201      0.00040575295444
H   5.83528897565761      3.36927626695423      0.00396712770529
H   7.07385965258860      1.22821762089947     -0.00037744837300
H   4.60066374401555      5.51238117445323     -0.00014522814529
H   5.83528386714679     -3.36930568472863     -0.00423551337640
H   -0.00001167146422      6.73853104613662     -0.00389474766392
H   7.07386165167227     -1.22822657074368     -0.00008250934481
H   2.47331421164041      6.74068466339473      0.00017162982210
H   4.60066897122302     -5.51237575717576      0.00039007446835
H   -2.47331820069565      6.74068209160650      0.00047297644710
H   -0.00000978838621     -6.73852780445195      0.00458867820736
H   -5.83530143450167      3.36927132229595      0.00410314985360
H   2.47330840367253     -6.74068500242887      0.00027980126949
H   -4.60067436136587      5.51237839860371      0.00002010017831
H   -5.83527902699321     -3.36928859177951     -0.00451481925734
H   -2.47329986759855     -6.74067870613986     -0.00016951527498
H   -7.07385728692578      1.22822084484047     -0.00046143985387
H   -4.60067330624313     -5.51236229778631      0.00021776644566
H   -7.07385645456741     -1.22822025997701     -0.00017736581114

    units angstrom      # Angstroms are the default
    no_reorient         # Geometry fixed, default
    symmetry c1         # C1 symmetry, default
}

set {
    scf_type DF         # Density fitting, faster than exact integrals
    freeze_core True    # Freeze core electrons
    basis jun-cc-pVDZ   # Jun-cc-pVDZ basis set, recommended for sSAPT0 in https://doi.org/10.1063/1.4867135
}

energy('ssapt0')        # Compute sSAPT0 energy, includes also SAPT0
--------------------------------------------------------------------------

  //              Dimer HF             //
    Molecular point group: c1
  Charge       = -1
  Multiplicity = 1
  Basis Set: JUN-CC-PVDZ
    Blend: JUN-CC-PVDZ
  Basis Set: (JUN-CC-PVDZ AUX)
    Blend: JUN-CC-PVDZ-JKFIT
  @DF-RHF Final Energy: -2478.66395895428650
    Total Energy =                      -2478.6639589542864996
 Dipole X            :         -0.0005609            0.0000481           -0.0005128
 Dipole Y            :          0.0010060           -0.0001453            0.0008607
 Dipole Z            :         18.3102944          -23.2951119           -4.9848174
 Magnitude           :                                                    4.9848175
  //            Monomer A HF           //
    Molecular point group: c1
  Multiplicity = 1
  Basis Set: JUN-CC-PVDZ
    Blend: JUN-CC-PVDZ
  Basis Set: (JUN-CC-PVDZ AUX)
    Blend: JUN-CC-PVDZ-JKFIT
  @DF-RHF Final Energy:  -422.77299956100262
    Total Energy =                       -422.7729995610026208
  //            Monomer B HF           //
    Molecular point group: c1

    Geometry (in Angstrom), charge = 0, multiplicity = 1:

       Center              X                  Y                   Z               Mass
    ------------   -----------------  -----------------  -----------------  -----------------
      Gh(B)          -0.000198161052     0.000273808717     3.361061473265    11.009305360000
      Gh(F)          -0.000000401852    -0.000000464183     4.773846473265    18.998403162730
      Gh(F)           1.147859598148     0.675780735817     2.889920473265    18.998403162730
      Gh(F)           0.011917658148    -1.332011464183     2.890122473265    18.998403162730
      Gh(F)          -1.159666401852     0.656073035817     2.890201473265    18.998403162730
         C            1.225311973413     0.707538196736    -0.432834899451    12.000000000000
         C            1.225323934041    -0.707538986754    -0.445165709021    12.000000000000
         C           -0.000006075942     1.414965821907    -0.445699332542    12.000000000000
         C            2.456448831939     1.418327794995    -0.429948042051    12.000000000000
         C            0.000010905269    -1.414976590818    -0.435499775218    12.000000000000
         C           -1.225300870919     0.707545281801    -0.430583379129    12.000000000000
         C            2.456437833310    -1.418323396064    -0.447410865878    12.000000000000
         C           -0.000001254988     2.836800939098    -0.448102882676    12.000000000000
         C            3.681826775460     0.709317863818    -0.447062076080    12.000000000000
         C            2.455120126855     2.834223569306    -0.447164633041    12.000000000000
         C            3.681821183209    -0.709333931612    -0.430989592062    12.000000000000
         C           -1.225313520698    -0.707527607727    -0.444092947595    12.000000000000
         C            1.226699659192     3.543469391811    -0.430805560131    12.000000000000
         C            0.000004862847    -2.836782231419    -0.430651607596    12.000000000000
         C           -2.456435954859     1.418316826102    -0.430547983283    12.000000000000
         C            2.455123495769    -2.834230120772    -0.431141500430    12.000000000000
         C           -1.226714286599     3.543468971567    -0.430702226912    12.000000000000
         C            4.914517373191     1.427172780306    -0.440581393051    12.000000000000
         C            3.693150269466     3.542795200362    -0.440531593415    12.000000000000
         C           -2.456437522078    -1.418313373022    -0.447435904003    12.000000000000
         C            1.226704919933    -3.543474334090    -0.446775690881    12.000000000000
         C           -2.455125320518     2.834216570451    -0.447158256695    12.000000000000
         C            4.914524458772    -1.427187002127    -0.437608650316    12.000000000000
         C            1.221424691688     4.970133973077    -0.437470216057    12.000000000000
         C            4.893008307311     2.825187907843    -0.439364724692    12.000000000000
         C           -1.226696930499    -3.543471089260    -0.446508486472    12.000000000000
         C           -3.681818898536     0.709324874549    -0.447049395600    12.000000000000
         C            3.693147179140    -3.542801433574    -0.437490759756    12.000000000000
         C           -1.221432174004     4.970128205680    -0.437286720684    12.000000000000
         C            6.134771050916     0.680547854922    -0.439811618501    12.000000000000
         C            3.656788958600     4.972953151384    -0.439622955632    12.000000000000
         C           -2.455126829744    -2.834215185244    -0.431385858228    12.000000000000
         C           -3.681819101071    -0.709325795652    -0.430871970483    12.000000000000
         C            4.893012695903    -2.825200197815    -0.438753572797    12.000000000000
         C           -0.000000995123     5.650447273849    -0.438518029391    12.000000000000
         C            6.134775190322    -0.680554946258    -0.438546297985    12.000000000000
         C            2.478131560845     5.653576659148    -0.438334175982    12.000000000000
         C            1.221422482727    -4.970127147116    -0.440269713079    12.000000000000
         C           -3.693162305975     3.542796862009    -0.440366085955    12.000000000000
         C           -1.221428442955    -4.970118395779    -0.440382474912    12.000000000000
         C           -4.914521729952     1.427175354812    -0.440504448043    12.000000000000
         C            3.656787097669    -4.972955318422    -0.438172455098    12.000000000000
         C           -2.478138452116     5.653574330345    -0.438049650974    12.000000000000
         C           -3.693141660574    -3.542790311162    -0.437606885911    12.000000000000
         C           -4.914512405063    -1.427181092211    -0.437573953143    12.000000000000
         C           -0.000005930936    -5.650438379197    -0.438913533512    12.000000000000
         C           -4.893020406111     2.825188506736    -0.439374806552    12.000000000000
         C            2.478126071288    -5.653573636072    -0.439263055890    12.000000000000
         C           -3.656798632268     4.972956089858    -0.439446275258    12.000000000000
         C           -4.892999400866    -2.825191859243    -0.438907608494    12.000000000000
         C           -2.478128420093    -5.653566262190    -0.439538243538    12.000000000000
         C           -6.134770425341     0.680548674073    -0.439837170203    12.000000000000
         C           -3.656788755199    -4.972944115154    -0.438386742915    12.000000000000
         C           -6.134764964923    -0.680554007665    -0.438566773780    12.000000000000
         H            5.835288573806     3.369275802771    -0.435005399029     1.007825032230
         H            7.073859250737     1.228217156716    -0.439349975108     1.007825032230
         H            4.600663342164     5.512380710270    -0.439117754880     1.007825032230
         H            5.835283465295    -3.369306148912    -0.443208040111     1.007825032230
         H           -0.000012073316     6.738530581953    -0.442867274399     1.007825032230
         H            7.073861249820    -1.228227034927    -0.439055036080     1.007825032230
         H            2.473313809789     6.740684199211    -0.438800896913     1.007825032230
         H            4.600668569371    -5.512376221359    -0.438582452266     1.007825032230
         H           -2.473318602548     6.740681627423    -0.438499550288     1.007825032230
         H           -0.000010190238    -6.738528268635    -0.434383848527     1.007825032230
         H           -5.835301836354     3.369270858113    -0.434869376881     1.007825032230
         H            2.473308001821    -6.740685466612    -0.438692725465     1.007825032230
         H           -4.600674763218     5.512377934420    -0.438952426556     1.007825032230
         H           -5.835279428845    -3.369289055963    -0.443487345992     1.007825032230
         H           -2.473300269450    -6.740679170323    -0.439142042010     1.007825032230
         H           -7.073857688778     1.228220380657    -0.439433966589     1.007825032230
         H           -4.600673708095    -5.512362761970    -0.438754760289     1.007825032230
         H           -7.073856856419    -1.228220724160    -0.439149892546     1.007825032230

  Charge       = 0
  Multiplicity = 1
  Basis Set: JUN-CC-PVDZ
    Blend: JUN-CC-PVDZ
  Basis Set: (JUN-CC-PVDZ AUX)
    Blend: JUN-CC-PVDZ-JKFIT

    Orbital Energies [Eh]
    ---------------------

    Doubly Occupied:

       1A    -11.260678     2A    -11.260228     3A    -11.260228
       4A    -11.259480     5A    -11.259479     6A    -11.259297
       7A    -11.259046     8A    -11.258977     9A    -11.258976
      10A    -11.258641    11A    -11.258638    12A    -11.258522
      13A    -11.258466    14A    -11.258462    15A    -11.258460
      16A    -11.258426    17A    -11.258420    18A    -11.258402
      19A    -11.258398    20A    -11.258397    21A    -11.258392
      22A    -11.258331    23A    -11.258326    24A    -11.258097
      25A    -11.257324    26A    -11.257265    27A    -11.257264
      28A    -11.257136    29A    -11.257135    30A    -11.257054
      31A    -11.256421    32A    -11.256353    33A    -11.256352
      34A    -11.256245    35A    -11.256245    36A    -11.256199
      37A    -11.252270    38A    -11.252270    39A    -11.252269
      40A    -11.252267    41A    -11.252265    42A    -11.252263
      43A    -11.251377    44A    -11.251375    45A    -11.251374
      46A    -11.251367    47A    -11.251366    48A    -11.251362
      49A    -11.250832    50A    -11.250831    51A    -11.250830
      52A    -11.250828    53A    -11.250826    54A    -11.250825
      55A     -1.244013    56A     -1.219781    57A     -1.219780
      58A     -1.189515    59A     -1.189507    60A     -1.180894
      61A     -1.157537    62A     -1.148957    63A     -1.135451
      64A     -1.135445    65A     -1.113173    66A     -1.113169
      67A     -1.082400    68A     -1.082392    69A     -1.078560
      70A     -1.065965    71A     -1.065961    72A     -1.039372
      73A     -1.024239    74A     -1.021717    75A     -1.021674
      76A     -1.017712    77A     -1.012785    78A     -0.986989
      79A     -0.986943    80A     -0.961861    81A     -0.961811
      82A     -0.894269    83A     -0.894243    84A     -0.887879
      85A     -0.886136    86A     -0.886078    87A     -0.881358
      88A     -0.881310    89A     -0.861878    90A     -0.837404
      91A     -0.818182    92A     -0.816571    93A     -0.812098
      94A     -0.812089    95A     -0.794671    96A     -0.794660
      97A     -0.746578    98A     -0.744822    99A     -0.733370
     100A     -0.733361   101A     -0.732161   102A     -0.732138
     103A     -0.716458   104A     -0.698950   105A     -0.698939
     106A     -0.693552   107A     -0.693537   108A     -0.661211
     109A     -0.653059   110A     -0.651106   111A     -0.650234
     112A     -0.650228   113A     -0.639340   114A     -0.639337
     115A     -0.629676   116A     -0.627484   117A     -0.627468
     118A     -0.606458   119A     -0.605802   120A     -0.601624
     121A     -0.599703   122A     -0.599672   123A     -0.593606
     124A     -0.591159   125A     -0.591149   126A     -0.585269
     127A     -0.576398   128A     -0.576392   129A     -0.567309
     130A     -0.567295   131A     -0.565917   132A     -0.565898
     133A     -0.558675   134A     -0.554820   135A     -0.554814
     136A     -0.538574   137A     -0.538573   138A     -0.538216
     139A     -0.538210   140A     -0.529693   141A     -0.528168
     142A     -0.522844   143A     -0.522838   144A     -0.500485
     145A     -0.495598   146A     -0.493211   147A     -0.487836
     148A     -0.485036   149A     -0.481724   150A     -0.481716
     151A     -0.470347   152A     -0.470328   153A     -0.450967
     154A     -0.450889   155A     -0.439062   156A     -0.439052
     157A     -0.404749   158A     -0.404726   159A     -0.403371
     160A     -0.375406   161A     -0.375403   162A     -0.349119
     163A     -0.337641   164A     -0.336555   165A     -0.336498
     166A     -0.311060   167A     -0.298110   168A     -0.284347
     169A     -0.284293   170A     -0.224899   171A     -0.224833

  @DF-RHF Final Energy: -2055.89404509491987

   => Energetics <=

    Nuclear Repulsion Energy =           6452.5568002797772351
    One-Electron Energy =              -15636.4889714615783305
    Two-Electron Energy =                7128.0381260868807658
    Total Energy =                      -2055.8940450949203296
 Dipole X            :          0.0000278            0.0000419            0.0000697
 Dipole Y            :          0.0000389           -0.0000426           -0.0000037
 Dipole Z            :        283.7030799         -283.7033884           -0.0003085
 Magnitude           :                                                    0.0003163

    SAPT Results
  --------------------------------------------------------------------------------------------------------
    Electrostatics                 11.84675615 [mEh]       7.43395172 [kcal/mol]      31.10365399 [kJ/mol]
      Elst10,r                     11.84675615 [mEh]       7.43395172 [kcal/mol]      31.10365399 [kJ/mol]

    Exchange                        4.56733746 [mEh]       2.86604753 [kcal/mol]      11.99154285 [kJ/mol]
      Exch10                        4.56733746 [mEh]       2.86604753 [kcal/mol]      11.99154285 [kJ/mol]
      Exch10(S^2)                   4.56629851 [mEh]       2.86539558 [kcal/mol]      11.98881510 [kJ/mol]

    Induction                     -13.32839198 [mEh]      -8.36369224 [kcal/mol]     -34.99368832 [kJ/mol]
      Ind20,r                     -14.30292282 [mEh]      -8.97521957 [kcal/mol]     -37.55231868 [kJ/mol]
      Exch-Ind20,r                  1.24123566 [mEh]       0.77888714 [kcal/mol]       3.25886378 [kJ/mol]
      delta HF,r (2)               -0.26670482 [mEh]      -0.16735980 [kcal/mol]      -0.70023341 [kJ/mol]

    Dispersion                     -7.89463050 [mEh]      -4.95395543 [kcal/mol]     -20.72734951 [kJ/mol]
      Disp20                       -8.62301299 [mEh]      -5.41102235 [kcal/mol]     -22.63971749 [kJ/mol]
      Exch-Disp20                   0.72838250 [mEh]       0.45706692 [kcal/mol]       1.91236798 [kJ/mol]
      Disp20 (SS)                  -4.31150650 [mEh]      -2.70551117 [kcal/mol]     -11.31985875 [kJ/mol]
      Disp20 (OS)                  -4.31150650 [mEh]      -2.70551117 [kcal/mol]     -11.31985875 [kJ/mol]
      Exch-Disp20 (SS)              0.44092654 [mEh]       0.27668558 [kcal/mol]       1.15765246 [kJ/mol]
      Exch-Disp20 (OS)              0.28745596 [mEh]       0.18038134 [kcal/mol]       0.75471552 [kJ/mol]

  Total HF                          3.08570164 [mEh]       1.93630701 [kcal/mol]       8.10150853 [kJ/mol]
  Total SAPT0                      -4.80892886 [mEh]      -3.01764842 [kcal/mol]     -12.62584098 [kJ/mol]

  Special recipe for scaled SAPT0 (see Manual):
    Electrostatics sSAPT0          11.84675615 [mEh]       7.43395172 [kcal/mol]      31.10365399 [kJ/mol]
    Exchange sSAPT0                 4.56733746 [mEh]       2.86604753 [kcal/mol]      11.99154285 [kJ/mol]
    Induction sSAPT0              -13.32754455 [mEh]      -8.36316047 [kcal/mol]     -34.99146339 [kJ/mol]
    Dispersion sSAPT0              -7.89413321 [mEh]      -4.95364337 [kcal/mol]     -20.72604388 [kJ/mol]
  Total sSAPT0                     -4.80758414 [mEh]      -3.01680459 [kcal/mol]     -12.62231042 [kJ/mol]
  --------------------------------------------------------------------------------------------------------

*** Psi4 exiting successfully. Buy a developer a beer!
