                               Psi4 1.9 release

  ==> Input File <==

--------------------------------------------------------------------------
memory 32 GB # how much memory is available ! Depends on the nodes/cores !

molecule dimer {
# monomer A
-1 1    # Charge and multiplicity
B -0.000046  0.000337 1.999994
F -1.153597  0.000048 2.815641
F  1.153661 -0.000581 2.815641
F -0.000019 -1.153637 1.184360
F -0.000019  1.153978 1.184360
--
# monomer B
0 1     # Charge and multiplicity
C   1.22531237526482      0.70753866091955      0.00613762728373
C   1.22532433589282     -0.70753852257020     -0.00619318228664
C   -0.00000567409046      1.41496628609039     -0.00672680580738
C   2.45644923379077      1.41832825917820      0.00902448468363
C   0.00001130712078     -1.41497612663474      0.00347275151708
C   -1.22530046906674      0.70754574598412      0.00838914760619
C   2.45643823516184     -1.41832293188077     -0.00843833914343
C   -0.00000085313587      2.83680140328112     -0.00913035594137
C   3.68182717731192      0.70931832800114     -0.00808954934571
C   2.45512052870677      2.83422403348893     -0.00819210630633
C   3.68182158506039     -0.70933346742900      0.00798293467272
C   -1.22531311884624     -0.70752714354401     -0.00512042085974
C   1.22670006104402      3.54346985599427      0.00816696660346
C   0.00000526469929     -2.83678176723568      0.00832091913869
C   -2.45643555300670      1.41831729028492      0.00842454345199
C   2.45512389762097     -2.83422965658853      0.00783102630520
C   -1.22671388474763      3.54346943575023      0.00827029982280
C   4.91451777504333      1.42717324448953     -0.00160886631602
C   3.69315067131765      3.54279566454522     -0.00155906667985
C   -2.45643712022637     -1.41831290883911     -0.00846337726810
C   1.22670532178455     -3.54347386990643     -0.00780316414624
C   -2.45512491866593      2.83421703463423     -0.00818572995999
C   4.91452486062398     -1.42718653794377      0.00136387641845
C   1.22142509354026      4.97013443726031      0.00150231067809
C   4.89300870916237      2.82518837202648     -0.00039219795739
C   -1.22669652864725     -3.54347062507680     -0.00753595973677
C   -3.68181849668397      0.70932533873199     -0.00807686886569
C   3.69314758099218     -3.54280096939050      0.00148176697923
C   -1.22143177215231      4.97012866986289      0.00168580605083
C   6.13477145276790      0.68054831910577     -0.00083909176631
C   3.65678936045204      4.97295361556775     -0.00065042889723
C   -2.45512642789169     -2.83421472106065      0.00758666850712
C   -3.68181869921921     -0.70932533146830      0.00810055625144
C   4.89301309775526     -2.82519973363176      0.00021895393805
C   -0.00000059327114      5.65044773803267      0.00045449734393
C   6.13477559217374     -0.68055448207492      0.00042622874941
C   2.47813196269732      5.65357712333155      0.00063835075260
C   1.22142288457925     -4.97012668293268     -0.00129718634452
C   -3.69316190412301      3.54279732619245     -0.00139355922051
C   -1.22142804110313     -4.97011793159564     -0.00140994817719
C   -4.91452132810043      1.42717581899491     -0.00153192130862
C   3.65678749952045     -4.97295485423912      0.00080007163680
C   -2.47813805026426      5.65357479452875      0.00092287576113
C   -3.69314125872231     -3.54278984697859      0.00136564082345
C   -4.91451200321153     -1.42718062802730      0.00139857359209
C   -0.00000552908399     -5.65043791501335      0.00005899322272
C   -4.89302000425900      2.82518897091939     -0.00040227981744
C   2.47812647313991     -5.65357317188818     -0.00029052915548
C   -3.65679823041642      4.97295655404175     -0.00047374852278
C   -4.89299899901461     -2.82519139505969      0.00006491824035
C   -2.47812801824129     -5.65356579800621     -0.00056571680280
C   -6.13477002348955      0.68054913825639     -0.00086464346868
C   -3.65678835334731     -4.97294365097028      0.00058578382008
C   -6.13476456307132     -0.68055354348201      0.00040575295444
H   5.83528897565761      3.36927626695423      0.00396712770529
H   7.07385965258860      1.22821762089947     -0.00037744837300
H   4.60066374401555      5.51238117445323     -0.00014522814529
H   5.83528386714679     -3.36930568472863     -0.00423551337640
H   -0.00001167146422      6.73853104613662     -0.00389474766392
H   7.07386165167227     -1.22822657074368     -0.00008250934481
H   2.47331421164041      6.74068466339473      0.00017162982210
H   4.60066897122302     -5.51237575717576      0.00039007446835
H   -2.47331820069565      6.74068209160650      0.00047297644710
H   -0.00000978838621     -6.73852780445195      0.00458867820736
H   -5.83530143450167      3.36927132229595      0.00410314985360
H   2.47330840367253     -6.74068500242887      0.00027980126949
H   -4.60067436136587      5.51237839860371      0.00002010017831
H   -5.83527902699321     -3.36928859177951     -0.00451481925734
H   -2.47329986759855     -6.74067870613986     -0.00016951527498
H   -7.07385728692578      1.22822084484047     -0.00046143985387
H   -4.60067330624313     -5.51236229778631      0.00021776644566
H   -7.07385645456741     -1.22822025997701     -0.00017736581114

    units angstrom      # Angstroms are the default
    no_reorient         # Geometry fixed, default
    symmetry c1         # C1 symmetry, default
}

set {
    scf_type DF         # Density fitting, faster than exact integrals
    freeze_core True    # Freeze core electrons
    basis jun-cc-pVDZ   # Jun-cc-pVDZ basis set, recommended for sSAPT0 in https://doi.org/10.1063/1.4867135
}

energy('ssapt0')        # Compute sSAPT0 energy, includes also SAPT0
--------------------------------------------------------------------------

  //              Dimer HF             //
    Molecular point group: c1
  Charge       = -1
  Multiplicity = 1
  Basis Set: JUN-CC-PVDZ
    Blend: JUN-CC-PVDZ
  Basis Set: (JUN-CC-PVDZ AUX)
    Blend: JUN-CC-PVDZ-JKFIT
  @DF-RHF Final Energy: -2477.75174057877302
    Total Energy =                      -2477.7517405787730240
 Dipole X            :         -0.0071830           -0.0000160           -0.0071990
 Dipole Y            :         -0.0415267           -0.0001716           -0.0416983
 Dipole Z            :         12.0718125          -12.2604925           -0.1886800
 Magnitude           :                                                    0.1933668
  //            Monomer A HF           //
    Molecular point group: c1
  Multiplicity = 1
  Basis Set: JUN-CC-PVDZ
    Blend: JUN-CC-PVDZ
  Basis Set: (JUN-CC-PVDZ AUX)
    Blend: JUN-CC-PVDZ-JKFIT
  @DF-RHF Final Energy:  -422.78040670273197
    Total Energy =                       -422.7804067027319661
  //            Monomer B HF           //
    Molecular point group: c1

    Geometry (in Angstrom), charge = 0, multiplicity = 1:

       Center              X                  Y                   Z               Mass
    ------------   -----------------  -----------------  -----------------  -----------------
      Gh(B)          -0.000046449334     0.000336519434     1.768956930420    11.009305360000
      Gh(F)          -1.153597449334     0.000047519434     2.584603930420    18.998403162730
      Gh(F)           1.153660550666    -0.000581480566     2.584603930420    18.998403162730
      Gh(F)          -0.000019449334    -1.153637480566     0.953322930420    18.998403162730
      Gh(F)          -0.000019449334     1.153977519434     0.953322930420    18.998403162730
         C            1.225311925931     0.707538180353    -0.224899442296    12.000000000000
         C            1.225323886559    -0.707539003137    -0.237230251866    12.000000000000
         C           -0.000006123424     1.414965805524    -0.237763875387    12.000000000000
         C            2.456448784457     1.418327778612    -0.222012584896    12.000000000000
         C            0.000010857787    -1.414976607201    -0.227564318063    12.000000000000
         C           -1.225300918401     0.707545265418    -0.222647921974    12.000000000000
         C            2.456437785828    -1.418323412447    -0.239475408723    12.000000000000
         C           -0.000001302470     2.836800922715    -0.240167425521    12.000000000000
         C            3.681826727978     0.709317847435    -0.239126618926    12.000000000000
         C            2.455120079373     2.834223552923    -0.239229175886    12.000000000000
         C            3.681821135726    -0.709333947995    -0.223054134907    12.000000000000
         C           -1.225313568180    -0.707527624110    -0.236157490440    12.000000000000
         C            1.226699611710     3.543469375428    -0.222870102976    12.000000000000
         C            0.000004815365    -2.836782247802    -0.222716150441    12.000000000000
         C           -2.456436002341     1.418316809719    -0.222612526128    12.000000000000
         C            2.455123448287    -2.834230137155    -0.223206043275    12.000000000000
         C           -1.226714334082     3.543468955184    -0.222766769757    12.000000000000
         C            4.914517325709     1.427172763923    -0.232645935896    12.000000000000
         C            3.693150221984     3.542795183979    -0.232596136260    12.000000000000
         C           -2.456437569560    -1.418313389406    -0.239500446848    12.000000000000
         C            1.226704872451    -3.543474350473    -0.238840233726    12.000000000000
         C           -2.455125368000     2.834216554068    -0.239222799540    12.000000000000
         C            4.914524411290    -1.427187018510    -0.229673193161    12.000000000000
         C            1.221424644206     4.970133956694    -0.229534758902    12.000000000000
         C            4.893008259828     2.825187891460    -0.231429267537    12.000000000000
         C           -1.226696977981    -3.543471105643    -0.238573029317    12.000000000000
         C           -3.681818946018     0.709324858166    -0.239113938445    12.000000000000
         C            3.693147131658    -3.542801449957    -0.229555302601    12.000000000000
         C           -1.221432221486     4.970128189296    -0.229351263529    12.000000000000
         C            6.134771003434     0.680547838539    -0.231876161346    12.000000000000
         C            3.656788911118     4.972953135001    -0.231687498477    12.000000000000
         C           -2.455126877226    -2.834215201627    -0.223450401073    12.000000000000
         C           -3.681819148553    -0.709325812035    -0.222936513328    12.000000000000
         C            4.893012648421    -2.825200214198    -0.230818115642    12.000000000000
         C           -0.000001042605     5.650447257466    -0.230582572236    12.000000000000
         C            6.134775142840    -0.680554962641    -0.230610840830    12.000000000000
         C            2.478131513363     5.653576642765    -0.230398718827    12.000000000000
         C            1.221422435245    -4.970127163499    -0.232334255924    12.000000000000
         C           -3.693162353457     3.542796845626    -0.232430628800    12.000000000000
         C           -1.221428490437    -4.970118412162    -0.232447017757    12.000000000000
         C           -4.914521777434     1.427175338429    -0.232568990888    12.000000000000
         C            3.656787050187    -4.972955334806    -0.230236997943    12.000000000000
         C           -2.478138499598     5.653574313962    -0.230114193819    12.000000000000
         C           -3.693141708056    -3.542790327545    -0.229671428756    12.000000000000
         C           -4.914512452545    -1.427181108594    -0.229638495988    12.000000000000
         C           -0.000005978418    -5.650438395580    -0.230978076357    12.000000000000
         C           -4.893020453593     2.825188490353    -0.231439349397    12.000000000000
         C            2.478126023806    -5.653573652455    -0.231327598735    12.000000000000
         C           -3.656798679750     4.972956073475    -0.231510818103    12.000000000000
         C           -4.892999448349    -2.825191875626    -0.230972151339    12.000000000000
         C           -2.478128467575    -5.653566278573    -0.231602786383    12.000000000000
         C           -6.134770472823     0.680548657690    -0.231901713048    12.000000000000
         C           -3.656788802681    -4.972944131537    -0.230451285760    12.000000000000
         C           -6.134765012405    -0.680554024048    -0.230631316625    12.000000000000
         H            5.835288526324     3.369275786388    -0.227069941875     1.007825032230
         H            7.073859203255     1.228217140333    -0.231414517953     1.007825032230
         H            4.600663294682     5.512380693887    -0.231182297725     1.007825032230
         H            5.835283417813    -3.369306165295    -0.235272582956     1.007825032230
         H           -0.000012120798     6.738530565570    -0.234931817244     1.007825032230
         H            7.073861202338    -1.228227051310    -0.231119578925     1.007825032230
         H            2.473313762307     6.740684182828    -0.230865439758     1.007825032230
         H            4.600668521889    -5.512376237742    -0.230646995111     1.007825032230
         H           -2.473318650030     6.740681611040    -0.230564093133     1.007825032230
         H           -0.000010237720    -6.738528285018    -0.226448391372     1.007825032230
         H           -5.835301883836     3.369270841730    -0.226933919726     1.007825032230
         H            2.473307954339    -6.740685482995    -0.230757268310     1.007825032230
         H           -4.600674810700     5.512377918037    -0.231016969401     1.007825032230
         H           -5.835279476327    -3.369289072346    -0.235551888837     1.007825032230
         H           -2.473300316932    -6.740679186706    -0.231206584855     1.007825032230
         H           -7.073857736260     1.228220364274    -0.231498509434     1.007825032230
         H           -4.600673755577    -5.512362778353    -0.230819303134     1.007825032230
         H           -7.073856903901    -1.228220740543    -0.231214435391     1.007825032230

  Charge       = 0
  Multiplicity = 1
  Basis Set: JUN-CC-PVDZ
    Blend: JUN-CC-PVDZ
  Basis Set: (JUN-CC-PVDZ AUX)
    Blend: JUN-CC-PVDZ-JKFIT

    Orbital Energies [Eh]
    ---------------------

    Doubly Occupied:

       1A    -11.260612     2A    -11.260195     3A    -11.260123
       4A    -11.259446     5A    -11.259364     6A    -11.259221
       7A    -11.258975     8A    -11.258924     9A    -11.258874
      10A    -11.258589    11A    -11.258560    12A    -11.258463
      13A    -11.258416    14A    -11.258410    15A    -11.258402
      16A    -11.258380    17A    -11.258351    18A    -11.258344
      19A    -11.258339    20A    -11.258334    21A    -11.258333
      22A    -11.258283    23A    -11.258255    24A    -11.258021
      25A    -11.257237    26A    -11.257193    27A    -11.257157
      28A    -11.257046    29A    -11.257040    30A    -11.256962
      31A    -11.256326    32A    -11.256273    33A    -11.256240
      34A    -11.256158    35A    -11.256138    36A    -11.256101
      37A    -11.252257    38A    -11.252256    39A    -11.252235
      40A    -11.252234    41A    -11.252232    42A    -11.252231
      43A    -11.251340    44A    -11.251339    45A    -11.251333
      46A    -11.251331    47A    -11.251298    48A    -11.251292
      49A    -11.250819    50A    -11.250817    51A    -11.250796
      52A    -11.250795    53A    -11.250792    54A    -11.250792
      55A     -1.243887    56A     -1.219708    57A     -1.219672
      58A     -1.189452    59A     -1.189429    60A     -1.180774
      61A     -1.157489    62A     -1.148886    63A     -1.135349
      64A     -1.135330    65A     -1.113123    66A     -1.113112
      67A     -1.082304    68A     -1.082301    69A     -1.078454
      70A     -1.065916    71A     -1.065910    72A     -1.039308
      73A     -1.024123    74A     -1.021584    75A     -1.021554
      76A     -1.017666    77A     -1.012732    78A     -0.986898
      79A     -0.986854    80A     -0.961792    81A     -0.961748
      82A     -0.894209    83A     -0.894183    84A     -0.887783
      85A     -0.886035    86A     -0.885963    87A     -0.881267
      88A     -0.881226    89A     -0.861815    90A     -0.837367
      91A     -0.818115    92A     -0.816465    93A     -0.812006
      94A     -0.811990    95A     -0.794610    96A     -0.794603
      97A     -0.746491    98A     -0.744741    99A     -0.733268
     100A     -0.733251   101A     -0.732102   102A     -0.732074
     103A     -0.716379   104A     -0.698891   105A     -0.698880
     106A     -0.693462   107A     -0.693462   108A     -0.661146
     109A     -0.652945   110A     -0.650998   111A     -0.650177
     112A     -0.650173   113A     -0.639286   114A     -0.639277
     115A     -0.629597   116A     -0.627399   117A     -0.627371
     118A     -0.606525   119A     -0.605775   120A     -0.601538
     121A     -0.599632   122A     -0.599616   123A     -0.593539
     124A     -0.591036   125A     -0.591016   126A     -0.585230
     127A     -0.576379   128A     -0.576338   129A     -0.567260
     130A     -0.567248   131A     -0.565822   132A     -0.565795
     133A     -0.558572   134A     -0.554752   135A     -0.554749
     136A     -0.538515   137A     -0.538514   138A     -0.538153
     139A     -0.538133   140A     -0.529630   141A     -0.528210
     142A     -0.522777   143A     -0.522773   144A     -0.500426
     145A     -0.495549   146A     -0.493152   147A     -0.487804
     148A     -0.484966   149A     -0.481643   150A     -0.481640
     151A     -0.470383   152A     -0.470297   153A     -0.450871
     154A     -0.450782   155A     -0.439028   156A     -0.439021
     157A     -0.404690   158A     -0.404640   159A     -0.403327
     160A     -0.375390   161A     -0.375380   162A     -0.349065
     163A     -0.337533   164A     -0.336554   165A     -0.336390
     166A     -0.311006   167A     -0.298084   168A     -0.284234
     169A     -0.284203   170A     -0.224855   171A     -0.224749

  @DF-RHF Final Energy: -2055.89563768849348

   => Energetics <=

    Nuclear Repulsion Energy =           6452.5568002797781446
    One-Electron Energy =              -15636.5152092376683868
    Two-Electron Energy =                7128.0627712693958529
    Total Energy =                      -2055.8956376884934798
 Dipole X            :          0.0000474            0.0000112            0.0000586
 Dipole Y            :          0.0001348           -0.0000531            0.0000817
 Dipole Z            :        149.3244595         -149.3175439            0.0069156
 Magnitude           :                                                    0.0069164

    SAPT Results
  --------------------------------------------------------------------------------------------------------
    Electrostatics              -1171.85011588 [mEh]    -735.34704956 [kcal/mol]   -3076.69205537 [kJ/mol]
      Elst10,r                  -1171.85011588 [mEh]    -735.34704956 [kcal/mol]   -3076.69205537 [kJ/mol]

    Exchange                     2576.78842001 [mEh]    1616.95914548 [kcal/mol]    6765.35706468 [kJ/mol]
      Exch10                     2576.78842001 [mEh]    1616.95914548 [kcal/mol]    6765.35706468 [kJ/mol]
      Exch10(S^2)                2003.89549261 [mEh]    1257.46340607 [kcal/mol]    5261.22689100 [kJ/mol]

    Induction                    -480.63449168 [mEh]    -301.60269695 [kcal/mol]   -1261.90568405 [kJ/mol]
      Ind20,r                   -2158.92673011 [mEh]   -1354.74697634 [kcal/mol]   -5668.26134899 [kJ/mol]
      Exch-Ind20,r               1029.49802850 [mEh]     646.01976612 [kcal/mol]    2702.94670144 [kJ/mol]
      delta HF,r (2)              648.79420993 [mEh]     407.12451326 [kcal/mol]    1703.40896350 [kJ/mol]

    Dispersion                   -157.95917443 [mEh]     -99.12087842 [kcal/mol]    -414.72175532 [kJ/mol]
      Disp20                     -271.52427826 [mEh]    -170.38405697 [kcal/mol]    -712.88689435 [kJ/mol]
      Exch-Disp20                 113.56510383 [mEh]      71.26317854 [kcal/mol]     298.16513903 [kJ/mol]
      Disp20 (SS)                -135.76213913 [mEh]     -85.19202848 [kcal/mol]    -356.44344718 [kJ/mol]
      Disp20 (OS)                -135.76213913 [mEh]     -85.19202848 [kcal/mol]    -356.44344718 [kJ/mol]
      Exch-Disp20 (SS)             49.26811435 [mEh]      30.91620851 [kcal/mol]     129.35341641 [kJ/mol]
      Exch-Disp20 (OS)             64.29698948 [mEh]      40.34697003 [kcal/mol]     168.81172262 [kJ/mol]

  Total HF                        924.30381245 [mEh]     580.00939896 [kcal/mol]    2426.75932526 [kJ/mol]
  Total SAPT0                     766.34463803 [mEh]     480.88852054 [kcal/mol]    2012.03756994 [kJ/mol]

  Special recipe for scaled SAPT0 (see Manual):
    Electrostatics sSAPT0       -1171.85011588 [mEh]    -735.34704956 [kcal/mol]   -3076.69205537 [kJ/mol]
    Exchange sSAPT0              2576.78842001 [mEh]    1616.95914548 [kcal/mol]    6765.35706468 [kJ/mol]
    Induction sSAPT0              678.82127444 [mEh]     425.96678071 [kcal/mol]    1782.24501050 [kJ/mol]
    Dispersion sSAPT0             -30.05828407 [mEh]     -18.86185802 [kcal/mol]     -78.91801395 [kJ/mol]
  Total sSAPT0                   2053.70129450 [mEh]    1288.71701861 [kcal/mol]    5391.99200586 [kJ/mol]
  --------------------------------------------------------------------------------------------------------

*** Psi4 exiting successfully. Buy a developer a beer!
