                               Psi4 1.9 release

  ==> Input File <==

--------------------------------------------------------------------------
memory 47 GB # how much memory is available ! Depends on the nodes/cores !

molecule dimer {
# monomer A
+1 1    # Charge and multiplicity
C  0.680067 -0.008042 -10.015929
C -0.680504 -0.006014 -10.015545
N -1.085635 -0.005016  -8.697221
C  0.000108 -0.001740  -7.915820
C -2.477365  0.044390  -8.229242
N  1.085222 -0.005016  -8.697221
H  1.385146 -0.015870 -10.833368
H -1.385302 -0.006204 -10.833214
H -0.000009  0.000007  -6.834731
C  2.478117 -0.021908  -8.232123
H  2.490592  0.005437  -7.141870
H  2.967028 -0.935354  -8.579299
H  3.001428  0.853575  -8.623595
H -2.857359  1.066461  -8.309201
H -3.082679 -0.625694  -8.842306
H -2.518128 -0.282594  -7.189294
--
# monomer B
0 1     # Charge and multiplicity
C   -3.66844126402057      7.80375217008252      0.00190004133558
C   -4.84759871934653      7.13124183134024     -0.00046653359696
C   -4.89495929917518      5.69633040353158     -0.00103944469517
C   -3.65374067877320      4.98073034095895      0.00662099703436
C   -2.40942512149445      7.11398103667468      0.00209438359570
C   -2.42547734410473      5.68112195090346     -0.00491050527438
C   -1.19474401643570      7.78614419430947      0.00356656413763
C   0.03795902893699      7.09942164575698      0.00139585983271
C   0.03033258741920      5.66948955970466     -0.00408752508301
C   -1.20098450790502      4.96927034791531      0.00488220885047
C   1.27795782581485      7.77285944319479      0.00277170839332
C   2.48535808472416      7.08769688523756      0.00049722048857
C   2.48612868491717      5.65477081024076     -0.00644052849921
C   1.25408291964399      4.95607811366431      0.00518741308898
C   3.75171459140595      7.76391215098033      0.00062407186893
C   4.92356605618520      7.07878077698995     -0.00143240883900
C   4.95560727132542      5.64344746336949     -0.00159282164606
C   3.70680153420475      4.94121020833308      0.00349873852374
H   -3.65852113775815      8.89082741913536      0.00358502958574
H   -1.18921332975660      8.87412108735996      0.00753844057883
H   1.28429423888630      8.86083343548850      0.00693053253426
H   3.75354208679975      8.85103527897216      0.00214659618464
H   5.86995870320703      7.61379483465560     -0.00235777588134
H   -5.78823170750226      7.67630221293400     -0.00202638095293
C   -6.09197395869619      4.99326001364347     -0.00291168518608
C   -6.12866148031747      3.58258016879823     -0.00171050815740
C   -3.66457974004527      3.56418217974434     -0.00463560277484
C   -4.89429820469869      2.86108077590057      0.00453338221034
C   -2.43733499489796      2.84761165708481      0.00719617576166
C   -1.20922785759670      3.54788693497833     -0.00648285103018
C   1.24714157216223      3.53468075142962     -0.00729145743546
C   0.01517603956900      2.83311183930540      0.00439272578912
C   2.46764517244071      2.82128997725533      0.00449278391269
C   3.70254947457969      3.52466015442405     -0.00899517692985
C   6.14498038638375      4.92757236613191     -0.00282626685777
C   6.16658835886151      3.51658447594213     -0.00065971342101
C   4.92460995845939      2.80840792535402      0.00587903281610
H   7.08990550964105      5.46688776622306     -0.00658814770723
H   -7.03104175110130      5.54268795285765     -0.00714490013730
C   -7.33969804112295      2.85841153457957     -0.00333767559888
C   -7.36488195805880      1.47032337158330     -0.00157213747140
C   -4.90350460894690      1.44442681216000     -0.00628840166334
C   -6.13225715261081      0.73993935705394      0.00600164231964
C   -3.67687480051673      0.72669714267312      0.00433931473643
C   -2.44565658606518      1.42964113326212     -0.00597039546461
C   -1.22360068130162      0.71532450163492      0.00545886906656
C   0.00763786931376      1.41738314923765      0.00392452278437
C   1.23121980774686      0.70211669058719     -0.01490206287210
C   2.46082110053113      1.40329203612573      0.00460244601878
C   3.68443025419614      0.68719842821222      0.00377365974158
C   4.91870890153864      1.39173456118907     -0.00862816189375
C   7.36980207796101      2.77948220318441     -0.00242013321349
C   7.38016266612146      1.39121750785509     -0.00087345036788
C   6.13979953912259      0.67411862320065      0.00545489144369
H   -8.27919079934664      3.40711804112415     -0.00763522772059
H   8.31511347147953      3.31811809662368     -0.00663070901292
C   -8.59175593758115      0.72483255304480     -0.00123170985383
C   -8.59902460370342     -0.63263980622873      0.00089141472904
C   -6.13981313911873     -0.67413663715361     -0.00609792660607
C   -7.38018411213749     -1.39126618958160      0.00131813493501
C   -4.91868448025621     -1.39175501803000      0.00624257154343
C   -3.68443829568458     -0.68723731573599     -0.00478966852105
C   -2.46081704024768     -1.40334517882457      0.00575341766833
C   -1.23116201232071     -0.70217386488055     -0.00636696112346
C   -0.00756962538737     -1.41741884941102      0.00108956317991
C   1.22364771588843     -0.71527537726392      0.01109518512883
C   2.44567064933149     -1.42964328900682     -0.00065482763106
C   3.67686670284649     -0.72670743155550     -0.00479541202602
C   6.13224884641929     -0.73997883984993     -0.00632338623858
C   4.90351914550401     -1.44445752054090      0.00751768830159
C   8.59901484869081      0.63260386666793     -0.00101133422380
C   8.59174548810050     -0.72485086719319      0.00072504603735
C   7.36486276438985     -1.47033266560598      0.00049486934466
H   -9.52830597181814      1.27684744919284     -0.00270163681798
H   9.54141097460619      1.17457248844457     -0.00206336648518
C   -7.36983790976868     -2.77954514593389      0.00312634335708
C   -4.92459910905015     -2.80843725734101     -0.00460528907921
C   -6.16662249566744     -3.51665219282533      0.00169655107992
C   -3.70251035970491     -3.52468154912026      0.00571878010666
C   -2.46764698511392     -2.82132596280400     -0.00632585824990
C   -0.01513347410770     -2.83314164539971     -0.00604426974092
C   -1.24712184122656     -3.53473217556300      0.00551968366725
C   1.20924506964357     -3.54791467864352      0.00805871345849
C   2.43733602215464     -2.84764173817541     -0.00608104485234
C   4.89430234377080     -2.86112296828604     -0.00526030478103
C   3.66461525504104     -3.56421984553201      0.00761911515957
C   6.12863901474565     -3.58258405771778      0.00096495711699
C   7.33967266469532     -2.85841330737039      0.00248018319869
H   -9.54144911125902     -1.17456346666430      0.00226083090216
H   9.52826186807155     -1.27691907390448      0.00197485379837
H   -8.31516504384864     -3.31814985321231      0.00729857188773
H   8.27915514249207     -3.40714078989363      0.00681973918158
C   -6.14499418870218     -4.92764727278338      0.00302254913999
C   -3.70678334799751     -4.94126171411716     -0.00679841894792
C   -4.95559005800169     -5.64349397349412      0.00116871569699
C   -2.48612132622665     -5.65478557440947      0.00614125209662
C   -1.25405833548005     -4.95612205000132     -0.00503435388927
C   1.20101257386816     -4.96928038819302     -0.00385322963129
C   -0.03033667441341     -5.66952030313900      0.00398997003238
C   3.65375010132847     -4.98074377541453     -0.00309522988330
C   2.42549269587528     -5.68117463552727      0.00628170066869
C   6.09196561781097     -4.99325796338655      0.00325918379042
C   4.89497644461045     -5.69634842095790      0.00202298796027
H   -7.08989238804069     -5.46699984223871      0.00742531082125
H   7.03105520920009     -5.54265853633254      0.00683896355417
C   -4.92354532219813     -7.07882109967734      0.00061394679214
C   -2.48534208823777     -7.08772807792913     -0.00189594564379
C   -3.75168589177895     -7.76394715763627     -0.00170126671874
C   -0.03794895698805     -7.09946487446944     -0.00168022049625
C   -1.27795610040136     -7.77290438466689     -0.00366491325785
C   2.40944432072629     -7.11402201200282     -0.00081701968533
C   1.19474993715296     -7.78618536556242     -0.00296931056689
C   4.84762105249800     -7.13126211057943      0.00168979497423
C   3.66847160587561     -7.80378799294376     -0.00065863938960
H   -5.86994035041618     -7.61383059804164      0.00215798365757
H   5.78824962538815     -7.67633218931421      0.00281691445618
H   -3.75352693944918     -8.85107156923607     -0.00353718114765
H   -1.28430440589466     -8.86087539249706     -0.00809229711623
H   1.18922157469537     -8.87416062058945     -0.00706194725726
H   3.65854661482387     -8.89086063405326     -0.00231318081200

    units angstrom      # Angstroms are the default
    no_reorient         # Geometry fixed, default
    symmetry c1         # C1 symmetry, default
}

set {
    scf_type DF         # Density fitting, faster than exact integrals
    freeze_core True    # Freeze core electrons
    basis jun-cc-pVDZ   # Jun-cc-pVDZ basis set, recommended for sSAPT0 in https://doi.org/10.1063/1.4867135
}

energy('ssapt0')        # Compute sSAPT0 energy, includes also SAPT0
--------------------------------------------------------------------------

  //              Dimer HF             //
    Molecular point group: c1
  Charge       = 1
  Multiplicity = 1
  Basis Set: JUN-CC-PVDZ
    Blend: JUN-CC-PVDZ
  Basis Set: (JUN-CC-PVDZ AUX)
    Blend: JUN-CC-PVDZ-JKFIT
  @DF-RHF Final Energy: -3953.64298317302155
    Total Energy =                      -3953.6429831730201840
 Dipole X            :         -0.0018794            0.0004804           -0.0013990
 Dipole Y            :         -0.0488930            0.0561130            0.0072200
 Dipole Z            :         37.5049853          -51.5579488          -14.0529635
 Magnitude           :                                                   14.0529654
  //            Monomer A HF           //
    Molecular point group: c1
  Multiplicity = 1
  Basis Set: JUN-CC-PVDZ
    Blend: JUN-CC-PVDZ
  Basis Set: (JUN-CC-PVDZ AUX)
    Blend: JUN-CC-PVDZ-JKFIT
  @DF-RHF Final Energy:  -303.29717986841104
    Total Energy =                       -303.2971798684110354
  //            Monomer B HF           //
    Molecular point group: c1

    Geometry (in Angstrom), charge = 0, multiplicity = 1:

       Center              X                  Y                   Z               Mass
    ------------   -----------------  -----------------  -----------------  -----------------
      Gh(C)           0.680062820275    -0.008027535675    -9.345002752646    12.000000000000
      Gh(C)          -0.680508179725    -0.005999535675    -9.344618752646    12.000000000000
      Gh(N)          -1.085639179725    -0.005001535675    -8.026294752646    14.003074004430
      Gh(C)           0.000103820275    -0.001725535675    -7.244893752646    12.000000000000
      Gh(C)          -2.477369179725     0.044404464325    -7.558315752646    12.000000000000
      Gh(N)           1.085217820275    -0.005001535675    -8.026294752646    14.003074004430
      Gh(H)           1.385141820275    -0.015855535675   -10.162441752646     1.007825032230
      Gh(H)          -1.385306179725    -0.006189535675   -10.162287752646     1.007825032230
      Gh(H)          -0.000013179725     0.000021464325    -6.163804752646     1.007825032230
      Gh(C)           2.478112820275    -0.021893535675    -7.561196752646    12.000000000000
      Gh(H)           2.490587820275     0.005451464325    -6.470943752646     1.007825032230
      Gh(H)           2.967023820275    -0.935339535675    -7.908372752646     1.007825032230
      Gh(H)           3.001423820275     0.853589464325    -7.952668752646     1.007825032230
      Gh(H)          -2.857363179725     1.066475464325    -7.638274752646     1.007825032230
      Gh(H)          -3.082683179725    -0.625679535675    -8.171379752646     1.007825032230
      Gh(H)          -2.518132179725    -0.282579535675    -6.518367752646     1.007825032230
         C           -3.668445443746     7.803766634408     0.672826288690    12.000000000000
         C           -4.847602899072     7.131256295665     0.670459713757    12.000000000000
         C           -4.894963478901     5.696344867857     0.669886802659    12.000000000000
         C           -3.653744858499     4.980744805284     0.677547244388    12.000000000000
         C           -2.409429301220     7.113995501000     0.673020630950    12.000000000000
         C           -2.425481523830     5.681136415228     0.666015742080    12.000000000000
         C           -1.194748196161     7.786158658634     0.674492811492    12.000000000000
         C            0.037954849212     7.099436110082     0.672322107187    12.000000000000
         C            0.030328407694     5.669504024030     0.666838722271    12.000000000000
         C           -1.200988687630     4.969284812240     0.675808456204    12.000000000000
         C            1.277953646089     7.772873907520     0.673697955747    12.000000000000
         C            2.485353904999     7.087711349563     0.671423467843    12.000000000000
         C            2.486124505192     5.654785274566     0.664485718855    12.000000000000
         C            1.254078739919     4.956092577989     0.676113660443    12.000000000000
         C            3.751710411681     7.763926615305     0.671550319223    12.000000000000
         C            4.923561876460     7.078795241315     0.669493838515    12.000000000000
         C            4.955603091600     5.643461927694     0.669333425708    12.000000000000
         C            3.706797354479     4.941224672658     0.674424985878    12.000000000000
         H           -3.658525317484     8.890841883460     0.674511276940     1.007825032230
         H           -1.189217509482     8.874135551685     0.678464687933     1.007825032230
         H            1.284290059161     8.860847899813     0.677856779888     1.007825032230
         H            3.753537907074     8.851049743297     0.673072843539     1.007825032230
         H            5.869954523482     7.613809298981     0.668568471473     1.007825032230
         H           -5.788235887228     7.676316677259     0.668899866401     1.007825032230
         C           -6.091978138422     4.993274477968     0.668014562168    12.000000000000
         C           -6.128665660043     3.582594633123     0.669215739197    12.000000000000
         C           -3.664583919771     3.564196644069     0.666290644579    12.000000000000
         C           -4.894302384424     2.861095240226     0.675459629564    12.000000000000
         C           -2.437339174623     2.847626121410     0.678122423116    12.000000000000
         C           -1.209232037322     3.547901399303     0.664443396324    12.000000000000
         C            1.247137392437     3.534695215755     0.663634789919    12.000000000000
         C            0.015171859844     2.833126303630     0.675318973143    12.000000000000
         C            2.467640992715     2.821304441580     0.675419031267    12.000000000000
         C            3.702545294854     3.524674618749     0.661931070424    12.000000000000
         C            6.144976206658     4.927586830457     0.668099980496    12.000000000000
         C            6.166584179136     3.516598940267     0.670266533933    12.000000000000
         C            4.924605778734     2.808422389679     0.676805280170    12.000000000000
         H            7.089901329916     5.466902230548     0.664338099647     1.007825032230
         H           -7.031045930827     5.542702417183     0.663781347217     1.007825032230
         C           -7.339702220848     2.858425998905     0.667588571755    12.000000000000
         C           -7.364886137784     1.470337835908     0.669354109883    12.000000000000
         C           -4.903508788672     1.444441276485     0.664637845691    12.000000000000
         C           -6.132261332336     0.739953821379     0.676927889674    12.000000000000
         C           -3.676878980242     0.726711606998     0.675265562090    12.000000000000
         C           -2.445660765791     1.429655597587     0.664955851889    12.000000000000
         C           -1.223604861027     0.715338965960     0.676385116421    12.000000000000
         C            0.007633689588     1.417397613563     0.674850770138    12.000000000000
         C            1.231215628021     0.702131154912     0.656024184482    12.000000000000
         C            2.460816920806     1.403306500451     0.675528693373    12.000000000000
         C            3.684426074471     0.687212892537     0.674699907096    12.000000000000
         C            4.918704721813     1.391749025514     0.662298085460    12.000000000000
         C            7.369797898236     2.779496667509     0.668506114140    12.000000000000
         C            7.380158486396     1.391231972180     0.670052796986    12.000000000000
         C            6.139795359397     0.674133087526     0.676381138798    12.000000000000
         H           -8.279194979072     3.407132505449     0.663291019633     1.007825032230
         H            8.315109291754     3.318132560949     0.664295538341     1.007825032230
         C           -8.591760117307     0.724847017370     0.669694537500    12.000000000000
         C           -8.599028783429    -0.632625341904     0.671817662083    12.000000000000
         C           -6.139817318844    -0.674122172829     0.664828320748    12.000000000000
         C           -7.380188291863    -1.391251725257     0.672244382289    12.000000000000
         C           -4.918688659982    -1.391740553705     0.677168818897    12.000000000000
         C           -3.684442475410    -0.687222851411     0.666136578833    12.000000000000
         C           -2.460821219973    -1.403330714500     0.676679665022    12.000000000000
         C           -1.231166192046    -0.702159400556     0.664559286231    12.000000000000
         C           -0.007573805113    -1.417404385086     0.672015810534    12.000000000000
         C            1.223643536163    -0.715260912939     0.682021432483    12.000000000000
         C            2.445666469606    -1.429628824682     0.670271419723    12.000000000000
         C            3.676862523121    -0.726692967231     0.666130835328    12.000000000000
         C            6.132244666694    -0.739964375525     0.664602861115    12.000000000000
         C            4.903514965779    -1.444443056216     0.678443935656    12.000000000000
         C            8.599010668965     0.632618330993     0.669914913130    12.000000000000
         C            8.591741308375    -0.724836402868     0.671651293391    12.000000000000
         C            7.364858584664    -1.470318201281     0.671421116699    12.000000000000
         H           -9.528310151544     1.276861913518     0.668224610536     1.007825032230
         H            9.541406794881     1.174586952770     0.668862880869     1.007825032230
         C           -7.369842089494    -2.779530681609     0.674052590711    12.000000000000
         C           -4.924603288776    -2.808422793016     0.666320958275    12.000000000000
         C           -6.166626675393    -3.516637728500     0.672622798434    12.000000000000
         C           -3.702514539430    -3.524667084795     0.676645027461    12.000000000000
         C           -2.467651164839    -2.821311498479     0.664600389104    12.000000000000
         C           -0.015137653833    -2.833127181075     0.664881977613    12.000000000000
         C           -1.247126020952    -3.534717711238     0.676445931021    12.000000000000
         C            1.209240889918    -3.547900214319     0.678984960812    12.000000000000
         C            2.437331842429    -2.847627273850     0.664845202502    12.000000000000
         C            4.894298164045    -2.861108503961     0.665665942573    12.000000000000
         C            3.664611075316    -3.564205381207     0.678545362514    12.000000000000
         C            6.128634835020    -3.582569593393     0.671891204471    12.000000000000
         C            7.339668484970    -2.858398843045     0.673406430553    12.000000000000
         H           -9.541453290984    -1.174549002339     0.673187078256     1.007825032230
         H            9.528257688346    -1.276904609579     0.672901101152     1.007825032230
         H           -8.315169223574    -3.318135388887     0.678224819242     1.007825032230
         H            8.279150962767    -3.407126325569     0.677745986536     1.007825032230
         C           -6.144998368428    -4.927632808458     0.673948796494    12.000000000000
         C           -3.706787527723    -4.941247249792     0.664127828406    12.000000000000
         C           -4.955594237727    -5.643479509169     0.672094963051    12.000000000000
         C           -2.486125505952    -5.654771110084     0.677067499451    12.000000000000
         C           -1.254062515205    -4.956107585676     0.665891893465    12.000000000000
         C            1.201008394143    -4.969265923868     0.667073017723    12.000000000000
         C           -0.030340854139    -5.669505838814     0.674916217386    12.000000000000
         C            3.653745921603    -4.980729311090     0.667831017471    12.000000000000
         C            2.425488516150    -5.681160171202     0.677207948023    12.000000000000
         C            6.091961438086    -4.993243499062     0.674185431144    12.000000000000
         C            4.894972264885    -5.696333956633     0.672949235314    12.000000000000
         H           -7.089896567766    -5.466985377914     0.678351558175     1.007825032230
         H            7.031051029475    -5.542644072008     0.677765210908     1.007825032230
         C           -4.923549501924    -7.078806635352     0.671540194146    12.000000000000
         C           -2.485346267963    -7.087713613604     0.669030301710    12.000000000000
         C           -3.751690071504    -7.763932693311     0.669224980635    12.000000000000
         C           -0.037953136713    -7.099450410144     0.669246026858    12.000000000000
         C           -1.277960280127    -7.772889920342     0.667261334096    12.000000000000
         C            2.409440141001    -7.114007547678     0.670109227669    12.000000000000
         C            1.194745757428    -7.786170901237     0.667956936787    12.000000000000
         C            4.847616872773    -7.131247646254     0.672616042328    12.000000000000
         C            3.668467426150    -7.803773528619     0.670267607964    12.000000000000
         H           -5.869944530142    -7.613816133717     0.673084231012     1.007825032230
         H            5.788245445663    -7.676317724989     0.673743161810     1.007825032230
         H           -3.753531119175    -8.851057104911     0.667389066206     1.007825032230
         H           -1.284308585620    -8.860860928172     0.662833950238     1.007825032230
         H            1.189217394970    -8.874146156264     0.663864300097     1.007825032230
         H            3.658542435098    -8.890846169728     0.668613066542     1.007825032230

  Charge       = 0
  Multiplicity = 1
  Basis Set: JUN-CC-PVDZ
    Blend: JUN-CC-PVDZ
  Basis Set: (JUN-CC-PVDZ AUX)
    Blend: JUN-CC-PVDZ-JKFIT

    Orbital Energies [Eh]
    ---------------------

    Doubly Occupied:

       1A    -11.264060     2A    -11.263746     3A    -11.263743
       4A    -11.263403     5A    -11.263401     6A    -11.263366
       7A    -11.263209     8A    -11.263182     9A    -11.263179
      10A    -11.263023    11A    -11.262863    12A    -11.262859
      13A    -11.262380    14A    -11.262378    15A    -11.262303
      16A    -11.262301    17A    -11.262252    18A    -11.262216
      19A    -11.262171    20A    -11.262132    21A    -11.262130
      22A    -11.261976    23A    -11.261972    24A    -11.261852
      25A    -11.261837    26A    -11.261823    27A    -11.261820
      28A    -11.261772    29A    -11.261765    30A    -11.261692
      31A    -11.261666    32A    -11.261663    33A    -11.261637
      34A    -11.261635    35A    -11.261615    36A    -11.261568
      37A    -11.261426    38A    -11.261415    39A    -11.261409
      40A    -11.261401    41A    -11.261397    42A    -11.261388
      43A    -11.261385    44A    -11.261370    45A    -11.261365
      46A    -11.261343    47A    -11.261339    48A    -11.261334
      49A    -11.261183    50A    -11.261152    51A    -11.261150
      52A    -11.261070    53A    -11.261069    54A    -11.260998
      55A    -11.260028    56A    -11.260015    57A    -11.260012
      58A    -11.259983    59A    -11.259981    60A    -11.259965
      61A    -11.259406    62A    -11.259381    63A    -11.259378
      64A    -11.259326    65A    -11.259324    66A    -11.259295
      67A    -11.259032    68A    -11.259015    69A    -11.259013
      70A    -11.258985    71A    -11.258983    72A    -11.258972
      73A    -11.254599    74A    -11.254597    75A    -11.254596
      76A    -11.254594    77A    -11.254588    78A    -11.254585
      79A    -11.253752    80A    -11.253750    81A    -11.253747
      82A    -11.253746    83A    -11.253743    84A    -11.253737
      85A    -11.253667    86A    -11.253665    87A    -11.253662
      88A    -11.253661    89A    -11.253658    90A    -11.253653
      91A    -11.253126    92A    -11.253125    93A    -11.253124
      94A    -11.253121    95A    -11.253115    96A    -11.253113
      97A     -1.254158    98A     -1.239159    99A     -1.239158
     100A     -1.220599   101A     -1.220595   102A     -1.215630
     103A     -1.201159   104A     -1.195729   105A     -1.188319
     106A     -1.188318   107A     -1.173879   108A     -1.173876
     109A     -1.155792   110A     -1.155788   111A     -1.152899
     112A     -1.144832   113A     -1.144829   114A     -1.128714
     115A     -1.114873   116A     -1.113274   117A     -1.112659
     118A     -1.112646   119A     -1.111722   120A     -1.088575
     121A     -1.088560   122A     -1.077069   123A     -1.077068
     124A     -1.067769   125A     -1.067740   126A     -1.065142
     127A     -1.046933   128A     -1.046926   129A     -1.040623
     130A     -1.038842   131A     -1.038841   132A     -1.025409
     133A     -1.021583   134A     -1.021534   135A     -1.007304
     136A     -1.006950   137A     -1.003924   138A     -1.000651
     139A     -1.000603   140A     -0.991177   141A     -0.971139
     142A     -0.971090   143A     -0.956004   144A     -0.955948
     145A     -0.905781   146A     -0.905740   147A     -0.905649
     148A     -0.905608   149A     -0.904539   150A     -0.892552
     151A     -0.892493   152A     -0.890536   153A     -0.890479
     154A     -0.889609   155A     -0.872332   156A     -0.869144
     157A     -0.851662   158A     -0.848031   159A     -0.848008
     160A     -0.845767   161A     -0.843170   162A     -0.834698
     163A     -0.834685   164A     -0.828224   165A     -0.828220
     166A     -0.784688   167A     -0.784677   168A     -0.783817
     169A     -0.783790   170A     -0.782435   171A     -0.782415
     172A     -0.782201   173A     -0.767123   174A     -0.760974
     175A     -0.750749   176A     -0.733598   177A     -0.727205
     178A     -0.727192   179A     -0.725231   180A     -0.724671
     181A     -0.724653   182A     -0.718678   183A     -0.713939
     184A     -0.713933   185A     -0.699708   186A     -0.699696
     187A     -0.686311   188A     -0.686072   189A     -0.686069
     190A     -0.682295   191A     -0.682285   192A     -0.678933
     193A     -0.653761   194A     -0.651009   195A     -0.650979
     196A     -0.649986   197A     -0.649971   198A     -0.649680
     199A     -0.641106   200A     -0.641079   201A     -0.640205
     202A     -0.639268   203A     -0.636177   204A     -0.636151
     205A     -0.629277   206A     -0.617678   207A     -0.615413
     208A     -0.615393   209A     -0.608927   210A     -0.608920
     211A     -0.599192   212A     -0.599149   213A     -0.598886
     214A     -0.598761   215A     -0.598734   216A     -0.598216
     217A     -0.595181   218A     -0.595168   219A     -0.594855
     220A     -0.594420   221A     -0.592103   222A     -0.592100
     223A     -0.587577   224A     -0.577885   225A     -0.577875
     226A     -0.575739   227A     -0.575736   228A     -0.573502
     229A     -0.569569   230A     -0.568313   231A     -0.568289
     232A     -0.566892   233A     -0.566882   234A     -0.561005
     235A     -0.558871   236A     -0.558852   237A     -0.558522
     238A     -0.554502   239A     -0.550635   240A     -0.547564
     241A     -0.544345   242A     -0.535041   243A     -0.535002
     244A     -0.533665   245A     -0.533642   246A     -0.528191
     247A     -0.528176   248A     -0.527973   249A     -0.517332
     250A     -0.517298   251A     -0.515430   252A     -0.515425
     253A     -0.509753   254A     -0.509737   255A     -0.498149
     256A     -0.496581   257A     -0.496555   258A     -0.493849
     259A     -0.493838   260A     -0.489482   261A     -0.481562
     262A     -0.477493   263A     -0.477490   264A     -0.474114
     265A     -0.469585   266A     -0.466662   267A     -0.466658
     268A     -0.458882   269A     -0.446878   270A     -0.446817
     271A     -0.441107   272A     -0.440832   273A     -0.440808
     274A     -0.434761   275A     -0.433978   276A     -0.407455
     277A     -0.407431   278A     -0.386492   279A     -0.386444
     280A     -0.385803   281A     -0.385801   282A     -0.383837
     283A     -0.354406   284A     -0.354390   285A     -0.350744
     286A     -0.338177   287A     -0.335678   288A     -0.335609
     289A     -0.332785   290A     -0.332779   291A     -0.307172
     292A     -0.302035   293A     -0.301972   294A     -0.300919
     295A     -0.286248   296A     -0.256532   297A     -0.253586
     298A     -0.253533   299A     -0.204343   300A     -0.204253

  @DF-RHF Final Energy: -3650.33753759634874

   => Energetics <=

    Nuclear Repulsion Energy =          15611.4211649754306563
    One-Electron Energy =              -36072.0725054002177785
    Two-Electron Energy =               16810.3138028284411121
    Total Energy =                      -3650.3375375963478291
 Dipole X            :         -0.0009191            0.0002112           -0.0007079
 Dipole Y            :          0.0011239           -0.0013774           -0.0002535
 Dipole Z            :       -760.7232221          760.7235066            0.0002846
 Magnitude           :                                                    0.0008040

    SAPT Results
  --------------------------------------------------------------------------------------------------------
    Electrostatics                 -6.49283254 [mEh]      -4.07431393 [kcal/mol]     -17.04692948 [kJ/mol]
      Elst10,r                     -6.49283254 [mEh]      -4.07431393 [kcal/mol]     -17.04692948 [kJ/mol]

    Exchange                       -0.00007631 [mEh]      -0.00004789 [kcal/mol]      -0.00020036 [kJ/mol]
      Exch10                       -0.00007631 [mEh]      -0.00004789 [kcal/mol]      -0.00020036 [kJ/mol]
      Exch10(S^2)                  -0.00007631 [mEh]      -0.00004789 [kcal/mol]      -0.00020036 [kJ/mol]

    Induction                      -1.77279941 [mEh]      -1.11244843 [kcal/mol]      -4.65448421 [kJ/mol]
      Ind20,r                      -1.75439761 [mEh]      -1.10090112 [kcal/mol]      -4.60617030 [kJ/mol]
      Exch-Ind20,r                  0.00002942 [mEh]       0.00001846 [kcal/mol]       0.00007724 [kJ/mol]
      delta HF,r (2)               -0.01843122 [mEh]      -0.01156576 [kcal/mol]      -0.04839115 [kJ/mol]

    Dispersion                     -0.61161338 [mEh]      -0.38379319 [kcal/mol]      -1.60579071 [kJ/mol]
      Disp20                       -0.61162600 [mEh]      -0.38380111 [kcal/mol]      -1.60582385 [kJ/mol]
      Exch-Disp20                   0.00001262 [mEh]       0.00000792 [kcal/mol]       0.00003314 [kJ/mol]
      Disp20 (SS)                  -0.30581300 [mEh]      -0.19190056 [kcal/mol]      -0.80291193 [kJ/mol]
      Disp20 (OS)                  -0.30581300 [mEh]      -0.19190056 [kcal/mol]      -0.80291193 [kJ/mol]
      Exch-Disp20 (SS)              0.00000918 [mEh]       0.00000576 [kcal/mol]       0.00002411 [kJ/mol]
      Exch-Disp20 (OS)              0.00000344 [mEh]       0.00000216 [kcal/mol]       0.00000902 [kJ/mol]

  Total HF                         -8.26570826 [mEh]      -5.18681024 [kcal/mol]     -21.70161405 [kJ/mol]
  Total SAPT0                      -8.87732164 [mEh]      -5.57060343 [kcal/mol]     -23.30740477 [kJ/mol]

  Special recipe for scaled SAPT0 (see Manual):
    Electrostatics sSAPT0          -6.49283254 [mEh]      -4.07431393 [kcal/mol]     -17.04692948 [kJ/mol]
    Exchange sSAPT0                -0.00007631 [mEh]      -0.00004789 [kcal/mol]      -0.00020036 [kJ/mol]
    Induction sSAPT0               -1.77279941 [mEh]      -1.11244843 [kcal/mol]      -4.65448421 [kJ/mol]
    Dispersion sSAPT0              -0.61161338 [mEh]      -0.38379319 [kcal/mol]      -1.60579071 [kJ/mol]
  Total sSAPT0                     -8.87732164 [mEh]      -5.57060343 [kcal/mol]     -23.30740477 [kJ/mol]
  --------------------------------------------------------------------------------------------------------

*** Psi4 exiting successfully. Buy a developer a beer!
