                               Psi4 1.9 release

  ==> Input File <==

--------------------------------------------------------------------------
memory 32 GB # how much memory is available ! Depends on the nodes/cores !

molecule dimer {
# monomer A
+1 1    # Charge and multiplicity
C  0.680067 1.417258 -5.015929
C -0.680504 1.419286 -5.015545
N -1.085635 1.420284 -3.697221
C  0.000108 1.423560 -2.915820
C -2.477365 1.469690 -3.229242
N  1.085222 1.420284 -3.697221
H  1.385146 1.409430 -5.833368
H -1.385302 1.419096 -5.833214
H -0.000009 1.425307 -1.834731
C  2.478117 1.403392 -3.232123
H  2.490592 1.430737 -2.141870
H  2.967028 0.489946 -3.579299
H  3.001428 2.278875 -3.623595
H -2.857359 2.491761 -3.309201
H -3.082679 0.799606 -3.842306
H -2.518128 1.142706 -2.189294
--
# monomer B
0 1     # Charge and multiplicity
C   1.22531237526482      0.70753866091955      0.00613762728373
C   1.22532433589282     -0.70753852257020     -0.00619318228664
C   -0.00000567409046      1.41496628609039     -0.00672680580738
C   2.45644923379077      1.41832825917820      0.00902448468363
C   0.00001130712078     -1.41497612663474      0.00347275151708
C   -1.22530046906674      0.70754574598412      0.00838914760619
C   2.45643823516184     -1.41832293188077     -0.00843833914343
C   -0.00000085313587      2.83680140328112     -0.00913035594137
C   3.68182717731192      0.70931832800114     -0.00808954934571
C   2.45512052870677      2.83422403348893     -0.00819210630633
C   3.68182158506039     -0.70933346742900      0.00798293467272
C   -1.22531311884624     -0.70752714354401     -0.00512042085974
C   1.22670006104402      3.54346985599427      0.00816696660346
C   0.00000526469929     -2.83678176723568      0.00832091913869
C   -2.45643555300670      1.41831729028492      0.00842454345199
C   2.45512389762097     -2.83422965658853      0.00783102630520
C   -1.22671388474763      3.54346943575023      0.00827029982280
C   4.91451777504333      1.42717324448953     -0.00160886631602
C   3.69315067131765      3.54279566454522     -0.00155906667985
C   -2.45643712022637     -1.41831290883911     -0.00846337726810
C   1.22670532178455     -3.54347386990643     -0.00780316414624
C   -2.45512491866593      2.83421703463423     -0.00818572995999
C   4.91452486062398     -1.42718653794377      0.00136387641845
C   1.22142509354026      4.97013443726031      0.00150231067809
C   4.89300870916237      2.82518837202648     -0.00039219795739
C   -1.22669652864725     -3.54347062507680     -0.00753595973677
C   -3.68181849668397      0.70932533873199     -0.00807686886569
C   3.69314758099218     -3.54280096939050      0.00148176697923
C   -1.22143177215231      4.97012866986289      0.00168580605083
C   6.13477145276790      0.68054831910577     -0.00083909176631
C   3.65678936045204      4.97295361556775     -0.00065042889723
C   -2.45512642789169     -2.83421472106065      0.00758666850712
C   -3.68181869921921     -0.70932533146830      0.00810055625144
C   4.89301309775526     -2.82519973363176      0.00021895393805
C   -0.00000059327114      5.65044773803267      0.00045449734393
C   6.13477559217374     -0.68055448207492      0.00042622874941
C   2.47813196269732      5.65357712333155      0.00063835075260
C   1.22142288457925     -4.97012668293268     -0.00129718634452
C   -3.69316190412301      3.54279732619245     -0.00139355922051
C   -1.22142804110313     -4.97011793159564     -0.00140994817719
C   -4.91452132810043      1.42717581899491     -0.00153192130862
C   3.65678749952045     -4.97295485423912      0.00080007163680
C   -2.47813805026426      5.65357479452875      0.00092287576113
C   -3.69314125872231     -3.54278984697859      0.00136564082345
C   -4.91451200321153     -1.42718062802730      0.00139857359209
C   -0.00000552908399     -5.65043791501335      0.00005899322272
C   -4.89302000425900      2.82518897091939     -0.00040227981744
C   2.47812647313991     -5.65357317188818     -0.00029052915548
C   -3.65679823041642      4.97295655404175     -0.00047374852278
C   -4.89299899901461     -2.82519139505969      0.00006491824035
C   -2.47812801824129     -5.65356579800621     -0.00056571680280
C   -6.13477002348955      0.68054913825639     -0.00086464346868
C   -3.65678835334731     -4.97294365097028      0.00058578382008
C   -6.13476456307132     -0.68055354348201      0.00040575295444
H   5.83528897565761      3.36927626695423      0.00396712770529
H   7.07385965258860      1.22821762089947     -0.00037744837300
H   4.60066374401555      5.51238117445323     -0.00014522814529
H   5.83528386714679     -3.36930568472863     -0.00423551337640
H   -0.00001167146422      6.73853104613662     -0.00389474766392
H   7.07386165167227     -1.22822657074368     -0.00008250934481
H   2.47331421164041      6.74068466339473      0.00017162982210
H   4.60066897122302     -5.51237575717576      0.00039007446835
H   -2.47331820069565      6.74068209160650      0.00047297644710
H   -0.00000978838621     -6.73852780445195      0.00458867820736
H   -5.83530143450167      3.36927132229595      0.00410314985360
H   2.47330840367253     -6.74068500242887      0.00027980126949
H   -4.60067436136587      5.51237839860371      0.00002010017831
H   -5.83527902699321     -3.36928859177951     -0.00451481925734
H   -2.47329986759855     -6.74067870613986     -0.00016951527498
H   -7.07385728692578      1.22822084484047     -0.00046143985387
H   -4.60067330624313     -5.51236229778631      0.00021776644566
H   -7.07385645456741     -1.22822025997701     -0.00017736581114

    units angstrom      # Angstroms are the default
    no_reorient         # Geometry fixed, default
    symmetry c1         # C1 symmetry, default
}

set {
    scf_type DF         # Density fitting, faster than exact integrals
    freeze_core True    # Freeze core electrons
    basis jun-cc-pVDZ   # Jun-cc-pVDZ basis set, recommended for sSAPT0 in https://doi.org/10.1063/1.4867135
}

energy('ssapt0')        # Compute sSAPT0 energy, includes also SAPT0
--------------------------------------------------------------------------

  //              Dimer HF             //
    Molecular point group: c1
  Charge       = 1
  Multiplicity = 1
  Basis Set: JUN-CC-PVDZ
    Blend: JUN-CC-PVDZ
  Basis Set: (JUN-CC-PVDZ AUX)
    Blend: JUN-CC-PVDZ-JKFIT
  @DF-RHF Final Energy: -2359.18198733922873
    Total Energy =                      -2359.1819873392287263
 Dipole X            :          0.0002501            0.0006313            0.0008814
 Dipole Y            :         -6.2603479            7.4856329            1.2252851
 Dipole Z            :         14.0553083          -17.9213990           -3.8660907
 Magnitude           :                                                    4.0556111
  //            Monomer A HF           //
    Molecular point group: c1
  Multiplicity = 1
  Basis Set: JUN-CC-PVDZ
    Blend: JUN-CC-PVDZ
  Basis Set: (JUN-CC-PVDZ AUX)
    Blend: JUN-CC-PVDZ-JKFIT
  @DF-RHF Final Energy:  -303.29866942541418
    Total Energy =                       -303.2986694254141753
  //            Monomer B HF           //
    Molecular point group: c1

    Geometry (in Angstrom), charge = 0, multiplicity = 1:

       Center              X                  Y                   Z               Mass
    ------------   -----------------  -----------------  -----------------  -----------------
      Gh(C)           0.680066520158     1.235968212970    -4.532594585639    12.000000000000
      Gh(C)          -0.680504479842     1.237996212970    -4.532210585639    12.000000000000
      Gh(N)          -1.085635479842     1.238994212970    -3.213886585639    14.003074004430
      Gh(C)           0.000107520158     1.242270212970    -2.432485585639    12.000000000000
      Gh(C)          -2.477365479842     1.288400212970    -2.745907585639    12.000000000000
      Gh(N)           1.085221520158     1.238994212970    -3.213886585639    14.003074004430
      Gh(H)           1.385145520158     1.228140212970    -5.350033585639     1.007825032230
      Gh(H)          -1.385302479842     1.237806212970    -5.349879585639     1.007825032230
      Gh(H)          -0.000009479842     1.244017212970    -1.351396585639     1.007825032230
      Gh(C)           2.478116520158     1.222102212970    -2.748788585639    12.000000000000
      Gh(H)           2.490591520158     1.249447212970    -1.658535585639     1.007825032230
      Gh(H)           2.967027520158     0.308656212970    -3.095964585639     1.007825032230
      Gh(H)           3.001427520158     2.097585212970    -3.140260585639     1.007825032230
      Gh(H)          -2.857359479842     2.310471212970    -2.825866585639     1.007825032230
      Gh(H)          -3.082679479842     0.618316212970    -3.358971585639     1.007825032230
      Gh(H)          -2.518128479842     0.961416212970    -1.705959585639     1.007825032230
         C            1.225311895423     0.526248873889     0.489472041644    12.000000000000
         C            1.225323856051    -0.888828309601     0.477141232074    12.000000000000
         C           -0.000006153932     1.233676499060     0.476607608553    12.000000000000
         C            2.456448753949     1.237038472148     0.492358899044    12.000000000000
         C            0.000010827279    -1.596265913665     0.486807165878    12.000000000000
         C           -1.225300948908     0.526255958954     0.491723561967    12.000000000000
         C            2.456437755320    -1.599612718911     0.474896075217    12.000000000000
         C           -0.000001332978     2.655511616251     0.474204058419    12.000000000000
         C            3.681826697470     0.528028540971     0.475244865015    12.000000000000
         C            2.455120048865     2.652934246459     0.475142308054    12.000000000000
         C            3.681821105219    -0.890623254459     0.491317349033    12.000000000000
         C           -1.225313598688    -0.888816930574     0.478213993501    12.000000000000
         C            1.226699581202     3.362180068964     0.491501380964    12.000000000000
         C            0.000004784858    -3.018071554266     0.491655333499    12.000000000000
         C           -2.456436032848     1.237027503255     0.491758957813    12.000000000000
         C            2.455123417779    -3.015519443619     0.491165440666    12.000000000000
         C           -1.226714364589     3.362179648720     0.491604714183    12.000000000000
         C            4.914517295202     1.245883457459     0.481725548045    12.000000000000
         C            3.693150191476     3.361505877515     0.481775347681    12.000000000000
         C           -2.456437600068    -1.599602695869     0.474871037093    12.000000000000
         C            1.226704841943    -3.724763656937     0.475531250214    12.000000000000
         C           -2.455125398508     2.652927247604     0.475148684401    12.000000000000
         C            4.914524380782    -1.608476324974     0.484698290779    12.000000000000
         C            1.221424613699     4.788844650230     0.484836725039    12.000000000000
         C            4.893008229321     2.643898584996     0.482942216403    12.000000000000
         C           -1.226697008489    -3.724760412107     0.475798454624    12.000000000000
         C           -3.681818976526     0.528035551702     0.475257545495    12.000000000000
         C            3.693147101150    -3.724090756421     0.484816181340    12.000000000000
         C           -1.221432251994     4.788838882833     0.485020220411    12.000000000000
         C            6.134770972926     0.499258532075     0.482495322594    12.000000000000
         C            3.656788880610     4.791663828537     0.482683985463    12.000000000000
         C           -2.455126907733    -3.015504508091     0.490921082868    12.000000000000
         C           -3.681819179061    -0.890615118499     0.491434970612    12.000000000000
         C            4.893012617914    -3.006489520662     0.483553368299    12.000000000000
         C           -0.000001073113     5.469157951002     0.483788911705    12.000000000000
         C            6.134775112332    -0.861844269105     0.483760643110    12.000000000000
         C            2.478131482856     5.472287336301     0.483972765113    12.000000000000
         C            1.221422404738    -5.151416469963     0.482037228016    12.000000000000
         C           -3.693162383965     3.361507539162     0.481940855140    12.000000000000
         C           -1.221428520945    -5.151407718626     0.481924466183    12.000000000000
         C           -4.914521807942     1.245886031965     0.481802493052    12.000000000000
         C            3.656787019679    -5.154244641269     0.484134485997    12.000000000000
         C           -2.478138530106     5.472285007498     0.484257290122    12.000000000000
         C           -3.693141738564    -3.724079634009     0.484700055184    12.000000000000
         C           -4.914512483053    -1.608470415058     0.484732987953    12.000000000000
         C           -0.000006008926    -5.831727702044     0.483393407583    12.000000000000
         C           -4.893020484101     2.643899183889     0.482932134543    12.000000000000
         C            2.478125993298    -5.834862958919     0.483043885205    12.000000000000
         C           -3.656798710258     4.791666767011     0.482860665838    12.000000000000
         C           -4.892999478856    -3.006481182090     0.483399332601    12.000000000000
         C           -2.478128498083    -5.834855585037     0.482768697558    12.000000000000
         C           -6.134770503331     0.499259351226     0.482469770892    12.000000000000
         C           -3.656788833189    -5.154233438001     0.483920198181    12.000000000000
         C           -6.134765042913    -0.861843330512     0.483740167315    12.000000000000
         H            5.835288495816     3.187986479924     0.487301542066     1.007825032230
         H            7.073859172747     1.046927833869     0.482956965988     1.007825032230
         H            4.600663264174     5.331091387423     0.483189186215     1.007825032230
         H            5.835283387305    -3.550595471759     0.479098900984     1.007825032230
         H           -0.000012151306     6.557241259106     0.479439666697     1.007825032230
         H            7.073861171831    -1.409516357774     0.483251905016     1.007825032230
         H            2.473313731799     6.559394876364     0.483506044183     1.007825032230
         H            4.600668491381    -5.693665544206     0.483724488829     1.007825032230
         H           -2.473318680537     6.559392304576     0.483807390808     1.007825032230
         H           -0.000010268228    -6.919817591482     0.487923092568     1.007825032230
         H           -5.835301914343     3.187981535266     0.487437564214     1.007825032230
         H            2.473307923831    -6.921974789459     0.483614215630     1.007825032230
         H           -4.600674841208     5.331088611573     0.483354514539     1.007825032230
         H           -5.835279506835    -3.550578378810     0.478819595103     1.007825032230
         H           -2.473300347440    -6.921968493170     0.483164899086     1.007825032230
         H           -7.073857766768     1.046931057810     0.482872974507     1.007825032230
         H           -4.600673786085    -5.693652084817     0.483552180806     1.007825032230
         H           -7.073856934409    -1.409510047007     0.483157048550     1.007825032230

  Charge       = 0
  Multiplicity = 1
  Basis Set: JUN-CC-PVDZ
    Blend: JUN-CC-PVDZ
  Basis Set: (JUN-CC-PVDZ AUX)
    Blend: JUN-CC-PVDZ-JKFIT

    Orbital Energies [Eh]
    ---------------------

    Doubly Occupied:

       1A    -11.260608     2A    -11.260093     3A    -11.260082
       4A    -11.259467     5A    -11.259383     6A    -11.259171
       7A    -11.259007     8A    -11.258933     9A    -11.258841
      10A    -11.258567    11A    -11.258519    12A    -11.258439
      13A    -11.258386    14A    -11.258374    15A    -11.258368
      16A    -11.258349    17A    -11.258336    18A    -11.258323
      19A    -11.258314    20A    -11.258293    21A    -11.258286
      22A    -11.258245    23A    -11.258218    24A    -11.257935
      25A    -11.257257    26A    -11.257214    27A    -11.257169
      28A    -11.257073    29A    -11.257057    30A    -11.256964
      31A    -11.256350    32A    -11.256291    33A    -11.256272
      34A    -11.256174    35A    -11.256168    36A    -11.256092
      37A    -11.252205    38A    -11.252202    39A    -11.252173
      40A    -11.252157    41A    -11.252131    42A    -11.252115
      43A    -11.251316    44A    -11.251300    45A    -11.251284
      46A    -11.251272    47A    -11.251270    48A    -11.251215
      49A    -11.250766    50A    -11.250762    51A    -11.250733
      52A    -11.250717    53A    -11.250691    54A    -11.250675
      55A     -1.243833    56A     -1.219610    57A     -1.219599
      58A     -1.189349    59A     -1.189340    60A     -1.180725
      61A     -1.157378    62A     -1.148791    63A     -1.135282
      64A     -1.135263    65A     -1.113016    66A     -1.113009
      67A     -1.082221    68A     -1.082210    69A     -1.078389
      70A     -1.065808    71A     -1.065801    72A     -1.039201
      73A     -1.024048    74A     -1.021540    75A     -1.021489
      76A     -1.017549    77A     -1.012627    78A     -0.986817
      79A     -0.986759    80A     -0.961697    81A     -0.961643
      82A     -0.894095    83A     -0.894074    84A     -0.887699
      85A     -0.885941    86A     -0.885903    87A     -0.881176
      88A     -0.881128    89A     -0.861706    90A     -0.837244
      91A     -0.818007    92A     -0.816385    93A     -0.811916
      94A     -0.811910    95A     -0.794502    96A     -0.794490
      97A     -0.746388    98A     -0.744633    99A     -0.733196
     100A     -0.733182   101A     -0.731990   102A     -0.731968
     103A     -0.716279   104A     -0.698782   105A     -0.698752
     106A     -0.693383   107A     -0.693347   108A     -0.661039
     109A     -0.652887   110A     -0.650925   111A     -0.650069
     112A     -0.650062   113A     -0.639171   114A     -0.639152
     115A     -0.629499   116A     -0.627297   117A     -0.627290
     118A     -0.606428   119A     -0.605659   120A     -0.601431
     121A     -0.599548   122A     -0.599489   123A     -0.593412
     124A     -0.590981   125A     -0.590951   126A     -0.585112
     127A     -0.576432   128A     -0.576322   129A     -0.567147
     130A     -0.567125   131A     -0.565733   132A     -0.565721
     133A     -0.558497   134A     -0.554657   135A     -0.554653
     136A     -0.538403   137A     -0.538401   138A     -0.538159
     139A     -0.538143   140A     -0.529507   141A     -0.528096
     142A     -0.522678   143A     -0.522651   144A     -0.500315
     145A     -0.495531   146A     -0.493042   147A     -0.487764
     148A     -0.484850   149A     -0.481537   150A     -0.481535
     151A     -0.470265   152A     -0.470250   153A     -0.450774
     154A     -0.450704   155A     -0.438993   156A     -0.438962
     157A     -0.404647   158A     -0.404632   159A     -0.403265
     160A     -0.375321   161A     -0.375317   162A     -0.349014
     163A     -0.337465   164A     -0.336406   165A     -0.336373
     166A     -0.310992   167A     -0.297992   168A     -0.284210
     169A     -0.284155   170A     -0.224782   171A     -0.224723

  @DF-RHF Final Energy: -2055.89592429856702

   => Energetics <=

    Nuclear Repulsion Energy =           6452.5568002797781446
    One-Electron Energy =              -15636.5389810488431976
    Two-Electron Energy =                7128.0862564704975739
    Total Energy =                      -2055.8959242985665696
 Dipole X            :          0.0011909           -0.0000085            0.0011824
 Dipole Y            :        117.1720126         -117.1648546            0.0071580
 Dipole Z            :       -312.3719661          312.3709842           -0.0009819
 Magnitude           :                                                    0.0073211

    SAPT Results
  --------------------------------------------------------------------------------------------------------
    Electrostatics                -34.57899297 [mEh]     -21.69864568 [kcal/mol]     -90.78713354 [kJ/mol]
      Elst10,r                    -34.57899297 [mEh]     -21.69864568 [kcal/mol]     -90.78713354 [kJ/mol]

    Exchange                       81.04082992 [mEh]      50.85388854 [kcal/mol]     212.77266964 [kJ/mol]
      Exch10                       81.04082992 [mEh]      50.85388854 [kcal/mol]     212.77266964 [kJ/mol]
      Exch10(S^2)                  79.31101178 [mEh]      49.76841127 [kcal/mol]     208.23103275 [kJ/mol]

    Induction                     -33.85545219 [mEh]     -21.24461699 [kcal/mol]     -88.88747749 [kJ/mol]
      Ind20,r                     -46.22916407 [mEh]     -29.00923842 [kcal/mol]    -121.37465354 [kJ/mol]
      Exch-Ind20,r                 24.29643438 [mEh]      15.24624275 [kcal/mol]      63.79027969 [kJ/mol]
      delta HF,r (2)              -11.92272251 [mEh]      -7.48162133 [kcal/mol]     -31.30310364 [kJ/mol]

    Dispersion                    -41.76390653 [mEh]     -26.20724701 [kcal/mol]    -109.65112148 [kJ/mol]
      Disp20                      -46.78327409 [mEh]     -29.35694770 [kcal/mol]    -122.82946920 [kJ/mol]
      Exch-Disp20                   5.01936756 [mEh]       3.14970070 [kcal/mol]      13.17834772 [kJ/mol]
      Disp20 (SS)                 -23.39163704 [mEh]     -14.67847385 [kcal/mol]     -61.41473460 [kJ/mol]
      Disp20 (OS)                 -23.39163704 [mEh]     -14.67847385 [kcal/mol]     -61.41473460 [kJ/mol]
      Exch-Disp20 (SS)              3.08104912 [mEh]       1.93338751 [kcal/mol]       8.08929334 [kJ/mol]
      Exch-Disp20 (OS)              1.93831845 [mEh]       1.21631319 [kcal/mol]       5.08905438 [kJ/mol]

  Total HF                         12.60638475 [mEh]       7.91062586 [kcal/mol]      33.09805861 [kJ/mol]
  Total SAPT0                     -29.15752178 [mEh]     -18.29662115 [kcal/mol]     -76.55306287 [kJ/mol]

  Special recipe for scaled SAPT0 (see Manual):
    Electrostatics sSAPT0         -34.57899297 [mEh]     -21.69864568 [kcal/mol]     -90.78713354 [kJ/mol]
    Exchange sSAPT0                81.04082992 [mEh]      50.85388854 [kcal/mol]     212.77266964 [kJ/mol]
    Induction sSAPT0              -32.23076958 [mEh]     -20.22511326 [kcal/mol]     -84.62187388 [kJ/mol]
    Dispersion sSAPT0             -41.42826554 [mEh]     -25.99662911 [kcal/mol]    -108.76989619 [kJ/mol]
  Total sSAPT0                    -27.19719818 [mEh]     -17.06649952 [kcal/mol]     -71.40623398 [kJ/mol]
  --------------------------------------------------------------------------------------------------------

*** Psi4 exiting successfully. Buy a developer a beer!
