                               Psi4 1.9 release

  ==> Input File <==

--------------------------------------------------------------------------
memory 32 GB # how much memory is available ! Depends on the nodes/cores !

molecule dimer {
# monomer A
+1 1    # Charge and multiplicity
C  0.680067 -1.215929 2.208042
C -0.680504 -1.215545 2.206014
N -1.085635  0.102779 2.205016
C  0.000108  0.884180 2.201740
C -2.477365  0.570758 2.155610
N  1.085222  0.102779 2.205016
H  1.385146 -2.033368 2.215870
H -1.385302 -2.033214 2.206204
H -0.000009  1.965269 2.199993
C  2.478117  0.567877 2.221908
H  2.490592  1.658130 2.194563
H  2.967028  0.220701 3.135354
H  3.001428  0.176405 1.346425
H -2.857359  0.490799 1.133539
H -3.082679 -0.042306 2.825694
H -2.518128  1.610706 2.482594
--
# monomer B
0 1     # Charge and multiplicity
C   1.22531237526482      0.70753866091955      0.00613762728373
C   1.22532433589282     -0.70753852257020     -0.00619318228664
C   -0.00000567409046      1.41496628609039     -0.00672680580738
C   2.45644923379077      1.41832825917820      0.00902448468363
C   0.00001130712078     -1.41497612663474      0.00347275151708
C   -1.22530046906674      0.70754574598412      0.00838914760619
C   2.45643823516184     -1.41832293188077     -0.00843833914343
C   -0.00000085313587      2.83680140328112     -0.00913035594137
C   3.68182717731192      0.70931832800114     -0.00808954934571
C   2.45512052870677      2.83422403348893     -0.00819210630633
C   3.68182158506039     -0.70933346742900      0.00798293467272
C   -1.22531311884624     -0.70752714354401     -0.00512042085974
C   1.22670006104402      3.54346985599427      0.00816696660346
C   0.00000526469929     -2.83678176723568      0.00832091913869
C   -2.45643555300670      1.41831729028492      0.00842454345199
C   2.45512389762097     -2.83422965658853      0.00783102630520
C   -1.22671388474763      3.54346943575023      0.00827029982280
C   4.91451777504333      1.42717324448953     -0.00160886631602
C   3.69315067131765      3.54279566454522     -0.00155906667985
C   -2.45643712022637     -1.41831290883911     -0.00846337726810
C   1.22670532178455     -3.54347386990643     -0.00780316414624
C   -2.45512491866593      2.83421703463423     -0.00818572995999
C   4.91452486062398     -1.42718653794377      0.00136387641845
C   1.22142509354026      4.97013443726031      0.00150231067809
C   4.89300870916237      2.82518837202648     -0.00039219795739
C   -1.22669652864725     -3.54347062507680     -0.00753595973677
C   -3.68181849668397      0.70932533873199     -0.00807686886569
C   3.69314758099218     -3.54280096939050      0.00148176697923
C   -1.22143177215231      4.97012866986289      0.00168580605083
C   6.13477145276790      0.68054831910577     -0.00083909176631
C   3.65678936045204      4.97295361556775     -0.00065042889723
C   -2.45512642789169     -2.83421472106065      0.00758666850712
C   -3.68181869921921     -0.70932533146830      0.00810055625144
C   4.89301309775526     -2.82519973363176      0.00021895393805
C   -0.00000059327114      5.65044773803267      0.00045449734393
C   6.13477559217374     -0.68055448207492      0.00042622874941
C   2.47813196269732      5.65357712333155      0.00063835075260
C   1.22142288457925     -4.97012668293268     -0.00129718634452
C   -3.69316190412301      3.54279732619245     -0.00139355922051
C   -1.22142804110313     -4.97011793159564     -0.00140994817719
C   -4.91452132810043      1.42717581899491     -0.00153192130862
C   3.65678749952045     -4.97295485423912      0.00080007163680
C   -2.47813805026426      5.65357479452875      0.00092287576113
C   -3.69314125872231     -3.54278984697859      0.00136564082345
C   -4.91451200321153     -1.42718062802730      0.00139857359209
C   -0.00000552908399     -5.65043791501335      0.00005899322272
C   -4.89302000425900      2.82518897091939     -0.00040227981744
C   2.47812647313991     -5.65357317188818     -0.00029052915548
C   -3.65679823041642      4.97295655404175     -0.00047374852278
C   -4.89299899901461     -2.82519139505969      0.00006491824035
C   -2.47812801824129     -5.65356579800621     -0.00056571680280
C   -6.13477002348955      0.68054913825639     -0.00086464346868
C   -3.65678835334731     -4.97294365097028      0.00058578382008
C   -6.13476456307132     -0.68055354348201      0.00040575295444
H   5.83528897565761      3.36927626695423      0.00396712770529
H   7.07385965258860      1.22821762089947     -0.00037744837300
H   4.60066374401555      5.51238117445323     -0.00014522814529
H   5.83528386714679     -3.36930568472863     -0.00423551337640
H   -0.00001167146422      6.73853104613662     -0.00389474766392
H   7.07386165167227     -1.22822657074368     -0.00008250934481
H   2.47331421164041      6.74068466339473      0.00017162982210
H   4.60066897122302     -5.51237575717576      0.00039007446835
H   -2.47331820069565      6.74068209160650      0.00047297644710
H   -0.00000978838621     -6.73852780445195      0.00458867820736
H   -5.83530143450167      3.36927132229595      0.00410314985360
H   2.47330840367253     -6.74068500242887      0.00027980126949
H   -4.60067436136587      5.51237839860371      0.00002010017831
H   -5.83527902699321     -3.36928859177951     -0.00451481925734
H   -2.47329986759855     -6.74067870613986     -0.00016951527498
H   -7.07385728692578      1.22822084484047     -0.00046143985387
H   -4.60067330624313     -5.51236229778631      0.00021776644566
H   -7.07385645456741     -1.22822025997701     -0.00017736581114

    units angstrom      # Angstroms are the default
    no_reorient         # Geometry fixed, default
    symmetry c1         # C1 symmetry, default
}

set {
    scf_type DF         # Density fitting, faster than exact integrals
    freeze_core True    # Freeze core electrons
    basis jun-cc-pVDZ   # Jun-cc-pVDZ basis set, recommended for sSAPT0 in https://doi.org/10.1063/1.4867135
}

energy('ssapt0')        # Compute sSAPT0 energy, includes also SAPT0
--------------------------------------------------------------------------

  //              Dimer HF             //
    Molecular point group: c1
  Charge       = 1
  Multiplicity = 1
  Basis Set: JUN-CC-PVDZ
    Blend: JUN-CC-PVDZ
  Basis Set: (JUN-CC-PVDZ AUX)
    Blend: JUN-CC-PVDZ-JKFIT
  @DF-RHF Final Energy: -2358.72156072065536
    Total Energy =                      -2358.7215607206544519
 Dipole X            :          0.0254343            0.0006313            0.0260656
 Dipole Y            :         -1.9280289            1.8864948           -0.0415341
 Dipole Z            :         -9.6434340           11.4120059            1.7685719
 Magnitude           :                                                    1.7692515
  //            Monomer A HF           //
    Molecular point group: c1
  Multiplicity = 1
  Basis Set: JUN-CC-PVDZ
    Blend: JUN-CC-PVDZ
  Basis Set: (JUN-CC-PVDZ AUX)
    Blend: JUN-CC-PVDZ-JKFIT
  @DF-RHF Final Energy:  -303.30164434317885
    Total Energy =                       -303.3016443431788502
  //            Monomer B HF           //
    Molecular point group: c1

    Geometry (in Angstrom), charge = 0, multiplicity = 1:

       Center              X                  Y                   Z               Mass
    ------------   -----------------  -----------------  -----------------  -----------------
      Gh(C)           0.680066520158    -1.215933861162     1.928217678563    12.000000000000
      Gh(C)          -0.680504479842    -1.215549861162     1.926189678563    12.000000000000
      Gh(N)          -1.085635479842     0.102774138838     1.925191678563    14.003074004430
      Gh(C)           0.000107520158     0.884175138838     1.921915678563    12.000000000000
      Gh(C)          -2.477365479842     0.570753138838     1.875785678563    12.000000000000
      Gh(N)           1.085221520158     0.102774138838     1.925191678563    14.003074004430
      Gh(H)           1.385145520158    -2.033372861162     1.936045678563     1.007825032230
      Gh(H)          -1.385302479842    -2.033218861162     1.926379678563     1.007825032230
      Gh(H)          -0.000009479842     1.965264138838     1.920168678563     1.007825032230
      Gh(C)           2.478116520158     0.567872138838     1.942083678563    12.000000000000
      Gh(H)           2.490591520158     1.658125138838     1.914738678563     1.007825032230
      Gh(H)           2.967027520158     0.220696138838     2.855529678563     1.007825032230
      Gh(H)           3.001427520158     0.176400138838     1.066600678563     1.007825032230
      Gh(H)          -2.857359479842     0.490794138838     0.853714678563     1.007825032230
      Gh(H)          -3.082679479842    -0.042310861162     2.545869678563     1.007825032230
      Gh(H)          -2.518128479842     1.610701138838     2.202769678563     1.007825032230
         C            1.225311895423     0.707533799757    -0.273686694153    12.000000000000
         C            1.225323856051    -0.707543383733    -0.286017503723    12.000000000000
         C           -0.000006153932     1.414961424928    -0.286551127244    12.000000000000
         C            2.456448753949     1.418323398016    -0.270799836753    12.000000000000
         C            0.000010827279    -1.414980987797    -0.276351569920    12.000000000000
         C           -1.225300948908     0.707540884822    -0.271435173830    12.000000000000
         C            2.456437755320    -1.418327793043    -0.288262660580    12.000000000000
         C           -0.000001332978     2.836796542119    -0.288954677378    12.000000000000
         C            3.681826697470     0.709313466839    -0.287913870782    12.000000000000
         C            2.455120048865     2.834219172327    -0.288016427743    12.000000000000
         C            3.681821105219    -0.709338328591    -0.271841386764    12.000000000000
         C           -1.225313598688    -0.707532004706    -0.284944742296    12.000000000000
         C            1.226699581202     3.543464994832    -0.271657354833    12.000000000000
         C            0.000004784858    -2.836786628398    -0.271503402298    12.000000000000
         C           -2.456436032848     1.418312429123    -0.271399777985    12.000000000000
         C            2.455123417779    -2.834234517751    -0.271993295131    12.000000000000
         C           -1.226714364589     3.543464574588    -0.271554021614    12.000000000000
         C            4.914517295202     1.427168383327    -0.281433187753    12.000000000000
         C            3.693150191476     3.542790803383    -0.281383388116    12.000000000000
         C           -2.456437600068    -1.418317770001    -0.288287698705    12.000000000000
         C            1.226704841943    -3.543478731069    -0.287627485583    12.000000000000
         C           -2.455125398508     2.834212173472    -0.288010051397    12.000000000000
         C            4.914524380782    -1.427191399106    -0.278460445018    12.000000000000
         C            1.221424613699     4.970129576098    -0.278322010759    12.000000000000
         C            4.893008229321     2.825183510864    -0.280216519394    12.000000000000
         C           -1.226697008489    -3.543475486239    -0.287360281173    12.000000000000
         C           -3.681818976526     0.709320477570    -0.287901190302    12.000000000000
         C            3.693147101150    -3.542805830553    -0.278342554457    12.000000000000
         C           -1.221432251994     4.970123808701    -0.278138515386    12.000000000000
         C            6.134770972926     0.680543457943    -0.280663413203    12.000000000000
         C            3.656788880610     4.972948754405    -0.280474750334    12.000000000000
         C           -2.455126907733    -2.834219582223    -0.272237652930    12.000000000000
         C           -3.681819179061    -0.709330192631    -0.271723765185    12.000000000000
         C            4.893012617914    -2.825204594794    -0.279605367499    12.000000000000
         C           -0.000001073113     5.650442876870    -0.279369824093    12.000000000000
         C            6.134775112332    -0.680559343237    -0.279398092687    12.000000000000
         C            2.478131482856     5.653572262169    -0.279185970684    12.000000000000
         C            1.221422404738    -4.970131544095    -0.281121507781    12.000000000000
         C           -3.693162383965     3.542792465030    -0.281217880657    12.000000000000
         C           -1.221428520945    -4.970122792758    -0.281234269614    12.000000000000
         C           -4.914521807942     1.427170957833    -0.281356242745    12.000000000000
         C            3.656787019679    -4.972959715401    -0.279024249800    12.000000000000
         C           -2.478138530106     5.653569933366    -0.278901445676    12.000000000000
         C           -3.693141738564    -3.542794708141    -0.278458680613    12.000000000000
         C           -4.914512483053    -1.427185489190    -0.278425747845    12.000000000000
         C           -0.000006008926    -5.650442776176    -0.279765328214    12.000000000000
         C           -4.893020484101     2.825184109757    -0.280226601254    12.000000000000
         C            2.478125993298    -5.653578033051    -0.280114850592    12.000000000000
         C           -3.656798710258     4.972951692879    -0.280298069959    12.000000000000
         C           -4.892999478856    -2.825196256222    -0.279759403196    12.000000000000
         C           -2.478128498083    -5.653570659169    -0.280390038239    12.000000000000
         C           -6.134770503331     0.680544277094    -0.280688964905    12.000000000000
         C           -3.656788833189    -4.972948512133    -0.279238537617    12.000000000000
         C           -6.134765042913    -0.680558404644    -0.279418568482    12.000000000000
         H            5.835288495816     3.369271405792    -0.275857193731     1.007825032230
         H            7.073859172747     1.228212759737    -0.280201769810     1.007825032230
         H            4.600663264174     5.512376313291    -0.279969549582     1.007825032230
         H            5.835283387305    -3.369310545891    -0.284059834813     1.007825032230
         H           -0.000012151306     6.738526184974    -0.283719069101     1.007825032230
         H            7.073861171831    -1.228231431906    -0.279906830781     1.007825032230
         H            2.473313731799     6.740679802232    -0.279652691615     1.007825032230
         H            4.600668491381    -5.512380618338    -0.279434246968     1.007825032230
         H           -2.473318680537     6.740677230444    -0.279351344990     1.007825032230
         H           -0.000010268228    -6.738532665614    -0.275235643229     1.007825032230
         H           -5.835301914343     3.369266461134    -0.275721171583     1.007825032230
         H            2.473307923831    -6.740689863591    -0.279544520167     1.007825032230
         H           -4.600674841208     5.512373537441    -0.279804221258     1.007825032230
         H           -5.835279506835    -3.369293452942    -0.284339140694     1.007825032230
         H           -2.473300347440    -6.740683567302    -0.279993836712     1.007825032230
         H           -7.073857766768     1.228215983678    -0.280285761291     1.007825032230
         H           -4.600673786085    -5.512367158949    -0.279606554991     1.007825032230
         H           -7.073856934409    -1.228225121139    -0.280001687248     1.007825032230

  Charge       = 0
  Multiplicity = 1
  Basis Set: JUN-CC-PVDZ
    Blend: JUN-CC-PVDZ
  Basis Set: (JUN-CC-PVDZ AUX)
    Blend: JUN-CC-PVDZ-JKFIT

    Orbital Energies [Eh]
    ---------------------

    Doubly Occupied:

       1A    -11.260573     2A    -11.260122     3A    -11.260108
       4A    -11.259344     5A    -11.259339     6A    -11.259144
       7A    -11.258880     8A    -11.258817     9A    -11.258803
      10A    -11.258482    11A    -11.258480    12A    -11.258334
      13A    -11.258298    14A    -11.258282    15A    -11.258264
      16A    -11.258242    17A    -11.258237    18A    -11.258223
      19A    -11.258215    20A    -11.258209    21A    -11.258193
      22A    -11.258162    23A    -11.258156    24A    -11.257961
      25A    -11.257140    26A    -11.257081    27A    -11.257068
      28A    -11.256952    29A    -11.256945    30A    -11.256860
      31A    -11.256234    32A    -11.256163    33A    -11.256150
      34A    -11.256056    35A    -11.256052    36A    -11.255996
      37A    -11.252117    38A    -11.252106    39A    -11.252071
      40A    -11.252069    41A    -11.252066    42A    -11.252063
      43A    -11.251192    44A    -11.251164    45A    -11.251152
      46A    -11.251150    47A    -11.251140    48A    -11.251134
      49A    -11.250678    50A    -11.250667    51A    -11.250633
      52A    -11.250629    53A    -11.250627    54A    -11.250624
      55A     -1.243661    56A     -1.219472    57A     -1.219433
      58A     -1.189218    59A     -1.189197    60A     -1.180578
      61A     -1.157258    62A     -1.148660    63A     -1.135143
      64A     -1.135100    65A     -1.112898    66A     -1.112892
      67A     -1.082070    68A     -1.082062    69A     -1.078240
      70A     -1.065698    71A     -1.065688    72A     -1.039066
      73A     -1.023874    74A     -1.021388    75A     -1.021315
      76A     -1.017436    77A     -1.012521    78A     -0.986661
      79A     -0.986605    80A     -0.961578    81A     -0.961522
      82A     -0.893977    83A     -0.893954    84A     -0.887537
      85A     -0.885776    86A     -0.885744    87A     -0.881018
      88A     -0.880977    89A     -0.861585    90A     -0.837146
      91A     -0.817869    92A     -0.816220    93A     -0.811769
      94A     -0.811758    95A     -0.794387    96A     -0.794371
      97A     -0.746231    98A     -0.744493    99A     -0.733044
     100A     -0.733025   101A     -0.731869   102A     -0.731844
     103A     -0.716143   104A     -0.698662   105A     -0.698624
     106A     -0.693250   107A     -0.693203   108A     -0.660917
     109A     -0.652741   110A     -0.650762   111A     -0.649956
     112A     -0.649951   113A     -0.639054   114A     -0.639028
     115A     -0.629362   116A     -0.627154   117A     -0.627144
     118A     -0.606435   119A     -0.605578   120A     -0.601283
     121A     -0.599421   122A     -0.599347   123A     -0.593268
     124A     -0.590814   125A     -0.590777   126A     -0.585014
     127A     -0.576381   128A     -0.576304   129A     -0.567041
     130A     -0.567022   131A     -0.565583   132A     -0.565580
     133A     -0.558344   134A     -0.554542   135A     -0.554531
     136A     -0.538287   137A     -0.538285   138A     -0.538114
     139A     -0.538104   140A     -0.529378   141A     -0.528092
     142A     -0.522558   143A     -0.522519   144A     -0.500198
     145A     -0.495474   146A     -0.492918   147A     -0.487687
     148A     -0.484709   149A     -0.481402   150A     -0.481398
     151A     -0.470213   152A     -0.470209   153A     -0.450612
     154A     -0.450554   155A     -0.438914   156A     -0.438904
     157A     -0.404558   158A     -0.404547   159A     -0.403182
     160A     -0.375245   161A     -0.375243   162A     -0.348927
     163A     -0.337369   164A     -0.336325   165A     -0.336292
     166A     -0.310875   167A     -0.297930   168A     -0.284090
     169A     -0.284060   170A     -0.224694   171A     -0.224626

  @DF-RHF Final Energy: -2055.89840968243971

   => Energetics <=

    Nuclear Repulsion Energy =           6452.5568002797772351
    One-Electron Energy =              -15636.5816086908071156
    Two-Electron Energy =                7128.1263987285901749
    Total Energy =                      -2055.8984096824397056
 Dipole X            :         -0.0007816           -0.0000085           -0.0007901
 Dipole Y            :         -0.0002484           -0.0028843           -0.0031326
 Dipole Z            :        180.8532874         -180.8480781            0.0052093
 Magnitude           :                                                    0.0061298

    SAPT Results
  --------------------------------------------------------------------------------------------------------
    Electrostatics               -336.10124473 [mEh]    -210.90671522 [kcal/mol]    -882.43369647 [kJ/mol]
      Elst10,r                   -336.10124473 [mEh]    -210.90671522 [kcal/mol]    -882.43369647 [kJ/mol]

    Exchange                      907.17494506 [mEh]     569.26087240 [kcal/mol]    2381.78749012 [kJ/mol]
      Exch10                      907.17494506 [mEh]     569.26087240 [kcal/mol]    2381.78749012 [kJ/mol]
      Exch10(S^2)                 834.93255210 [mEh]     523.92808641 [kcal/mol]    2192.11511353 [kJ/mol]

    Induction                     -92.58039536 [mEh]     -58.09507518 [kcal/mol]    -243.06979454 [kJ/mol]
      Ind20,r                    -518.79640065 [mEh]    -325.54965637 [kcal/mol]   -1362.09976224 [kJ/mol]
      Exch-Ind20,r                389.84529319 [mEh]     244.63161479 [kcal/mol]    1023.53867626 [kJ/mol]
      delta HF,r (2)               36.37071209 [mEh]      22.82296640 [kcal/mol]      95.49129144 [kJ/mol]

    Dispersion                   -202.78965780 [mEh]    -127.25243145 [kcal/mol]    -532.42417319 [kJ/mol]
      Disp20                     -257.27303943 [mEh]    -161.44126959 [kcal/mol]    -675.47027196 [kJ/mol]
      Exch-Disp20                  54.48338163 [mEh]      34.18883814 [kcal/mol]     143.04609877 [kJ/mol]
      Disp20 (SS)                -128.63651971 [mEh]     -80.72063479 [kcal/mol]    -337.73513598 [kJ/mol]
      Disp20 (OS)                -128.63651971 [mEh]     -80.72063479 [kcal/mol]    -337.73513598 [kJ/mol]
      Exch-Disp20 (SS)             31.81344589 [mEh]      19.96323869 [kcal/mol]      83.52619068 [kJ/mol]
      Exch-Disp20 (OS)             22.66993574 [mEh]      14.22559945 [kcal/mol]      59.51990809 [kJ/mol]

  Total HF                        478.49330496 [mEh]     300.25908200 [kcal/mol]    1256.28399910 [kJ/mol]
  Total SAPT0                     275.70364717 [mEh]     173.00665055 [kcal/mol]     723.85982591 [kJ/mol]

  Special recipe for scaled SAPT0 (see Manual):
    Electrostatics sSAPT0        -336.10124473 [mEh]    -210.90671522 [kcal/mol]    -882.43369647 [kJ/mol]
    Exchange sSAPT0               907.17494506 [mEh]     569.26087240 [kcal/mol]    2381.78749012 [kJ/mol]
    Induction sSAPT0               17.62180622 [mEh]      11.05785035 [kcal/mol]      46.26604585 [kJ/mol]
    Dispersion sSAPT0            -187.38819288 [mEh]    -117.58786631 [kcal/mol]    -491.98763263 [kJ/mol]
  Total sSAPT0                    401.30731366 [mEh]     251.82414122 [kcal/mol]    1053.63220686 [kJ/mol]
  --------------------------------------------------------------------------------------------------------

*** Psi4 exiting successfully. Buy a developer a beer!
