                               Psi4 1.9 release

  ==> Input File <==

--------------------------------------------------------------------------
memory 64 GB # how much memory is available ! Depends on the nodes/cores !

molecule dimer {
# monomer A
+1 1    # Charge and multiplicity
C  0.680067 -1.215929 2.408042
C -0.680504 -1.215545 2.406014
N -1.085635  0.102779 2.405016
C  0.000108  0.884180 2.401740
C -2.477365  0.570758 2.355610
N  1.085222  0.102779 2.405016
H  1.385146 -2.033368 2.415870
H -1.385302 -2.033214 2.406204
H -0.000009  1.965269 2.399993
C  2.478117  0.567877 2.421908
H  2.490592  1.658130 2.394563
H  2.967028  0.220701 3.335354
H  3.001428  0.176405 1.546425
H -2.857359  0.490799 1.333539
H -3.082679 -0.042306 3.025694
H -2.518128  1.610706 2.682594
--
# monomer B
0 1     # Charge and multiplicity
C   -3.66844126402057      7.80375217008252      0.00190004133558
C   -4.84759871934653      7.13124183134024     -0.00046653359696
C   -4.89495929917518      5.69633040353158     -0.00103944469517
C   -3.65374067877320      4.98073034095895      0.00662099703436
C   -2.40942512149445      7.11398103667468      0.00209438359570
C   -2.42547734410473      5.68112195090346     -0.00491050527438
C   -1.19474401643570      7.78614419430947      0.00356656413763
C   0.03795902893699      7.09942164575698      0.00139585983271
C   0.03033258741920      5.66948955970466     -0.00408752508301
C   -1.20098450790502      4.96927034791531      0.00488220885047
C   1.27795782581485      7.77285944319479      0.00277170839332
C   2.48535808472416      7.08769688523756      0.00049722048857
C   2.48612868491717      5.65477081024076     -0.00644052849921
C   1.25408291964399      4.95607811366431      0.00518741308898
C   3.75171459140595      7.76391215098033      0.00062407186893
C   4.92356605618520      7.07878077698995     -0.00143240883900
C   4.95560727132542      5.64344746336949     -0.00159282164606
C   3.70680153420475      4.94121020833308      0.00349873852374
H   -3.65852113775815      8.89082741913536      0.00358502958574
H   -1.18921332975660      8.87412108735996      0.00753844057883
H   1.28429423888630      8.86083343548850      0.00693053253426
H   3.75354208679975      8.85103527897216      0.00214659618464
H   5.86995870320703      7.61379483465560     -0.00235777588134
H   -5.78823170750226      7.67630221293400     -0.00202638095293
C   -6.09197395869619      4.99326001364347     -0.00291168518608
C   -6.12866148031747      3.58258016879823     -0.00171050815740
C   -3.66457974004527      3.56418217974434     -0.00463560277484
C   -4.89429820469869      2.86108077590057      0.00453338221034
C   -2.43733499489796      2.84761165708481      0.00719617576166
C   -1.20922785759670      3.54788693497833     -0.00648285103018
C   1.24714157216223      3.53468075142962     -0.00729145743546
C   0.01517603956900      2.83311183930540      0.00439272578912
C   2.46764517244071      2.82128997725533      0.00449278391269
C   3.70254947457969      3.52466015442405     -0.00899517692985
C   6.14498038638375      4.92757236613191     -0.00282626685777
C   6.16658835886151      3.51658447594213     -0.00065971342101
C   4.92460995845939      2.80840792535402      0.00587903281610
H   7.08990550964105      5.46688776622306     -0.00658814770723
H   -7.03104175110130      5.54268795285765     -0.00714490013730
C   -7.33969804112295      2.85841153457957     -0.00333767559888
C   -7.36488195805880      1.47032337158330     -0.00157213747140
C   -4.90350460894690      1.44442681216000     -0.00628840166334
C   -6.13225715261081      0.73993935705394      0.00600164231964
C   -3.67687480051673      0.72669714267312      0.00433931473643
C   -2.44565658606518      1.42964113326212     -0.00597039546461
C   -1.22360068130162      0.71532450163492      0.00545886906656
C   0.00763786931376      1.41738314923765      0.00392452278437
C   1.23121980774686      0.70211669058719     -0.01490206287210
C   2.46082110053113      1.40329203612573      0.00460244601878
C   3.68443025419614      0.68719842821222      0.00377365974158
C   4.91870890153864      1.39173456118907     -0.00862816189375
C   7.36980207796101      2.77948220318441     -0.00242013321349
C   7.38016266612146      1.39121750785509     -0.00087345036788
C   6.13979953912259      0.67411862320065      0.00545489144369
H   -8.27919079934664      3.40711804112415     -0.00763522772059
H   8.31511347147953      3.31811809662368     -0.00663070901292
C   -8.59175593758115      0.72483255304480     -0.00123170985383
C   -8.59902460370342     -0.63263980622873      0.00089141472904
C   -6.13981313911873     -0.67413663715361     -0.00609792660607
C   -7.38018411213749     -1.39126618958160      0.00131813493501
C   -4.91868448025621     -1.39175501803000      0.00624257154343
C   -3.68443829568458     -0.68723731573599     -0.00478966852105
C   -2.46081704024768     -1.40334517882457      0.00575341766833
C   -1.23116201232071     -0.70217386488055     -0.00636696112346
C   -0.00756962538737     -1.41741884941102      0.00108956317991
C   1.22364771588843     -0.71527537726392      0.01109518512883
C   2.44567064933149     -1.42964328900682     -0.00065482763106
C   3.67686670284649     -0.72670743155550     -0.00479541202602
C   6.13224884641929     -0.73997883984993     -0.00632338623858
C   4.90351914550401     -1.44445752054090      0.00751768830159
C   8.59901484869081      0.63260386666793     -0.00101133422380
C   8.59174548810050     -0.72485086719319      0.00072504603735
C   7.36486276438985     -1.47033266560598      0.00049486934466
H   -9.52830597181814      1.27684744919284     -0.00270163681798
H   9.54141097460619      1.17457248844457     -0.00206336648518
C   -7.36983790976868     -2.77954514593389      0.00312634335708
C   -4.92459910905015     -2.80843725734101     -0.00460528907921
C   -6.16662249566744     -3.51665219282533      0.00169655107992
C   -3.70251035970491     -3.52468154912026      0.00571878010666
C   -2.46764698511392     -2.82132596280400     -0.00632585824990
C   -0.01513347410770     -2.83314164539971     -0.00604426974092
C   -1.24712184122656     -3.53473217556300      0.00551968366725
C   1.20924506964357     -3.54791467864352      0.00805871345849
C   2.43733602215464     -2.84764173817541     -0.00608104485234
C   4.89430234377080     -2.86112296828604     -0.00526030478103
C   3.66461525504104     -3.56421984553201      0.00761911515957
C   6.12863901474565     -3.58258405771778      0.00096495711699
C   7.33967266469532     -2.85841330737039      0.00248018319869
H   -9.54144911125902     -1.17456346666430      0.00226083090216
H   9.52826186807155     -1.27691907390448      0.00197485379837
H   -8.31516504384864     -3.31814985321231      0.00729857188773
H   8.27915514249207     -3.40714078989363      0.00681973918158
C   -6.14499418870218     -4.92764727278338      0.00302254913999
C   -3.70678334799751     -4.94126171411716     -0.00679841894792
C   -4.95559005800169     -5.64349397349412      0.00116871569699
C   -2.48612132622665     -5.65478557440947      0.00614125209662
C   -1.25405833548005     -4.95612205000132     -0.00503435388927
C   1.20101257386816     -4.96928038819302     -0.00385322963129
C   -0.03033667441341     -5.66952030313900      0.00398997003238
C   3.65375010132847     -4.98074377541453     -0.00309522988330
C   2.42549269587528     -5.68117463552727      0.00628170066869
C   6.09196561781097     -4.99325796338655      0.00325918379042
C   4.89497644461045     -5.69634842095790      0.00202298796027
H   -7.08989238804069     -5.46699984223871      0.00742531082125
H   7.03105520920009     -5.54265853633254      0.00683896355417
C   -4.92354532219813     -7.07882109967734      0.00061394679214
C   -2.48534208823777     -7.08772807792913     -0.00189594564379
C   -3.75168589177895     -7.76394715763627     -0.00170126671874
C   -0.03794895698805     -7.09946487446944     -0.00168022049625
C   -1.27795610040136     -7.77290438466689     -0.00366491325785
C   2.40944432072629     -7.11402201200282     -0.00081701968533
C   1.19474993715296     -7.78618536556242     -0.00296931056689
C   4.84762105249800     -7.13126211057943      0.00168979497423
C   3.66847160587561     -7.80378799294376     -0.00065863938960
H   -5.86994035041618     -7.61383059804164      0.00215798365757
H   5.78824962538815     -7.67633218931421      0.00281691445618
H   -3.75352693944918     -8.85107156923607     -0.00353718114765
H   -1.28430440589466     -8.86087539249706     -0.00809229711623
H   1.18922157469537     -8.87416062058945     -0.00706194725726
H   3.65854661482387     -8.89086063405326     -0.00231318081200

    units angstrom      # Angstroms are the default
    no_reorient         # Geometry fixed, default
    symmetry c1         # C1 symmetry, default
}

set {
    scf_type DF         # Density fitting, faster than exact integrals
    freeze_core True    # Freeze core electrons
    basis jun-cc-pVDZ   # Jun-cc-pVDZ basis set, recommended for sSAPT0 in https://doi.org/10.1063/1.4867135
}

energy('ssapt0')        # Compute sSAPT0 energy, includes also SAPT0
--------------------------------------------------------------------------

  //              Dimer HF             //
    Molecular point group: c1
  Charge       = 1
  Multiplicity = 1
  Basis Set: JUN-CC-PVDZ
    Blend: JUN-CC-PVDZ
  Basis Set: (JUN-CC-PVDZ AUX)
    Blend: JUN-CC-PVDZ-JKFIT
  @DF-RHF Final Energy: -3953.38854690827611
    Total Energy =                      -3953.3885469082779309
 Dipole X            :         -0.0209749            0.0004804           -0.0204945
 Dipole Y            :         -1.7122822            1.8866171            0.1743349
 Dipole Z            :        -12.3594644           14.5191685            2.1597042
 Magnitude           :                                                    2.1668260
  //            Monomer A HF           //
    Molecular point group: c1
  Multiplicity = 1
  Basis Set: JUN-CC-PVDZ
    Blend: JUN-CC-PVDZ
  Basis Set: (JUN-CC-PVDZ AUX)
    Blend: JUN-CC-PVDZ-JKFIT
  @DF-RHF Final Energy:  -303.30127598191024
    Total Energy =                       -303.3012759819102371
  //            Monomer B HF           //
    Molecular point group: c1

    Geometry (in Angstrom), charge = 0, multiplicity = 1:

       Center              X                  Y                   Z               Mass
    ------------   -----------------  -----------------  -----------------  -----------------
      Gh(C)           0.680062820275    -1.215917226251     2.225057427543    12.000000000000
      Gh(C)          -0.680508179725    -1.215533226251     2.223029427543    12.000000000000
      Gh(N)          -1.085639179725     0.102790773749     2.222031427543    14.003074004430
      Gh(C)           0.000103820275     0.884191773749     2.218755427543    12.000000000000
      Gh(C)          -2.477369179725     0.570769773749     2.172625427543    12.000000000000
      Gh(N)           1.085217820275     0.102790773749     2.222031427543    14.003074004430
      Gh(H)           1.385141820275    -2.033356226251     2.232885427543     1.007825032230
      Gh(H)          -1.385306179725    -2.033202226251     2.223219427543     1.007825032230
      Gh(H)          -0.000013179725     1.965280773749     2.217008427543     1.007825032230
      Gh(C)           2.478112820275     0.567888773749     2.238923427543    12.000000000000
      Gh(H)           2.490587820275     1.658141773750     2.211578427543     1.007825032230
      Gh(H)           2.967023820275     0.220712773749     3.152369427543     1.007825032230
      Gh(H)           3.001423820275     0.176416773749     1.363440427543     1.007825032230
      Gh(H)          -2.857363179725     0.490810773749     1.150554427543     1.007825032230
      Gh(H)          -3.082683179725    -0.042294226251     2.842709427543     1.007825032230
      Gh(H)          -2.518132179725     1.610717773749     2.499609427543     1.007825032230
         C           -3.668445443746     7.803763943832    -0.181084531122    12.000000000000
         C           -4.847602899072     7.131253605090    -0.183451106054    12.000000000000
         C           -4.894963478901     5.696342177281    -0.184024017152    12.000000000000
         C           -3.653744858499     4.980742114708    -0.176363575423    12.000000000000
         C           -2.409429301220     7.113992810424    -0.180890188861    12.000000000000
         C           -2.425481523830     5.681133724653    -0.187895077731    12.000000000000
         C           -1.194748196161     7.786155968059    -0.179418008319    12.000000000000
         C            0.037954849212     7.099433419506    -0.181588712624    12.000000000000
         C            0.030328407694     5.669501333454    -0.187072097540    12.000000000000
         C           -1.200988687630     4.969282121665    -0.178102363607    12.000000000000
         C            1.277953646089     7.772871216944    -0.180212864064    12.000000000000
         C            2.485353904999     7.087708658987    -0.182487351969    12.000000000000
         C            2.486124505192     5.654782583990    -0.189425100956    12.000000000000
         C            1.254078739919     4.956089887414    -0.177797159368    12.000000000000
         C            3.751710411681     7.763923924730    -0.182360500588    12.000000000000
         C            4.923561876460     7.078792550739    -0.184416981296    12.000000000000
         C            4.955603091600     5.643459237119    -0.184577394103    12.000000000000
         C            3.706797354479     4.941221982083    -0.179485833933    12.000000000000
         H           -3.658525317484     8.890839192885    -0.179399542871     1.007825032230
         H           -1.189217509482     8.874132861109    -0.175446131878     1.007825032230
         H            1.284290059161     8.860845209238    -0.176054039923     1.007825032230
         H            3.753537907074     8.851047052722    -0.180837976272     1.007825032230
         H            5.869954523482     7.613806608405    -0.185342348338     1.007825032230
         H           -5.788235887228     7.676313986684    -0.185010953410     1.007825032230
         C           -6.091978138422     4.993271787393    -0.185896257643    12.000000000000
         C           -6.128665660043     3.582591942548    -0.184695080615    12.000000000000
         C           -3.664583919771     3.564193953494    -0.187620175232    12.000000000000
         C           -4.894302384424     2.861092549650    -0.178451190247    12.000000000000
         C           -2.437339174623     2.847623430834    -0.175788396695    12.000000000000
         C           -1.209232037322     3.547898708728    -0.189467423487    12.000000000000
         C            1.247137392437     3.534692525179    -0.190276029893    12.000000000000
         C            0.015171859844     2.833123613055    -0.178591846668    12.000000000000
         C            2.467640992715     2.821301751005    -0.178491788544    12.000000000000
         C            3.702545294854     3.524671928174    -0.191979749387    12.000000000000
         C            6.144976206658     4.927584139881    -0.185810839315    12.000000000000
         C            6.166584179136     3.516596249692    -0.183644285878    12.000000000000
         C            4.924605778734     2.808419699104    -0.177105539641    12.000000000000
         H            7.089901329916     5.466899539973    -0.189572720164     1.007825032230
         H           -7.031045930827     5.542699726607    -0.190129472594     1.007825032230
         C           -7.339702220848     2.858423308329    -0.186322248056    12.000000000000
         C           -7.364886137784     1.470335145333    -0.184556709929    12.000000000000
         C           -4.903508788672     1.444438585909    -0.189272974120    12.000000000000
         C           -6.132261332336     0.739951130803    -0.176982930137    12.000000000000
         C           -3.676878980242     0.726708916423    -0.178645257721    12.000000000000
         C           -2.445660765791     1.429652907012    -0.188954967922    12.000000000000
         C           -1.223604861027     0.715336275384    -0.177525703391    12.000000000000
         C            0.007633689588     1.417394922987    -0.179060049673    12.000000000000
         C            1.231215628021     0.702128464337    -0.197886635329    12.000000000000
         C            2.460816920806     1.403303809875    -0.178382126438    12.000000000000
         C            3.684426074471     0.687210201962    -0.179210912716    12.000000000000
         C            4.918704721813     1.391746334939    -0.191612734351    12.000000000000
         C            7.369797898236     2.779493976934    -0.185404705671    12.000000000000
         C            7.380158486396     1.391229281605    -0.183858022825    12.000000000000
         C            6.139795359397     0.674130396950    -0.177529681013    12.000000000000
         H           -8.279194979072     3.407129814874    -0.190619800178     1.007825032230
         H            8.315109291754     3.318129870373    -0.189615281470     1.007825032230
         C           -8.591760117307     0.724844326794    -0.184216282311    12.000000000000
         C           -8.599028783429    -0.632628032479    -0.182093157728    12.000000000000
         C           -6.139817318844    -0.674124863404    -0.189082499063    12.000000000000
         C           -7.380188291863    -1.391254415832    -0.181666437522    12.000000000000
         C           -4.918688659982    -1.391743244281    -0.176742000914    12.000000000000
         C           -3.684442475410    -0.687225541986    -0.187774240978    12.000000000000
         C           -2.460821219973    -1.403333405075    -0.177231154789    12.000000000000
         C           -1.231166192046    -0.702162091131    -0.189351533581    12.000000000000
         C           -0.007573805113    -1.417407075662    -0.181895009277    12.000000000000
         C            1.223643536163    -0.715263603514    -0.171889387328    12.000000000000
         C            2.445666469606    -1.429631515257    -0.183639400088    12.000000000000
         C            3.676862523121    -0.726695657806    -0.187779984483    12.000000000000
         C            6.132244666694    -0.739967066100    -0.189307958696    12.000000000000
         C            4.903514965779    -1.444445746791    -0.175466884156    12.000000000000
         C            8.599010668965     0.632615640417    -0.183995906681    12.000000000000
         C            8.591741308375    -0.724839093444    -0.182259526420    12.000000000000
         C            7.364858584664    -1.470320891856    -0.182489703112    12.000000000000
         H           -9.528310151544     1.276859222942    -0.185686209275     1.007825032230
         H            9.541406794881     1.174584262194    -0.185047938942     1.007825032230
         C           -7.369842089494    -2.779533372184    -0.179858229100    12.000000000000
         C           -4.924603288776    -2.808425483592    -0.187589861536    12.000000000000
         C           -6.166626675393    -3.516640419076    -0.181288021377    12.000000000000
         C           -3.702514539430    -3.524669775371    -0.177265792350    12.000000000000
         C           -2.467651164839    -2.821314189055    -0.189310430707    12.000000000000
         C           -0.015137653833    -2.833129871650    -0.189028842198    12.000000000000
         C           -1.247126020952    -3.534720401814    -0.177464888790    12.000000000000
         C            1.209240889918    -3.547902904894    -0.174925858999    12.000000000000
         C            2.437331842429    -2.847629964426    -0.189065617309    12.000000000000
         C            4.894298164045    -2.861111194537    -0.188244877238    12.000000000000
         C            3.664611075316    -3.564208071783    -0.175365457298    12.000000000000
         C            6.128634835020    -3.582572283968    -0.182019615340    12.000000000000
         C            7.339668484970    -2.858401533621    -0.180504389258    12.000000000000
         H           -9.541453290984    -1.174551692915    -0.180723741555     1.007825032230
         H            9.528257688346    -1.276907300155    -0.181009718659     1.007825032230
         H           -8.315169223574    -3.318138079463    -0.175686000569     1.007825032230
         H            8.279150962767    -3.407129016144    -0.176164833276     1.007825032230
         C           -6.144998368428    -4.927635499034    -0.179962023317    12.000000000000
         C           -3.706787527723    -4.941249940368    -0.189782991405    12.000000000000
         C           -4.955594237727    -5.643482199745    -0.181815856760    12.000000000000
         C           -2.486125505952    -5.654773800660    -0.176843320360    12.000000000000
         C           -1.254062515205    -4.956110276252    -0.188018926346    12.000000000000
         C            1.201008394143    -4.969268614444    -0.186837802088    12.000000000000
         C           -0.030340854139    -5.669508529390    -0.178994602425    12.000000000000
         C            3.653745921603    -4.980732001665    -0.186079802340    12.000000000000
         C            2.425488516150    -5.681162861778    -0.176702871788    12.000000000000
         C            6.091961438086    -4.993246189637    -0.179725388667    12.000000000000
         C            4.894972264885    -5.696336647208    -0.180961584497    12.000000000000
         H           -7.089896567766    -5.466988068489    -0.175559261636     1.007825032230
         H            7.031051029475    -5.542646762583    -0.176145608903     1.007825032230
         C           -4.923549501924    -7.078809325928    -0.182370625665    12.000000000000
         C           -2.485346267963    -7.087716304180    -0.184880518101    12.000000000000
         C           -3.751690071504    -7.763935383887    -0.184685839176    12.000000000000
         C           -0.037953136713    -7.099453100720    -0.184664792953    12.000000000000
         C           -1.277960280127    -7.772892610917    -0.186649485715    12.000000000000
         C            2.409440141001    -7.114010238253    -0.183801592142    12.000000000000
         C            1.194745757428    -7.786173591813    -0.185953883024    12.000000000000
         C            4.847616872773    -7.131250336830    -0.181294777483    12.000000000000
         C            3.668467426150    -7.803776219194    -0.183643211847    12.000000000000
         H           -5.869944530142    -7.613818824292    -0.180826588800     1.007825032230
         H            5.788245445663    -7.676320415565    -0.180167658001     1.007825032230
         H           -3.753531119175    -8.851059795487    -0.186521753605     1.007825032230
         H           -1.284308585620    -8.860863618748    -0.191076869573     1.007825032230
         H            1.189217394970    -8.874148846840    -0.190046519714     1.007825032230
         H            3.658542435098    -8.890848860304    -0.185297753269     1.007825032230

  Charge       = 0
  Multiplicity = 1
  Basis Set: JUN-CC-PVDZ
    Blend: JUN-CC-PVDZ
  Basis Set: (JUN-CC-PVDZ AUX)
    Blend: JUN-CC-PVDZ-JKFIT

    Orbital Energies [Eh]
    ---------------------

    Doubly Occupied:

       1A    -11.264058     2A    -11.263681     3A    -11.263680
       4A    -11.263246     5A    -11.263233     6A    -11.263190
       7A    -11.263060     8A    -11.263042     9A    -11.263018
      10A    -11.262779    11A    -11.262669    12A    -11.262650
      13A    -11.262175    14A    -11.262165    15A    -11.262140
      16A    -11.262120    17A    -11.261994    18A    -11.261991
      19A    -11.261954    20A    -11.261903    21A    -11.261896
      22A    -11.261809    23A    -11.261805    24A    -11.261650
      25A    -11.261639    26A    -11.261606    27A    -11.261600
      28A    -11.261565    29A    -11.261552    30A    -11.261471
      31A    -11.261455    32A    -11.261431    33A    -11.261422
      34A    -11.261408    35A    -11.261395    36A    -11.261374
      37A    -11.261226    38A    -11.261219    39A    -11.261198
      40A    -11.261191    41A    -11.261183    42A    -11.261177
      43A    -11.261170    44A    -11.261151    45A    -11.261140
      46A    -11.261124    47A    -11.261107    48A    -11.261095
      49A    -11.260944    50A    -11.260909    51A    -11.260889
      52A    -11.260841    53A    -11.260836    54A    -11.260772
      55A    -11.259784    56A    -11.259757    57A    -11.259744
      58A    -11.259726    59A    -11.259713    60A    -11.259692
      61A    -11.259144    62A    -11.259110    63A    -11.259105
      64A    -11.259058    65A    -11.259049    66A    -11.259019
      67A    -11.258781    68A    -11.258755    69A    -11.258740
      70A    -11.258722    71A    -11.258710    72A    -11.258692
      73A    -11.254450    74A    -11.254443    75A    -11.254423
      76A    -11.254422    77A    -11.254421    78A    -11.254414
      79A    -11.253555    80A    -11.253527    81A    -11.253526
      82A    -11.253519    83A    -11.253510    84A    -11.253507
      85A    -11.253471    86A    -11.253439    87A    -11.253438
      88A    -11.253434    89A    -11.253426    90A    -11.253422
      91A    -11.252978    92A    -11.252971    93A    -11.252950
      94A    -11.252950    95A    -11.252949    96A    -11.252942
      97A     -1.253677    98A     -1.238778    99A     -1.238744
     100A     -1.220264   101A     -1.220251   102A     -1.215214
     103A     -1.200865   104A     -1.195417   105A     -1.187920
     106A     -1.187895   107A     -1.173596   108A     -1.173594
     109A     -1.155400   110A     -1.155391   111A     -1.152490
     112A     -1.144565   113A     -1.144562   114A     -1.128350
     115A     -1.114482   116A     -1.113006   117A     -1.112267
     118A     -1.112237   119A     -1.111469   120A     -1.088219
     121A     -1.088200   122A     -1.076811   123A     -1.076808
     124A     -1.067401   125A     -1.067363   126A     -1.064744
     127A     -1.046606   128A     -1.046595   129A     -1.040275
     130A     -1.038586   131A     -1.038579   132A     -1.025003
     133A     -1.021133   134A     -1.021067   135A     -1.007000
     136A     -1.006588   137A     -1.003611   138A     -1.000265
     139A     -1.000208   140A     -0.990933   141A     -0.970779
     142A     -0.970729   143A     -0.955716   144A     -0.955656
     145A     -0.905409   146A     -0.905364   147A     -0.905329
     148A     -0.905296   149A     -0.904059   150A     -0.892097
     151A     -0.892040   152A     -0.890122   153A     -0.890073
     154A     -0.889229   155A     -0.872058   156A     -0.868935
     157A     -0.851359   158A     -0.847625   159A     -0.847618
     160A     -0.845355   161A     -0.842784   162A     -0.834363
     163A     -0.834354   164A     -0.827970   165A     -0.827960
     166A     -0.784366   167A     -0.784355   168A     -0.783447
     169A     -0.783436   170A     -0.782074   171A     -0.782052
     172A     -0.781800   173A     -0.766789   174A     -0.760541
     175A     -0.750348   176A     -0.733323   177A     -0.726878
     178A     -0.726841   179A     -0.724863   180A     -0.724346
     181A     -0.724311   182A     -0.718243   183A     -0.713540
     184A     -0.713533   185A     -0.699391   186A     -0.699366
     187A     -0.685879   188A     -0.685778   189A     -0.685769
     190A     -0.681981   191A     -0.681974   192A     -0.678580
     193A     -0.653442   194A     -0.650678   195A     -0.650643
     196A     -0.649570   197A     -0.649566   198A     -0.649395
     199A     -0.640696   200A     -0.640650   201A     -0.639901
     202A     -0.638991   203A     -0.635807   204A     -0.635772
     205A     -0.628932   206A     -0.617717   207A     -0.615138
     208A     -0.615112   209A     -0.608610   210A     -0.608603
     211A     -0.599073   212A     -0.599038   213A     -0.598540
     214A     -0.598365   215A     -0.598349   216A     -0.597803
     217A     -0.594893   218A     -0.594878   219A     -0.594525
     220A     -0.593967   221A     -0.591741   222A     -0.591737
     223A     -0.587129   224A     -0.577659   225A     -0.577641
     226A     -0.575614   227A     -0.575607   228A     -0.573188
     229A     -0.569518   230A     -0.567914   231A     -0.567890
     232A     -0.566546   233A     -0.566538   234A     -0.560772
     235A     -0.558502   236A     -0.558457   237A     -0.558279
     238A     -0.554163   239A     -0.550472   240A     -0.547333
     241A     -0.544162   242A     -0.534928   243A     -0.534914
     244A     -0.533351   245A     -0.533336   246A     -0.527903
     247A     -0.527884   248A     -0.527535   249A     -0.516945
     250A     -0.516920   251A     -0.515242   252A     -0.515238
     253A     -0.509464   254A     -0.509452   255A     -0.497828
     256A     -0.496257   257A     -0.496211   258A     -0.493698
     259A     -0.493674   260A     -0.489364   261A     -0.481272
     262A     -0.477303   263A     -0.477297   264A     -0.473801
     265A     -0.469203   266A     -0.466306   267A     -0.466303
     268A     -0.458687   269A     -0.446411   270A     -0.446362
     271A     -0.440916   272A     -0.440676   273A     -0.440635
     274A     -0.434568   275A     -0.433789   276A     -0.407257
     277A     -0.407226   278A     -0.386236   279A     -0.386191
     280A     -0.385619   281A     -0.385615   282A     -0.383597
     283A     -0.354185   284A     -0.354163   285A     -0.350500
     286A     -0.337928   287A     -0.335422   288A     -0.335393
     289A     -0.332586   290A     -0.332577   291A     -0.306866
     292A     -0.301775   293A     -0.301722   294A     -0.300698
     295A     -0.286007   296A     -0.256370   297A     -0.253309
     298A     -0.253257   299A     -0.204099   300A     -0.204017

  @DF-RHF Final Energy: -3650.34422513278423

   => Energetics <=

    Nuclear Repulsion Energy =          15611.4211649754324753
    One-Electron Energy =              -36072.2531769526685821
    Two-Electron Energy =               16810.4877868444527849
    Total Energy =                      -3650.3442251327833219
 Dipole X            :         -0.0003949            0.0002112           -0.0001837
 Dipole Y            :          0.0003697           -0.0044281           -0.0040583
 Dipole Z            :        207.4735138         -207.4710444            0.0024695
 Magnitude           :                                                    0.0047542

    SAPT Results
  --------------------------------------------------------------------------------------------------------
    Electrostatics               -193.70117311 [mEh]    -121.54932121 [kcal/mol]    -508.56235994 [kJ/mol]
      Elst10,r                   -193.70117311 [mEh]    -121.54932121 [kcal/mol]    -508.56235994 [kJ/mol]

    Exchange                      522.68079786 [mEh]     327.98715242 [kcal/mol]    1372.29824572 [kJ/mol]
      Exch10                      522.68079786 [mEh]     327.98715242 [kcal/mol]    1372.29824572 [kJ/mol]
      Exch10(S^2)                 496.65450864 [mEh]     311.65540937 [kcal/mol]    1303.96623278 [kJ/mol]

    Induction                     -72.02541833 [mEh]     -45.19663236 [kcal/mol]    -189.10270978 [kJ/mol]
      Ind20,r                    -286.54222761 [mEh]    -179.80796246 [kcal/mol]    -752.31651493 [kJ/mol]
      Exch-Ind20,r                221.40070573 [mEh]     138.93104035 [kcal/mol]     581.28747280 [kJ/mol]
      delta HF,r (2)               -6.88389646 [mEh]      -4.31971024 [kcal/mol]     -18.07366765 [kJ/mol]

    Dispersion                   -151.41063123 [mEh]     -95.01160553 [kcal/mol]    -397.52855753 [kJ/mol]
      Disp20                     -187.60132057 [mEh]    -117.72160595 [kcal/mol]    -492.54719929 [kJ/mol]
      Exch-Disp20                  36.19068933 [mEh]      22.71000042 [kcal/mol]      95.01864176 [kJ/mol]
      Disp20 (SS)                 -93.80066028 [mEh]     -58.86080297 [kcal/mol]    -246.27359964 [kJ/mol]
      Disp20 (OS)                 -93.80066028 [mEh]     -58.86080297 [kcal/mol]    -246.27359964 [kJ/mol]
      Exch-Disp20 (SS)             21.38059195 [mEh]      13.41652400 [kcal/mol]      56.13473643 [kJ/mol]
      Exch-Disp20 (OS)             14.81009739 [mEh]       9.29347642 [kcal/mol]      38.88390533 [kJ/mol]

  Total HF                        256.95420642 [mEh]     161.24119885 [kcal/mol]     674.63317601 [kJ/mol]
  Total SAPT0                     105.54357519 [mEh]      66.22959333 [kcal/mol]     277.10461848 [kJ/mol]

  Special recipe for scaled SAPT0 (see Manual):
    Electrostatics sSAPT0        -193.70117311 [mEh]    -121.54932121 [kcal/mol]    -508.56235994 [kJ/mol]
    Exchange sSAPT0               522.68079786 [mEh]     327.98715242 [kcal/mol]    1372.29824572 [kJ/mol]
    Induction sSAPT0              -35.36327365 [mEh]     -22.19078924 [kcal/mol]     -92.84626219 [kJ/mol]
    Dispersion sSAPT0            -145.41774930 [mEh]     -91.25101534 [kcal/mol]    -381.79424820 [kJ/mol]
  Total sSAPT0                    148.19860179 [mEh]      92.99602663 [kcal/mol]     389.09537540 [kJ/mol]
  --------------------------------------------------------------------------------------------------------

*** Psi4 exiting successfully. Buy a developer a beer!
