                               Psi4 1.9 release

  ==> Input File <==

--------------------------------------------------------------------------
memory 32 GB # how much memory is available ! Depends on the nodes/cores !

molecule dimer {
# monomer A
-1 1    # Charge and multiplicity
B -1.977592e-04  2.742729e-04 -4.999966
F  1.123153e-16  1.430594e-17 -3.587181
F  1.147860e+00  6.757812e-01 -5.471107
F  1.191806e-02 -1.332011e+00 -5.470905
F -1.159666e+00  6.560735e-01 -5.470826
--
# monomer B
0 1     # Charge and multiplicity
C   1.22531237526482      0.70753866091955      0.00613762728373
C   1.22532433589282     -0.70753852257020     -0.00619318228664
C   -0.00000567409046      1.41496628609039     -0.00672680580738
C   2.45644923379077      1.41832825917820      0.00902448468363
C   0.00001130712078     -1.41497612663474      0.00347275151708
C   -1.22530046906674      0.70754574598412      0.00838914760619
C   2.45643823516184     -1.41832293188077     -0.00843833914343
C   -0.00000085313587      2.83680140328112     -0.00913035594137
C   3.68182717731192      0.70931832800114     -0.00808954934571
C   2.45512052870677      2.83422403348893     -0.00819210630633
C   3.68182158506039     -0.70933346742900      0.00798293467272
C   -1.22531311884624     -0.70752714354401     -0.00512042085974
C   1.22670006104402      3.54346985599427      0.00816696660346
C   0.00000526469929     -2.83678176723568      0.00832091913869
C   -2.45643555300670      1.41831729028492      0.00842454345199
C   2.45512389762097     -2.83422965658853      0.00783102630520
C   -1.22671388474763      3.54346943575023      0.00827029982280
C   4.91451777504333      1.42717324448953     -0.00160886631602
C   3.69315067131765      3.54279566454522     -0.00155906667985
C   -2.45643712022637     -1.41831290883911     -0.00846337726810
C   1.22670532178455     -3.54347386990643     -0.00780316414624
C   -2.45512491866593      2.83421703463423     -0.00818572995999
C   4.91452486062398     -1.42718653794377      0.00136387641845
C   1.22142509354026      4.97013443726031      0.00150231067809
C   4.89300870916237      2.82518837202648     -0.00039219795739
C   -1.22669652864725     -3.54347062507680     -0.00753595973677
C   -3.68181849668397      0.70932533873199     -0.00807686886569
C   3.69314758099218     -3.54280096939050      0.00148176697923
C   -1.22143177215231      4.97012866986289      0.00168580605083
C   6.13477145276790      0.68054831910577     -0.00083909176631
C   3.65678936045204      4.97295361556775     -0.00065042889723
C   -2.45512642789169     -2.83421472106065      0.00758666850712
C   -3.68181869921921     -0.70932533146830      0.00810055625144
C   4.89301309775526     -2.82519973363176      0.00021895393805
C   -0.00000059327114      5.65044773803267      0.00045449734393
C   6.13477559217374     -0.68055448207492      0.00042622874941
C   2.47813196269732      5.65357712333155      0.00063835075260
C   1.22142288457925     -4.97012668293268     -0.00129718634452
C   -3.69316190412301      3.54279732619245     -0.00139355922051
C   -1.22142804110313     -4.97011793159564     -0.00140994817719
C   -4.91452132810043      1.42717581899491     -0.00153192130862
C   3.65678749952045     -4.97295485423912      0.00080007163680
C   -2.47813805026426      5.65357479452875      0.00092287576113
C   -3.69314125872231     -3.54278984697859      0.00136564082345
C   -4.91451200321153     -1.42718062802730      0.00139857359209
C   -0.00000552908399     -5.65043791501335      0.00005899322272
C   -4.89302000425900      2.82518897091939     -0.00040227981744
C   2.47812647313991     -5.65357317188818     -0.00029052915548
C   -3.65679823041642      4.97295655404175     -0.00047374852278
C   -4.89299899901461     -2.82519139505969      0.00006491824035
C   -2.47812801824129     -5.65356579800621     -0.00056571680280
C   -6.13477002348955      0.68054913825639     -0.00086464346868
C   -3.65678835334731     -4.97294365097028      0.00058578382008
C   -6.13476456307132     -0.68055354348201      0.00040575295444
H   5.83528897565761      3.36927626695423      0.00396712770529
H   7.07385965258860      1.22821762089947     -0.00037744837300
H   4.60066374401555      5.51238117445323     -0.00014522814529
H   5.83528386714679     -3.36930568472863     -0.00423551337640
H   -0.00001167146422      6.73853104613662     -0.00389474766392
H   7.07386165167227     -1.22822657074368     -0.00008250934481
H   2.47331421164041      6.74068466339473      0.00017162982210
H   4.60066897122302     -5.51237575717576      0.00039007446835
H   -2.47331820069565      6.74068209160650      0.00047297644710
H   -0.00000978838621     -6.73852780445195      0.00458867820736
H   -5.83530143450167      3.36927132229595      0.00410314985360
H   2.47330840367253     -6.74068500242887      0.00027980126949
H   -4.60067436136587      5.51237839860371      0.00002010017831
H   -5.83527902699321     -3.36928859177951     -0.00451481925734
H   -2.47329986759855     -6.74067870613986     -0.00016951527498
H   -7.07385728692578      1.22822084484047     -0.00046143985387
H   -4.60067330624313     -5.51236229778631      0.00021776644566
H   -7.07385645456741     -1.22822025997701     -0.00017736581114

    units angstrom      # Angstroms are the default
    no_reorient         # Geometry fixed, default
    symmetry c1         # C1 symmetry, default
}

set {
    scf_type DF         # Density fitting, faster than exact integrals
    freeze_core True    # Freeze core electrons
    basis jun-cc-pVDZ   # Jun-cc-pVDZ basis set, recommended for sSAPT0 in https://doi.org/10.1063/1.4867135
}

energy('ssapt0')        # Compute sSAPT0 energy, includes also SAPT0
--------------------------------------------------------------------------

  //              Dimer HF             //
    Molecular point group: c1
  Charge       = -1
  Multiplicity = 1
  Basis Set: JUN-CC-PVDZ
    Blend: JUN-CC-PVDZ
  Basis Set: (JUN-CC-PVDZ AUX)
    Blend: JUN-CC-PVDZ-JKFIT
  @DF-RHF Final Energy: -2478.66040749905915
    Total Energy =                      -2478.6604074990591471
 Dipole X            :         -0.0004557            0.0000481           -0.0004077
 Dipole Y            :          0.0009340           -0.0001453            0.0007887
 Dipole Z            :        -23.3841450           30.6518232            7.2676781
 Magnitude           :                                                    7.2676782
  //            Monomer A HF           //
    Molecular point group: c1
  Multiplicity = 1
  Basis Set: JUN-CC-PVDZ
    Blend: JUN-CC-PVDZ
  Basis Set: (JUN-CC-PVDZ AUX)
    Blend: JUN-CC-PVDZ-JKFIT
  @DF-RHF Final Energy:  -422.77201752986787
    Total Energy =                       -422.7720175298678669
  //            Monomer B HF           //
    Molecular point group: c1

    Geometry (in Angstrom), charge = 0, multiplicity = 1:

       Center              X                  Y                   Z               Mass
    ------------   -----------------  -----------------  -----------------  -----------------
      Gh(B)          -0.000198161052     0.000273808717    -4.422365449421    11.009305360000
      Gh(F)          -0.000000401852    -0.000000464183    -3.009580449421    18.998403162730
      Gh(F)           1.147859598148     0.675780735817    -4.893506449421    18.998403162730
      Gh(F)           0.011917658148    -1.332011464183    -4.893304449421    18.998403162730
      Gh(F)          -1.159666401852     0.656073035817    -4.893225449421    18.998403162730
         C            1.225311973413     0.707538196736     0.583738177862    12.000000000000
         C            1.225323934041    -0.707538986754     0.571407368292    12.000000000000
         C           -0.000006075942     1.414965821907     0.570873744771    12.000000000000
         C            2.456448831939     1.418327794995     0.586625035262    12.000000000000
         C            0.000010905269    -1.414976590818     0.581073302096    12.000000000000
         C           -1.225300870919     0.707545281801     0.585989698185    12.000000000000
         C            2.456437833310    -1.418323396064     0.569162211435    12.000000000000
         C           -0.000001254988     2.836800939098     0.568470194637    12.000000000000
         C            3.681826775460     0.709317863818     0.569511001233    12.000000000000
         C            2.455120126855     2.834223569306     0.569408444272    12.000000000000
         C            3.681821183209    -0.709333931612     0.585583485251    12.000000000000
         C           -1.225313520698    -0.707527607727     0.572480129719    12.000000000000
         C            1.226699659192     3.543469391811     0.585767517182    12.000000000000
         C            0.000004862847    -2.836782231419     0.585921469717    12.000000000000
         C           -2.456435954859     1.418316826102     0.586025094031    12.000000000000
         C            2.455123495769    -2.834230120772     0.585431576884    12.000000000000
         C           -1.226714286599     3.543468971567     0.585870850402    12.000000000000
         C            4.914517373191     1.427172780306     0.575991684263    12.000000000000
         C            3.693150269466     3.542795200362     0.576041483899    12.000000000000
         C           -2.456437522078    -1.418313373022     0.569137173311    12.000000000000
         C            1.226704919933    -3.543474334090     0.569797386432    12.000000000000
         C           -2.455125320518     2.834216570451     0.569414820619    12.000000000000
         C            4.914524458772    -1.427187002127     0.578964426997    12.000000000000
         C            1.221424691688     4.970133973077     0.579102861257    12.000000000000
         C            4.893008307311     2.825187907843     0.577208352621    12.000000000000
         C           -1.226696930499    -3.543471089260     0.570064590842    12.000000000000
         C           -3.681818898536     0.709324874549     0.569523681713    12.000000000000
         C            3.693147179140    -3.542801433574     0.579082317558    12.000000000000
         C           -1.221432174004     4.970128205680     0.579286356630    12.000000000000
         C            6.134771050916     0.680547854922     0.576761458812    12.000000000000
         C            3.656788958600     4.972953151384     0.576950121681    12.000000000000
         C           -2.455126829744    -2.834215185244     0.585187219086    12.000000000000
         C           -3.681819101071    -0.709325795652     0.585701106830    12.000000000000
         C            4.893012695903    -2.825200197815     0.577819504517    12.000000000000
         C           -0.000000995123     5.650447273849     0.578055047923    12.000000000000
         C            6.134775190322    -0.680554946258     0.578026779328    12.000000000000
         C            2.478131560845     5.653576659148     0.578238901331    12.000000000000
         C            1.221422482727    -4.970127147116     0.576303364234    12.000000000000
         C           -3.693162305975     3.542796862009     0.576206991358    12.000000000000
         C           -1.221428442955    -4.970118395779     0.576190602402    12.000000000000
         C           -4.914521729952     1.427175354812     0.576068629270    12.000000000000
         C            3.656787097669    -4.972955318422     0.578400622216    12.000000000000
         C           -2.478138452116     5.653574330345     0.578523426340    12.000000000000
         C           -3.693141660574    -3.542790311162     0.578966191402    12.000000000000
         C           -4.914512405063    -1.427181092211     0.578999124171    12.000000000000
         C           -0.000005930936    -5.650438379197     0.577659543801    12.000000000000
         C           -4.893020406111     2.825188506736     0.577198270761    12.000000000000
         C            2.478126071288    -5.653573636072     0.577310021423    12.000000000000
         C           -3.656798632268     4.972956089858     0.577126802056    12.000000000000
         C           -4.892999400866    -2.825191859243     0.577665468819    12.000000000000
         C           -2.478128420093    -5.653566262190     0.577034833776    12.000000000000
         C           -6.134770425341     0.680548674073     0.576735907110    12.000000000000
         C           -3.656788755199    -4.972944115154     0.578186334399    12.000000000000
         C           -6.134764964923    -0.680554007665     0.578006303533    12.000000000000
         H            5.835288573806     3.369275802771     0.581567678284     1.007825032230
         H            7.073859250737     1.228217156716     0.577223102206     1.007825032230
         H            4.600663342164     5.512380710270     0.577455322433     1.007825032230
         H            5.835283465295    -3.369306148912     0.573365037202     1.007825032230
         H           -0.000012073316     6.738530581953     0.573705802915     1.007825032230
         H            7.073861249820    -1.228227034927     0.577518041234     1.007825032230
         H            2.473313809789     6.740684199211     0.577772180401     1.007825032230
         H            4.600668569371    -5.512376221359     0.577990625047     1.007825032230
         H           -2.473318602548     6.740681627423     0.578073527026     1.007825032230
         H           -0.000010190238    -6.738528268635     0.582189228786     1.007825032230
         H           -5.835301836354     3.369270858113     0.581703700432     1.007825032230
         H            2.473308001821    -6.740685466612     0.577880351848     1.007825032230
         H           -4.600674763218     5.512377934420     0.577620650757     1.007825032230
         H           -5.835279428845    -3.369289055963     0.573085731321     1.007825032230
         H           -2.473300269450    -6.740679170323     0.577431035304     1.007825032230
         H           -7.073857688778     1.228220380657     0.577139110725     1.007825032230
         H           -4.600673708095    -5.512362761970     0.577818317024     1.007825032230
         H           -7.073856856419    -1.228220724160     0.577423184768     1.007825032230

  Charge       = 0
  Multiplicity = 1
  Basis Set: JUN-CC-PVDZ
    Blend: JUN-CC-PVDZ
  Basis Set: (JUN-CC-PVDZ AUX)
    Blend: JUN-CC-PVDZ-JKFIT

    Orbital Energies [Eh]
    ---------------------

    Doubly Occupied:

       1A    -11.260684     2A    -11.260233     3A    -11.260230
       4A    -11.259480     5A    -11.259479     6A    -11.259290
       7A    -11.259065     8A    -11.258993     9A    -11.258991
      10A    -11.258686    11A    -11.258682    12A    -11.258592
      13A    -11.258535    14A    -11.258532    15A    -11.258529
      16A    -11.258496    17A    -11.258490    18A    -11.258474
      19A    -11.258461    20A    -11.258456    21A    -11.258450
      22A    -11.258372    23A    -11.258368    24A    -11.258107
      25A    -11.257376    26A    -11.257314    27A    -11.257313
      28A    -11.257178    29A    -11.257177    30A    -11.257093
      31A    -11.256468    32A    -11.256397    33A    -11.256397
      34A    -11.256288    35A    -11.256287    36A    -11.256240
      37A    -11.252344    38A    -11.252344    39A    -11.252343
      40A    -11.252341    41A    -11.252339    42A    -11.252337
      43A    -11.251460    44A    -11.251458    45A    -11.251456
      46A    -11.251450    47A    -11.251450    48A    -11.251445
      49A    -11.250906    50A    -11.250905    51A    -11.250904
      52A    -11.250902    53A    -11.250900    54A    -11.250899
      55A     -1.244136    56A     -1.219903    57A     -1.219902
      58A     -1.189630    59A     -1.189623    60A     -1.181007
      61A     -1.157646    62A     -1.149066    63A     -1.135564
      64A     -1.135558    65A     -1.113277    66A     -1.113272
      67A     -1.082515    68A     -1.082508    69A     -1.078673
      70A     -1.066063    71A     -1.066059    72A     -1.039489
      73A     -1.024364    74A     -1.021837    75A     -1.021794
      76A     -1.017813    77A     -1.012873    78A     -0.987109
      79A     -0.987063    80A     -0.961959    81A     -0.961909
      82A     -0.894374    83A     -0.894348    84A     -0.888010
      85A     -0.886261    86A     -0.886204    87A     -0.881485
      88A     -0.881438    89A     -0.861983    90A     -0.837488
      91A     -0.818299    92A     -0.816697    93A     -0.812216
      94A     -0.812207    95A     -0.794770    96A     -0.794760
      97A     -0.746713    98A     -0.744939    99A     -0.733490
     100A     -0.733481   101A     -0.732266   102A     -0.732242
     103A     -0.716574   104A     -0.699059   105A     -0.699048
     106A     -0.693668   107A     -0.693652   108A     -0.661314
     109A     -0.653172   110A     -0.651239   111A     -0.650331
     112A     -0.650325   113A     -0.639446   114A     -0.639444
     115A     -0.629795   116A     -0.627605   117A     -0.627589
     118A     -0.606478   119A     -0.605879   120A     -0.601747
     121A     -0.599824   122A     -0.599793   123A     -0.593728
     124A     -0.591296   125A     -0.591285   126A     -0.585354
     127A     -0.576402   128A     -0.576396   129A     -0.567403
     130A     -0.567388   131A     -0.566028   132A     -0.566008
     133A     -0.558799   134A     -0.554922   135A     -0.554916
     136A     -0.538675   137A     -0.538673   138A     -0.538228
     139A     -0.538222   140A     -0.529803   141A     -0.528209
     142A     -0.522954   143A     -0.522947   144A     -0.500587
     145A     -0.495659   146A     -0.493319   147A     -0.487891
     148A     -0.485162   149A     -0.481841   150A     -0.481833
     151A     -0.470396   152A     -0.470379   153A     -0.451101
     154A     -0.451023   155A     -0.439133   156A     -0.439124
     157A     -0.404793   158A     -0.404770   159A     -0.403446
     160A     -0.375481   161A     -0.375478   162A     -0.349184
     163A     -0.337637   164A     -0.336623   165A     -0.336565
     166A     -0.311155   167A     -0.298164   168A     -0.284400
     169A     -0.284347   170A     -0.224981   171A     -0.224915

  @DF-RHF Final Energy: -2055.89277280921260

   => Energetics <=

    Nuclear Repulsion Energy =           6452.5568002797772351
    One-Electron Energy =              -15636.4577511338138720
    Two-Electron Energy =                7128.0081780448244899
    Total Energy =                      -2055.8927728092121470
 Dipole X            :          0.0000316            0.0000419            0.0000735
 Dipole Y            :          0.0000445           -0.0000426            0.0000019
 Dipole Z            :       -373.2917467          373.2938999            0.0021532
 Magnitude           :                                                    0.0021544

    SAPT Results
  --------------------------------------------------------------------------------------------------------
    Electrostatics                 10.95045141 [mEh]       6.87151200 [kcal/mol]      28.75040622 [kJ/mol]
      Elst10,r                     10.95045141 [mEh]       6.87151200 [kcal/mol]      28.75040622 [kJ/mol]

    Exchange                        0.45670929 [mEh]       0.28658940 [kcal/mol]       1.19909007 [kJ/mol]
      Exch10                        0.45670929 [mEh]       0.28658940 [kcal/mol]       1.19909007 [kJ/mol]
      Exch10(S^2)                   0.45675818 [mEh]       0.28662008 [kcal/mol]       1.19921843 [kJ/mol]

    Induction                      -7.02432068 [mEh]      -4.40782777 [kcal/mol]     -18.44235140 [kJ/mol]
      Ind20,r                      -7.14104261 [mEh]      -4.48107189 [kcal/mol]     -18.74880479 [kJ/mol]
      Exch-Ind20,r                  0.06959599 [mEh]       0.04367214 [kcal/mol]       0.18272424 [kJ/mol]
      delta HF,r (2)                0.04712595 [mEh]       0.02957198 [kcal/mol]       0.12372915 [kJ/mol]

    Dispersion                     -2.65154503 [mEh]      -1.66386963 [kcal/mol]      -6.96163052 [kJ/mol]
      Disp20                       -2.74113672 [mEh]      -1.72008926 [kcal/mol]      -7.19685345 [kJ/mol]
      Exch-Disp20                   0.08959168 [mEh]       0.05621963 [kcal/mol]       0.23522294 [kJ/mol]
      Disp20 (SS)                  -1.37056836 [mEh]      -0.86004463 [kcal/mol]      -3.59842673 [kJ/mol]
      Disp20 (OS)                  -1.37056836 [mEh]      -0.86004463 [kcal/mol]      -3.59842673 [kJ/mol]
      Exch-Disp20 (SS)              0.05693809 [mEh]       0.03572919 [kcal/mol]       0.14949094 [kJ/mol]
      Exch-Disp20 (OS)              0.03265359 [mEh]       0.02049044 [kcal/mol]       0.08573200 [kJ/mol]

  Total HF                          4.38284002 [mEh]       2.75027364 [kcal/mol]      11.50714489 [kJ/mol]
  Total SAPT0                       1.73129499 [mEh]       1.08640401 [kcal/mol]       4.54551437 [kJ/mol]

  Special recipe for scaled SAPT0 (see Manual):
    Electrostatics sSAPT0          10.95045141 [mEh]       6.87151200 [kcal/mol]      28.75040622 [kJ/mol]
    Exchange sSAPT0                 0.45670929 [mEh]       0.28658940 [kcal/mol]       1.19909007 [kJ/mol]
    Induction sSAPT0               -7.02434302 [mEh]      -4.40784179 [kcal/mol]     -18.44241007 [kJ/mol]
    Dispersion sSAPT0              -2.65157380 [mEh]      -1.66388768 [kcal/mol]      -6.96170605 [kJ/mol]
  Total sSAPT0                      1.73124388 [mEh]       1.08637193 [kcal/mol]       4.54538018 [kJ/mol]
  --------------------------------------------------------------------------------------------------------

*** Psi4 exiting successfully. Buy a developer a beer!
