                               Psi4 1.9 release

  ==> Input File <==

--------------------------------------------------------------------------
memory 32 GB # how much memory is available ! Depends on the nodes/cores !

molecule dimer {
# monomer A
+1 1    # Charge and multiplicity
C  0.680067 1.417258 -8.015929
C -0.680504 1.419286 -8.015545
N -1.085635 1.420284 -6.697221
C  0.000108 1.423560 -5.915820
C -2.477365 1.469690 -6.229242
N  1.085222 1.420284 -6.697221
H  1.385146 1.409430 -8.833368
H -1.385302 1.419096 -8.833214
H -0.000009 1.425307 -4.834731
C  2.478117 1.403392 -6.232123
H  2.490592 1.430737 -5.141870
H  2.967028 0.489946 -6.579299
H  3.001428 2.278875 -6.623595
H -2.857359 2.491761 -6.309201
H -3.082679 0.799606 -6.842306
H -2.518128 1.142706 -5.189294
--
# monomer B
0 1     # Charge and multiplicity
C   1.22531237526482      0.70753866091955      0.00613762728373
C   1.22532433589282     -0.70753852257020     -0.00619318228664
C   -0.00000567409046      1.41496628609039     -0.00672680580738
C   2.45644923379077      1.41832825917820      0.00902448468363
C   0.00001130712078     -1.41497612663474      0.00347275151708
C   -1.22530046906674      0.70754574598412      0.00838914760619
C   2.45643823516184     -1.41832293188077     -0.00843833914343
C   -0.00000085313587      2.83680140328112     -0.00913035594137
C   3.68182717731192      0.70931832800114     -0.00808954934571
C   2.45512052870677      2.83422403348893     -0.00819210630633
C   3.68182158506039     -0.70933346742900      0.00798293467272
C   -1.22531311884624     -0.70752714354401     -0.00512042085974
C   1.22670006104402      3.54346985599427      0.00816696660346
C   0.00000526469929     -2.83678176723568      0.00832091913869
C   -2.45643555300670      1.41831729028492      0.00842454345199
C   2.45512389762097     -2.83422965658853      0.00783102630520
C   -1.22671388474763      3.54346943575023      0.00827029982280
C   4.91451777504333      1.42717324448953     -0.00160886631602
C   3.69315067131765      3.54279566454522     -0.00155906667985
C   -2.45643712022637     -1.41831290883911     -0.00846337726810
C   1.22670532178455     -3.54347386990643     -0.00780316414624
C   -2.45512491866593      2.83421703463423     -0.00818572995999
C   4.91452486062398     -1.42718653794377      0.00136387641845
C   1.22142509354026      4.97013443726031      0.00150231067809
C   4.89300870916237      2.82518837202648     -0.00039219795739
C   -1.22669652864725     -3.54347062507680     -0.00753595973677
C   -3.68181849668397      0.70932533873199     -0.00807686886569
C   3.69314758099218     -3.54280096939050      0.00148176697923
C   -1.22143177215231      4.97012866986289      0.00168580605083
C   6.13477145276790      0.68054831910577     -0.00083909176631
C   3.65678936045204      4.97295361556775     -0.00065042889723
C   -2.45512642789169     -2.83421472106065      0.00758666850712
C   -3.68181869921921     -0.70932533146830      0.00810055625144
C   4.89301309775526     -2.82519973363176      0.00021895393805
C   -0.00000059327114      5.65044773803267      0.00045449734393
C   6.13477559217374     -0.68055448207492      0.00042622874941
C   2.47813196269732      5.65357712333155      0.00063835075260
C   1.22142288457925     -4.97012668293268     -0.00129718634452
C   -3.69316190412301      3.54279732619245     -0.00139355922051
C   -1.22142804110313     -4.97011793159564     -0.00140994817719
C   -4.91452132810043      1.42717581899491     -0.00153192130862
C   3.65678749952045     -4.97295485423912      0.00080007163680
C   -2.47813805026426      5.65357479452875      0.00092287576113
C   -3.69314125872231     -3.54278984697859      0.00136564082345
C   -4.91451200321153     -1.42718062802730      0.00139857359209
C   -0.00000552908399     -5.65043791501335      0.00005899322272
C   -4.89302000425900      2.82518897091939     -0.00040227981744
C   2.47812647313991     -5.65357317188818     -0.00029052915548
C   -3.65679823041642      4.97295655404175     -0.00047374852278
C   -4.89299899901461     -2.82519139505969      0.00006491824035
C   -2.47812801824129     -5.65356579800621     -0.00056571680280
C   -6.13477002348955      0.68054913825639     -0.00086464346868
C   -3.65678835334731     -4.97294365097028      0.00058578382008
C   -6.13476456307132     -0.68055354348201      0.00040575295444
H   5.83528897565761      3.36927626695423      0.00396712770529
H   7.07385965258860      1.22821762089947     -0.00037744837300
H   4.60066374401555      5.51238117445323     -0.00014522814529
H   5.83528386714679     -3.36930568472863     -0.00423551337640
H   -0.00001167146422      6.73853104613662     -0.00389474766392
H   7.07386165167227     -1.22822657074368     -0.00008250934481
H   2.47331421164041      6.74068466339473      0.00017162982210
H   4.60066897122302     -5.51237575717576      0.00039007446835
H   -2.47331820069565      6.74068209160650      0.00047297644710
H   -0.00000978838621     -6.73852780445195      0.00458867820736
H   -5.83530143450167      3.36927132229595      0.00410314985360
H   2.47330840367253     -6.74068500242887      0.00027980126949
H   -4.60067436136587      5.51237839860371      0.00002010017831
H   -5.83527902699321     -3.36928859177951     -0.00451481925734
H   -2.47329986759855     -6.74067870613986     -0.00016951527498
H   -7.07385728692578      1.22822084484047     -0.00046143985387
H   -4.60067330624313     -5.51236229778631      0.00021776644566
H   -7.07385645456741     -1.22822025997701     -0.00017736581114

    units angstrom      # Angstroms are the default
    no_reorient         # Geometry fixed, default
    symmetry c1         # C1 symmetry, default
}

set {
    scf_type DF         # Density fitting, faster than exact integrals
    freeze_core True    # Freeze core electrons
    basis jun-cc-pVDZ   # Jun-cc-pVDZ basis set, recommended for sSAPT0 in https://doi.org/10.1063/1.4867135
}

energy('ssapt0')        # Compute sSAPT0 energy, includes also SAPT0
--------------------------------------------------------------------------

  //              Dimer HF             //
    Molecular point group: c1
  Charge       = 1
  Multiplicity = 1
  Basis Set: JUN-CC-PVDZ
    Blend: JUN-CC-PVDZ
  Basis Set: (JUN-CC-PVDZ AUX)
    Blend: JUN-CC-PVDZ-JKFIT
  @DF-RHF Final Energy: -2359.20058277178896
    Total Energy =                      -2359.2005827717894135
 Dipole X            :         -0.0017053            0.0006313           -0.0010740
 Dipole Y            :         -5.6448641            7.4856329            1.8407688
 Dipole Z            :         23.7326483          -33.5593948           -9.8267465
 Magnitude           :                                                    9.9976686
  //            Monomer A HF           //
    Molecular point group: c1
  Multiplicity = 1
  Basis Set: JUN-CC-PVDZ
    Blend: JUN-CC-PVDZ
  Basis Set: (JUN-CC-PVDZ AUX)
    Blend: JUN-CC-PVDZ-JKFIT
  @DF-RHF Final Energy:  -303.29728851859113
    Total Energy =                       -303.2972885185911309
  //            Monomer B HF           //
    Molecular point group: c1

    Geometry (in Angstrom), charge = 0, multiplicity = 1:

       Center              X                  Y                   Z               Mass
    ------------   -----------------  -----------------  -----------------  -----------------
      Gh(C)           0.680066520158     1.235968212970    -7.151012993311    12.000000000000
      Gh(C)          -0.680504479842     1.237996212970    -7.150628993311    12.000000000000
      Gh(N)          -1.085635479842     1.238994212970    -5.832304993311    14.003074004430
      Gh(C)           0.000107520158     1.242270212970    -5.050903993311    12.000000000000
      Gh(C)          -2.477365479842     1.288400212970    -5.364325993311    12.000000000000
      Gh(N)           1.085221520158     1.238994212970    -5.832304993311    14.003074004430
      Gh(H)           1.385145520158     1.228140212970    -7.968451993311     1.007825032230
      Gh(H)          -1.385302479842     1.237806212970    -7.968297993311     1.007825032230
      Gh(H)          -0.000009479842     1.244017212970    -3.969814993311     1.007825032230
      Gh(C)           2.478116520158     1.222102212970    -5.367206993311    12.000000000000
      Gh(H)           2.490591520158     1.249447212970    -4.276953993311     1.007825032230
      Gh(H)           2.967027520158     0.308656212970    -5.714382993311     1.007825032230
      Gh(H)           3.001427520158     2.097585212970    -5.758678993311     1.007825032230
      Gh(H)          -2.857359479842     2.310471212970    -5.444284993311     1.007825032230
      Gh(H)          -3.082679479842     0.618316212970    -5.977389993311     1.007825032230
      Gh(H)          -2.518128479842     0.961416212970    -4.324377993311     1.007825032230
         C            1.225311895423     0.526248873889     0.871053633973    12.000000000000
         C            1.225323856051    -0.888828309601     0.858722824403    12.000000000000
         C           -0.000006153932     1.233676499060     0.858189200882    12.000000000000
         C            2.456448753949     1.237038472148     0.873940491373    12.000000000000
         C            0.000010827279    -1.596265913665     0.868388758206    12.000000000000
         C           -1.225300948908     0.526255958954     0.873305154296    12.000000000000
         C            2.456437755320    -1.599612718911     0.856477667546    12.000000000000
         C           -0.000001332978     2.655511616251     0.855785650748    12.000000000000
         C            3.681826697470     0.528028540971     0.856826457344    12.000000000000
         C            2.455120048865     2.652934246459     0.856723900383    12.000000000000
         C            3.681821105219    -0.890623254459     0.872898941362    12.000000000000
         C           -1.225313598688    -0.888816930574     0.859795585830    12.000000000000
         C            1.226699581202     3.362180068964     0.873082973293    12.000000000000
         C            0.000004784858    -3.018071554266     0.873236925828    12.000000000000
         C           -2.456436032848     1.237027503255     0.873340550141    12.000000000000
         C            2.455123417779    -3.015519443619     0.872747032995    12.000000000000
         C           -1.226714364589     3.362179648720     0.873186306512    12.000000000000
         C            4.914517295202     1.245883457459     0.863307140373    12.000000000000
         C            3.693150191476     3.361505877515     0.863356940010    12.000000000000
         C           -2.456437600068    -1.599602695869     0.856452629421    12.000000000000
         C            1.226704841943    -3.724763656937     0.857112842543    12.000000000000
         C           -2.455125398508     2.652927247604     0.856730276729    12.000000000000
         C            4.914524380782    -1.608476324974     0.866279883108    12.000000000000
         C            1.221424613699     4.788844650230     0.866418317367    12.000000000000
         C            4.893008229321     2.643898584996     0.864523808732    12.000000000000
         C           -1.226697008489    -3.724760412107     0.857380046953    12.000000000000
         C           -3.681818976526     0.528035551702     0.856839137824    12.000000000000
         C            3.693147101150    -3.724090756421     0.866397773669    12.000000000000
         C           -1.221432251994     4.788838882833     0.866601812740    12.000000000000
         C            6.134770972926     0.499258532075     0.864076914923    12.000000000000
         C            3.656788880610     4.791663828537     0.864265577792    12.000000000000
         C           -2.455126907733    -3.015504508091     0.872502675196    12.000000000000
         C           -3.681819179061    -0.890615118499     0.873016562941    12.000000000000
         C            4.893012617914    -3.006489520662     0.865134960627    12.000000000000
         C           -0.000001073113     5.469157951002     0.865370504033    12.000000000000
         C            6.134775112332    -0.861844269105     0.865342235439    12.000000000000
         C            2.478131482856     5.472287336301     0.865554357442    12.000000000000
         C            1.221422404738    -5.151416469963     0.863618820345    12.000000000000
         C           -3.693162383965     3.361507539162     0.863522447469    12.000000000000
         C           -1.221428520945    -5.151407718626     0.863506058512    12.000000000000
         C           -4.914521807942     1.245886031965     0.863384085381    12.000000000000
         C            3.656787019679    -5.154244641269     0.865716078326    12.000000000000
         C           -2.478138530106     5.472285007498     0.865838882450    12.000000000000
         C           -3.693141738564    -3.724079634009     0.866281647513    12.000000000000
         C           -4.914512483053    -1.608470415058     0.866314580281    12.000000000000
         C           -0.000006008926    -5.831727702044     0.864974999912    12.000000000000
         C           -4.893020484101     2.643899183889     0.864513726872    12.000000000000
         C            2.478125993298    -5.834862958919     0.864625477534    12.000000000000
         C           -3.656798710258     4.791666767011     0.864442258167    12.000000000000
         C           -4.892999478856    -3.006481182090     0.864980924930    12.000000000000
         C           -2.478128498083    -5.834855585037     0.864350289887    12.000000000000
         C           -6.134770503331     0.499259351226     0.864051363221    12.000000000000
         C           -3.656788833189    -5.154233438001     0.865501790509    12.000000000000
         C           -6.134765042913    -0.861843330512     0.865321759644    12.000000000000
         H            5.835288495816     3.187986479924     0.868883134395     1.007825032230
         H            7.073859172747     1.046927833869     0.864538558316     1.007825032230
         H            4.600663264174     5.331091387423     0.864770778544     1.007825032230
         H            5.835283387305    -3.550595471759     0.860680493313     1.007825032230
         H           -0.000012151306     6.557241259106     0.861021259025     1.007825032230
         H            7.073861171831    -1.409516357774     0.864833497345     1.007825032230
         H            2.473313731799     6.559394876364     0.865087636511     1.007825032230
         H            4.600668491381    -5.693665544206     0.865306081158     1.007825032230
         H           -2.473318680537     6.559392304576     0.865388983136     1.007825032230
         H           -0.000010268228    -6.919817591482     0.869504684897     1.007825032230
         H           -5.835301914343     3.187981535266     0.869019156543     1.007825032230
         H            2.473307923831    -6.921974789459     0.865195807959     1.007825032230
         H           -4.600674841208     5.331088611573     0.864936106868     1.007825032230
         H           -5.835279506835    -3.550578378810     0.860401187432     1.007825032230
         H           -2.473300347440    -6.921968493170     0.864746491414     1.007825032230
         H           -7.073857766768     1.046931057810     0.864454566835     1.007825032230
         H           -4.600673786085    -5.693652084817     0.865133773135     1.007825032230
         H           -7.073856934409    -1.409510047007     0.864738640878     1.007825032230

  Charge       = 0
  Multiplicity = 1
  Basis Set: JUN-CC-PVDZ
    Blend: JUN-CC-PVDZ
  Basis Set: (JUN-CC-PVDZ AUX)
    Blend: JUN-CC-PVDZ-JKFIT

    Orbital Energies [Eh]
    ---------------------

    Doubly Occupied:

       1A    -11.260626     2A    -11.260184     3A    -11.260182
       4A    -11.259474     5A    -11.259472     6A    -11.259303
       7A    -11.259094     8A    -11.259018     9A    -11.259015
      10A    -11.258691    11A    -11.258689    12A    -11.258620
      13A    -11.258558    14A    -11.258555    15A    -11.258549
      16A    -11.258521    17A    -11.258515    18A    -11.258498
      19A    -11.258487    20A    -11.258479    21A    -11.258475
      22A    -11.258375    23A    -11.258372    24A    -11.258072
      25A    -11.257414    26A    -11.257354    27A    -11.257350
      28A    -11.257217    29A    -11.257215    30A    -11.257131
      31A    -11.256509    32A    -11.256439    33A    -11.256437
      34A    -11.256330    35A    -11.256327    36A    -11.256281
      37A    -11.252369    38A    -11.252366    39A    -11.252357
      40A    -11.252355    41A    -11.252354    42A    -11.252352
      43A    -11.251496    44A    -11.251488    45A    -11.251486
      46A    -11.251480    47A    -11.251477    48A    -11.251470
      49A    -11.250930    50A    -11.250927    51A    -11.250919
      52A    -11.250917    53A    -11.250915    54A    -11.250913
      55A     -1.244217    56A     -1.219949    57A     -1.219949
      58A     -1.189664    59A     -1.189656    60A     -1.181093
      61A     -1.157669    62A     -1.149096    63A     -1.135637
      64A     -1.135628    65A     -1.113302    66A     -1.113296
      67A     -1.082563    68A     -1.082555    69A     -1.078741
      70A     -1.066085    71A     -1.066082    72A     -1.039517
      73A     -1.024417    74A     -1.021917    75A     -1.021873
      76A     -1.017833    77A     -1.012897    78A     -0.987154
      79A     -0.987106    80A     -0.961991    81A     -0.961941
      82A     -0.894407    83A     -0.894382    84A     -0.888086
      85A     -0.886334    86A     -0.886278    87A     -0.881530
      88A     -0.881483    89A     -0.862014    90A     -0.837503
      91A     -0.818327    92A     -0.816758    93A     -0.812269
      94A     -0.812261    95A     -0.794798    96A     -0.794788
      97A     -0.746763    98A     -0.744994    99A     -0.733557
     100A     -0.733551   101A     -0.732294   102A     -0.732272
     103A     -0.716631   104A     -0.699091   105A     -0.699077
     106A     -0.693712   107A     -0.693693   108A     -0.661342
     109A     -0.653259   110A     -0.651303   111A     -0.650361
     112A     -0.650356   113A     -0.639471   114A     -0.639466
     115A     -0.629844   116A     -0.627656   117A     -0.627639
     118A     -0.606477   119A     -0.605893   120A     -0.601794
     121A     -0.599858   122A     -0.599823   123A     -0.593756
     124A     -0.591374   125A     -0.591361   126A     -0.585371
     127A     -0.576429   128A     -0.576406   129A     -0.567425
     130A     -0.567411   131A     -0.566093   132A     -0.566076
     133A     -0.558867   134A     -0.554963   135A     -0.554958
     136A     -0.538703   137A     -0.538700   138A     -0.538262
     139A     -0.538257   140A     -0.529832   141A     -0.528193
     142A     -0.522991   143A     -0.522980   144A     -0.500612
     145A     -0.495687   146A     -0.493348   147A     -0.487915
     148A     -0.485197   149A     -0.481880   150A     -0.481873
     151A     -0.470401   152A     -0.470389   153A     -0.451171
     154A     -0.451094   155A     -0.439153   156A     -0.439143
     157A     -0.404828   158A     -0.404806   159A     -0.403452
     160A     -0.375506   161A     -0.375502   162A     -0.349208
     163A     -0.337669   164A     -0.336637   165A     -0.336580
     166A     -0.311183   167A     -0.298174   168A     -0.284433
     169A     -0.284382   170A     -0.225005   171A     -0.224940

  @DF-RHF Final Energy: -2055.89222762110421

   => Energetics <=

    Nuclear Repulsion Energy =           6452.5568002797781446
    One-Electron Energy =              -15636.4456205348760705
    Two-Electron Energy =                7127.9965926339946236
    Total Energy =                      -2055.8922276211042117
 Dipole X            :          0.0001379           -0.0000085            0.0001294
 Dipole Y            :        117.1666470         -117.1648546            0.0017924
 Dipole Z            :       -558.9753543          558.9819530            0.0065987
 Magnitude           :                                                    0.0068391

    SAPT Results
  --------------------------------------------------------------------------------------------------------
    Electrostatics                 -8.02027738 [mEh]      -5.03280004 [kcal/mol]     -21.05723537 [kJ/mol]
      Elst10,r                     -8.02027738 [mEh]      -5.03280004 [kcal/mol]     -21.05723537 [kJ/mol]

    Exchange                        0.00165317 [mEh]       0.00103738 [kcal/mol]       0.00434040 [kJ/mol]
      Exch10                        0.00165317 [mEh]       0.00103738 [kcal/mol]       0.00434040 [kJ/mol]
      Exch10(S^2)                   0.00165317 [mEh]       0.00103738 [kcal/mol]       0.00434040 [kJ/mol]

    Induction                      -3.04800788 [mEh]      -1.91265382 [kcal/mol]      -8.00254360 [kJ/mol]
      Ind20,r                      -2.97163692 [mEh]      -1.86473032 [kcal/mol]      -7.80203167 [kJ/mol]
      Exch-Ind20,r                  0.00133185 [mEh]       0.00083575 [kcal/mol]       0.00349678 [kJ/mol]
      delta HF,r (2)               -0.07770281 [mEh]      -0.04875925 [kcal/mol]      -0.20400871 [kJ/mol]

    Dispersion                     -1.78209307 [mEh]      -1.11828029 [kcal/mol]      -4.67888471 [kJ/mol]
      Disp20                       -1.78265861 [mEh]      -1.11863517 [kcal/mol]      -4.68036954 [kJ/mol]
      Exch-Disp20                   0.00056554 [mEh]       0.00035488 [kcal/mol]       0.00148483 [kJ/mol]
      Disp20 (SS)                  -0.89132931 [mEh]      -0.55931758 [kcal/mol]      -2.34018477 [kJ/mol]
      Disp20 (OS)                  -0.89132931 [mEh]      -0.55931758 [kcal/mol]      -2.34018477 [kJ/mol]
      Exch-Disp20 (SS)              0.00041065 [mEh]       0.00025769 [kcal/mol]       0.00107816 [kJ/mol]
      Exch-Disp20 (OS)              0.00015489 [mEh]       0.00009720 [kcal/mol]       0.00040667 [kJ/mol]

  Total HF                        -11.06663209 [mEh]      -6.94441648 [kcal/mol]     -29.05543856 [kJ/mol]
  Total SAPT0                     -12.84872516 [mEh]      -8.06269677 [kcal/mol]     -33.73432327 [kJ/mol]

  Special recipe for scaled SAPT0 (see Manual):
    Electrostatics sSAPT0          -8.02027738 [mEh]      -5.03280004 [kcal/mol]     -21.05723537 [kJ/mol]
    Exchange sSAPT0                 0.00165317 [mEh]       0.00103738 [kcal/mol]       0.00434040 [kJ/mol]
    Induction sSAPT0               -3.04800788 [mEh]      -1.91265382 [kcal/mol]      -8.00254360 [kJ/mol]
    Dispersion sSAPT0              -1.78209307 [mEh]      -1.11828029 [kcal/mol]      -4.67888471 [kJ/mol]
  Total sSAPT0                    -12.84872516 [mEh]      -8.06269677 [kcal/mol]     -33.73432327 [kJ/mol]
  --------------------------------------------------------------------------------------------------------

*** Psi4 exiting successfully. Buy a developer a beer!
