                               Psi4 1.9 release

  ==> Input File <==

--------------------------------------------------------------------------
memory 32 GB # how much memory is available ! Depends on the nodes/cores !

molecule dimer {
# monomer A
-1 1    # Charge and multiplicity
B -1.977592e-04  2.742729e-04 5.000034
F  1.123153e-16  1.430594e-17 6.412819
F  1.147860e+00  6.757812e-01 4.528893
F  1.191806e-02 -1.332011e+00 4.529095
F -1.159666e+00  6.560735e-01 4.529174
--
# monomer B
0 1     # Charge and multiplicity
C   1.22531237526482      0.70753866091955      0.00613762728373
C   1.22532433589282     -0.70753852257020     -0.00619318228664
C   -0.00000567409046      1.41496628609039     -0.00672680580738
C   2.45644923379077      1.41832825917820      0.00902448468363
C   0.00001130712078     -1.41497612663474      0.00347275151708
C   -1.22530046906674      0.70754574598412      0.00838914760619
C   2.45643823516184     -1.41832293188077     -0.00843833914343
C   -0.00000085313587      2.83680140328112     -0.00913035594137
C   3.68182717731192      0.70931832800114     -0.00808954934571
C   2.45512052870677      2.83422403348893     -0.00819210630633
C   3.68182158506039     -0.70933346742900      0.00798293467272
C   -1.22531311884624     -0.70752714354401     -0.00512042085974
C   1.22670006104402      3.54346985599427      0.00816696660346
C   0.00000526469929     -2.83678176723568      0.00832091913869
C   -2.45643555300670      1.41831729028492      0.00842454345199
C   2.45512389762097     -2.83422965658853      0.00783102630520
C   -1.22671388474763      3.54346943575023      0.00827029982280
C   4.91451777504333      1.42717324448953     -0.00160886631602
C   3.69315067131765      3.54279566454522     -0.00155906667985
C   -2.45643712022637     -1.41831290883911     -0.00846337726810
C   1.22670532178455     -3.54347386990643     -0.00780316414624
C   -2.45512491866593      2.83421703463423     -0.00818572995999
C   4.91452486062398     -1.42718653794377      0.00136387641845
C   1.22142509354026      4.97013443726031      0.00150231067809
C   4.89300870916237      2.82518837202648     -0.00039219795739
C   -1.22669652864725     -3.54347062507680     -0.00753595973677
C   -3.68181849668397      0.70932533873199     -0.00807686886569
C   3.69314758099218     -3.54280096939050      0.00148176697923
C   -1.22143177215231      4.97012866986289      0.00168580605083
C   6.13477145276790      0.68054831910577     -0.00083909176631
C   3.65678936045204      4.97295361556775     -0.00065042889723
C   -2.45512642789169     -2.83421472106065      0.00758666850712
C   -3.68181869921921     -0.70932533146830      0.00810055625144
C   4.89301309775526     -2.82519973363176      0.00021895393805
C   -0.00000059327114      5.65044773803267      0.00045449734393
C   6.13477559217374     -0.68055448207492      0.00042622874941
C   2.47813196269732      5.65357712333155      0.00063835075260
C   1.22142288457925     -4.97012668293268     -0.00129718634452
C   -3.69316190412301      3.54279732619245     -0.00139355922051
C   -1.22142804110313     -4.97011793159564     -0.00140994817719
C   -4.91452132810043      1.42717581899491     -0.00153192130862
C   3.65678749952045     -4.97295485423912      0.00080007163680
C   -2.47813805026426      5.65357479452875      0.00092287576113
C   -3.69314125872231     -3.54278984697859      0.00136564082345
C   -4.91451200321153     -1.42718062802730      0.00139857359209
C   -0.00000552908399     -5.65043791501335      0.00005899322272
C   -4.89302000425900      2.82518897091939     -0.00040227981744
C   2.47812647313991     -5.65357317188818     -0.00029052915548
C   -3.65679823041642      4.97295655404175     -0.00047374852278
C   -4.89299899901461     -2.82519139505969      0.00006491824035
C   -2.47812801824129     -5.65356579800621     -0.00056571680280
C   -6.13477002348955      0.68054913825639     -0.00086464346868
C   -3.65678835334731     -4.97294365097028      0.00058578382008
C   -6.13476456307132     -0.68055354348201      0.00040575295444
H   5.83528897565761      3.36927626695423      0.00396712770529
H   7.07385965258860      1.22821762089947     -0.00037744837300
H   4.60066374401555      5.51238117445323     -0.00014522814529
H   5.83528386714679     -3.36930568472863     -0.00423551337640
H   -0.00001167146422      6.73853104613662     -0.00389474766392
H   7.07386165167227     -1.22822657074368     -0.00008250934481
H   2.47331421164041      6.74068466339473      0.00017162982210
H   4.60066897122302     -5.51237575717576      0.00039007446835
H   -2.47331820069565      6.74068209160650      0.00047297644710
H   -0.00000978838621     -6.73852780445195      0.00458867820736
H   -5.83530143450167      3.36927132229595      0.00410314985360
H   2.47330840367253     -6.74068500242887      0.00027980126949
H   -4.60067436136587      5.51237839860371      0.00002010017831
H   -5.83527902699321     -3.36928859177951     -0.00451481925734
H   -2.47329986759855     -6.74067870613986     -0.00016951527498
H   -7.07385728692578      1.22822084484047     -0.00046143985387
H   -4.60067330624313     -5.51236229778631      0.00021776644566
H   -7.07385645456741     -1.22822025997701     -0.00017736581114

    units angstrom      # Angstroms are the default
    no_reorient         # Geometry fixed, default
    symmetry c1         # C1 symmetry, default
}

set {
    scf_type DF         # Density fitting, faster than exact integrals
    freeze_core True    # Freeze core electrons
    basis jun-cc-pVDZ   # Jun-cc-pVDZ basis set, recommended for sSAPT0 in https://doi.org/10.1063/1.4867135
}

energy('ssapt0')        # Compute sSAPT0 energy, includes also SAPT0
--------------------------------------------------------------------------

  //              Dimer HF             //
    Molecular point group: c1
  Charge       = -1
  Multiplicity = 1
  Basis Set: JUN-CC-PVDZ
    Blend: JUN-CC-PVDZ
  Basis Set: (JUN-CC-PVDZ AUX)
    Blend: JUN-CC-PVDZ-JKFIT
  @DF-RHF Final Energy: -2478.65967826609676
    Total Energy =                      -2478.6596782660963072
 Dipole X            :         -0.0005375            0.0000481           -0.0004894
 Dipole Y            :          0.0010088           -0.0001453            0.0008635
 Dipole Z            :         23.3722607          -30.6515121           -7.2792514
 Magnitude           :                                                    7.2792515
  //            Monomer A HF           //
    Molecular point group: c1
  Multiplicity = 1
  Basis Set: JUN-CC-PVDZ
    Blend: JUN-CC-PVDZ
  Basis Set: (JUN-CC-PVDZ AUX)
    Blend: JUN-CC-PVDZ-JKFIT
  @DF-RHF Final Energy:  -422.77195761752898
    Total Energy =                       -422.7719576175289831
  //            Monomer B HF           //
    Molecular point group: c1

    Geometry (in Angstrom), charge = 0, multiplicity = 1:

       Center              X                  Y                   Z               Mass
    ------------   -----------------  -----------------  -----------------  -----------------
      Gh(B)          -0.000198161052     0.000273808717     4.422437871813    11.009305360000
      Gh(F)          -0.000000401852    -0.000000464183     5.835222871813    18.998403162730
      Gh(F)           1.147859598148     0.675780735817     3.951296871813    18.998403162730
      Gh(F)           0.011917658148    -1.332011464183     3.951498871813    18.998403162730
      Gh(F)          -1.159666401852     0.656073035817     3.951577871813    18.998403162730
         C            1.225311973413     0.707538196736    -0.571458500903    12.000000000000
         C            1.225323934041    -0.707538986754    -0.583789310473    12.000000000000
         C           -0.000006075942     1.414965821907    -0.584322933994    12.000000000000
         C            2.456448831939     1.418327794995    -0.568571643503    12.000000000000
         C            0.000010905269    -1.414976590818    -0.574123376670    12.000000000000
         C           -1.225300870919     0.707545281801    -0.569206980580    12.000000000000
         C            2.456437833310    -1.418323396064    -0.586034467330    12.000000000000
         C           -0.000001254988     2.836800939098    -0.586726484128    12.000000000000
         C            3.681826775460     0.709317863818    -0.585685677532    12.000000000000
         C            2.455120126855     2.834223569306    -0.585788234493    12.000000000000
         C            3.681821183209    -0.709333931612    -0.569613193514    12.000000000000
         C           -1.225313520698    -0.707527607727    -0.582716549046    12.000000000000
         C            1.226699659192     3.543469391811    -0.569429161583    12.000000000000
         C            0.000004862847    -2.836782231419    -0.569275209048    12.000000000000
         C           -2.456435954859     1.418316826102    -0.569171584735    12.000000000000
         C            2.455123495769    -2.834230120772    -0.569765101881    12.000000000000
         C           -1.226714286599     3.543468971567    -0.569325828364    12.000000000000
         C            4.914517373191     1.427172780306    -0.579204994503    12.000000000000
         C            3.693150269466     3.542795200362    -0.579155194866    12.000000000000
         C           -2.456437522078    -1.418313373022    -0.586059505455    12.000000000000
         C            1.226704919933    -3.543474334090    -0.585399292333    12.000000000000
         C           -2.455125320518     2.834216570451    -0.585781858147    12.000000000000
         C            4.914524458772    -1.427187002127    -0.576232251768    12.000000000000
         C            1.221424691688     4.970133973077    -0.576093817509    12.000000000000
         C            4.893008307311     2.825187907843    -0.577988326144    12.000000000000
         C           -1.226696930499    -3.543471089260    -0.585132087923    12.000000000000
         C           -3.681818898536     0.709324874549    -0.585672997052    12.000000000000
         C            3.693147179140    -3.542801433574    -0.576114361207    12.000000000000
         C           -1.221432174004     4.970128205680    -0.575910322136    12.000000000000
         C            6.134771050916     0.680547854922    -0.578435219953    12.000000000000
         C            3.656788958600     4.972953151384    -0.578246557084    12.000000000000
         C           -2.455126829744    -2.834215185244    -0.570009459680    12.000000000000
         C           -3.681819101071    -0.709325795652    -0.569495571935    12.000000000000
         C            4.893012695903    -2.825200197815    -0.577377174249    12.000000000000
         C           -0.000000995123     5.650447273849    -0.577141630843    12.000000000000
         C            6.134775190322    -0.680554946258    -0.577169899437    12.000000000000
         C            2.478131560845     5.653576659148    -0.576957777434    12.000000000000
         C            1.221422482727    -4.970127147116    -0.578893314531    12.000000000000
         C           -3.693162305975     3.542796862009    -0.578989687407    12.000000000000
         C           -1.221428442955    -4.970118395779    -0.579006076364    12.000000000000
         C           -4.914521729952     1.427175354812    -0.579128049495    12.000000000000
         C            3.656787097669    -4.972955318422    -0.576796056550    12.000000000000
         C           -2.478138452116     5.653574330345    -0.576673252425    12.000000000000
         C           -3.693141660574    -3.542790311162    -0.576230487363    12.000000000000
         C           -4.914512405063    -1.427181092211    -0.576197554595    12.000000000000
         C           -0.000005930936    -5.650438379197    -0.577537134964    12.000000000000
         C           -4.893020406111     2.825188506736    -0.577998408004    12.000000000000
         C            2.478126071288    -5.653573636072    -0.577886657342    12.000000000000
         C           -3.656798632268     4.972956089858    -0.578069876709    12.000000000000
         C           -4.892999400866    -2.825191859243    -0.577531209946    12.000000000000
         C           -2.478128420093    -5.653566262190    -0.578161844989    12.000000000000
         C           -6.134770425341     0.680548674073    -0.578460771655    12.000000000000
         C           -3.656788755199    -4.972944115154    -0.577010344367    12.000000000000
         C           -6.134764964923    -0.680554007665    -0.577190375232    12.000000000000
         H            5.835288573806     3.369275802771    -0.573629000481     1.007825032230
         H            7.073859250737     1.228217156716    -0.577973576560     1.007825032230
         H            4.600663342164     5.512380710270    -0.577741356332     1.007825032230
         H            5.835283465295    -3.369306148912    -0.581831641563     1.007825032230
         H           -0.000012073316     6.738530581953    -0.581490875851     1.007825032230
         H            7.073861249820    -1.228227034927    -0.577678637531     1.007825032230
         H            2.473313809789     6.740684199211    -0.577424498365     1.007825032230
         H            4.600668569371    -5.512376221359    -0.577206053718     1.007825032230
         H           -2.473318602548     6.740681627423    -0.577123151740     1.007825032230
         H           -0.000010190238    -6.738528268635    -0.573007449979     1.007825032230
         H           -5.835301836354     3.369270858113    -0.573492978333     1.007825032230
         H            2.473308001821    -6.740685466612    -0.577316326917     1.007825032230
         H           -4.600674763218     5.512377934420    -0.577576028008     1.007825032230
         H           -5.835279428845    -3.369289055963    -0.582110947444     1.007825032230
         H           -2.473300269450    -6.740679170323    -0.577765643462     1.007825032230
         H           -7.073857688778     1.228220380657    -0.578057568040     1.007825032230
         H           -4.600673708095    -5.512362761970    -0.577378361741     1.007825032230
         H           -7.073856856419    -1.228220724160    -0.577773493998     1.007825032230

  Charge       = 0
  Multiplicity = 1
  Basis Set: JUN-CC-PVDZ
    Blend: JUN-CC-PVDZ
  Basis Set: (JUN-CC-PVDZ AUX)
    Blend: JUN-CC-PVDZ-JKFIT

    Orbital Energies [Eh]
    ---------------------

    Doubly Occupied:

       1A    -11.260615     2A    -11.260171     3A    -11.260169
       4A    -11.259452     5A    -11.259451     6A    -11.259279
       7A    -11.259062     8A    -11.258986     9A    -11.258985
      10A    -11.258662    11A    -11.258658    12A    -11.258584
      13A    -11.258524    14A    -11.258519    15A    -11.258517
      16A    -11.258486    17A    -11.258481    18A    -11.258464
      19A    -11.258453    20A    -11.258448    21A    -11.258443
      22A    -11.258350    23A    -11.258347    24A    -11.258056
      25A    -11.257372    26A    -11.257310    27A    -11.257309
      28A    -11.257175    29A    -11.257175    30A    -11.257091
      31A    -11.256465    32A    -11.256395    33A    -11.256394
      34A    -11.256285    35A    -11.256285    36A    -11.256238
      37A    -11.252335    38A    -11.252335    39A    -11.252333
      40A    -11.252332    41A    -11.252330    42A    -11.252328
      43A    -11.251455    44A    -11.251453    45A    -11.251453
      46A    -11.251443    47A    -11.251442    48A    -11.251438
      49A    -11.250897    50A    -11.250896    51A    -11.250894
      52A    -11.250892    53A    -11.250891    54A    -11.250889
      55A     -1.244135    56A     -1.219891    57A     -1.219890
      58A     -1.189617    59A     -1.189610    60A     -1.181018
      61A     -1.157631    62A     -1.149055    63A     -1.135566
      64A     -1.135560    65A     -1.113264    66A     -1.113260
      67A     -1.082507    68A     -1.082499    69A     -1.078675
      70A     -1.066052    71A     -1.066048    72A     -1.039472
      73A     -1.024353    74A     -1.021842    75A     -1.021799
      76A     -1.017800    77A     -1.012865    78A     -0.987097
      79A     -0.987051    80A     -0.961951    81A     -0.961902
      82A     -0.894364    83A     -0.894337    84A     -0.888011
      85A     -0.886262    86A     -0.886204    87A     -0.881474
      88A     -0.881426    89A     -0.861971    90A     -0.837478
      91A     -0.818283    92A     -0.816690    93A     -0.812211
      94A     -0.812202    95A     -0.794759    96A     -0.794749
      97A     -0.746704    98A     -0.744934    99A     -0.733490
     100A     -0.733481   101A     -0.732254   102A     -0.732230
     103A     -0.716570   104A     -0.699046   105A     -0.699035
     106A     -0.693660   107A     -0.693644   108A     -0.661301
     109A     -0.653181   110A     -0.651231   111A     -0.650323
     112A     -0.650317   113A     -0.639433   114A     -0.639430
     115A     -0.629788   116A     -0.627597   117A     -0.627581
     118A     -0.606489   119A     -0.605869   120A     -0.601738
     121A     -0.599808   122A     -0.599777   123A     -0.593712
     124A     -0.591295   125A     -0.591284   126A     -0.585344
     127A     -0.576395   128A     -0.576388   129A     -0.567392
     130A     -0.567378   131A     -0.566030   132A     -0.566010
     133A     -0.558798   134A     -0.554917   135A     -0.554910
     136A     -0.538664   137A     -0.538662   138A     -0.538236
     139A     -0.538230   140A     -0.529790   141A     -0.528195
     142A     -0.522943   143A     -0.522937   144A     -0.500574
     145A     -0.495654   146A     -0.493306   147A     -0.487883
     148A     -0.485147   149A     -0.481830   150A     -0.481822
     151A     -0.470392   152A     -0.470373   153A     -0.451097
     154A     -0.451019   155A     -0.439123   156A     -0.439114
     157A     -0.404802   158A     -0.404779   159A     -0.403428
     160A     -0.375476   161A     -0.375473   162A     -0.349177
     163A     -0.337647   164A     -0.336613   165A     -0.336555
     166A     -0.311147   167A     -0.298153   168A     -0.284401
     169A     -0.284347   170A     -0.224974   171A     -0.224908

  @DF-RHF Final Energy: -2055.89272195035073

   => Energetics <=

    Nuclear Repulsion Energy =           6452.5568002797772351
    One-Electron Energy =              -15636.4606738579350349
    Two-Electron Energy =                7128.0111516278075214
    Total Energy =                      -2055.8927219503502783
 Dipole X            :          0.0000434            0.0000419            0.0000853
 Dipole Y            :          0.0000243           -0.0000426           -0.0000182
 Dipole Z            :        373.2868693         -373.2939277           -0.0070585
 Magnitude           :                                                    0.0070590

    SAPT Results
  --------------------------------------------------------------------------------------------------------
    Electrostatics                 11.22687461 [mEh]       7.04497018 [kcal/mol]      29.47615524 [kJ/mol]
      Elst10,r                     11.22687461 [mEh]       7.04497018 [kcal/mol]      29.47615524 [kJ/mol]

    Exchange                        0.04947880 [mEh]       0.03104842 [kcal/mol]       0.12990658 [kJ/mol]
      Exch10                        0.04947880 [mEh]       0.03104842 [kcal/mol]       0.12990658 [kJ/mol]
      Exch10(S^2)                   0.04948035 [mEh]       0.03104939 [kcal/mol]       0.12991064 [kJ/mol]

    Induction                      -6.27505163 [mEh]      -3.93765435 [kcal/mol]     -16.47514580 [kJ/mol]
      Ind20,r                      -6.35010286 [mEh]      -3.98474971 [kcal/mol]     -16.67219277 [kJ/mol]
      Exch-Ind20,r                  0.01311622 [mEh]       0.00823055 [kcal/mol]       0.03443664 [kJ/mol]
      delta HF,r (2)                0.06193501 [mEh]       0.03886480 [kcal/mol]       0.16261034 [kJ/mol]

    Dispersion                     -2.04392229 [mEh]      -1.28258060 [kcal/mol]      -5.36631723 [kJ/mol]
      Disp20                       -2.06305035 [mEh]      -1.29458364 [kcal/mol]      -5.41653794 [kJ/mol]
      Exch-Disp20                   0.01912806 [mEh]       0.01200304 [kcal/mol]       0.05022071 [kJ/mol]
      Disp20 (SS)                  -1.03152517 [mEh]      -0.64729182 [kcal/mol]      -2.70826897 [kJ/mol]
      Disp20 (OS)                  -1.03152517 [mEh]      -0.64729182 [kcal/mol]      -2.70826897 [kJ/mol]
      Exch-Disp20 (SS)              0.01378607 [mEh]       0.00865089 [kcal/mol]       0.03619533 [kJ/mol]
      Exch-Disp20 (OS)              0.00534199 [mEh]       0.00335215 [kcal/mol]       0.01402538 [kJ/mol]

  Total HF                          5.00130178 [mEh]       3.13836425 [kcal/mol]      13.13091602 [kJ/mol]
  Total SAPT0                       2.95737949 [mEh]       1.85578365 [kcal/mol]       7.76459879 [kJ/mol]

  Special recipe for scaled SAPT0 (see Manual):
    Electrostatics sSAPT0          11.22687461 [mEh]       7.04497018 [kcal/mol]      29.47615524 [kJ/mol]
    Exchange sSAPT0                 0.04947880 [mEh]       0.03104842 [kcal/mol]       0.12990658 [kJ/mol]
    Induction sSAPT0               -6.27505287 [mEh]      -3.93765512 [kcal/mol]     -16.47514903 [kJ/mol]
    Dispersion sSAPT0              -2.04392408 [mEh]      -1.28258173 [kcal/mol]      -5.36632194 [kJ/mol]
  Total sSAPT0                      2.95737647 [mEh]       1.85578175 [kcal/mol]       7.76459085 [kJ/mol]
  --------------------------------------------------------------------------------------------------------

*** Psi4 exiting successfully. Buy a developer a beer!
