                               Psi4 1.9 release

  ==> Input File <==

--------------------------------------------------------------------------
# PSI4 input file for a GDMA calculation
memory 48 GB

molecule cc {
# charge and multiplicity
0 1
# coordinates
C   1.22531237526482      0.70753866091955      0.00613762728373
C   1.22532433589282     -0.70753852257020     -0.00619318228664
C   -0.00000567409046      1.41496628609039     -0.00672680580738
C   2.45644923379077      1.41832825917820      0.00902448468363
C   0.00001130712078     -1.41497612663474      0.00347275151708
C   -1.22530046906674      0.70754574598412      0.00838914760619
C   2.45643823516184     -1.41832293188077     -0.00843833914343
C   -0.00000085313587      2.83680140328112     -0.00913035594137
C   3.68182717731192      0.70931832800114     -0.00808954934571
C   2.45512052870677      2.83422403348893     -0.00819210630633
C   3.68182158506039     -0.70933346742900      0.00798293467272
C   -1.22531311884624     -0.70752714354401     -0.00512042085974
C   1.22670006104402      3.54346985599427      0.00816696660346
C   0.00000526469929     -2.83678176723568      0.00832091913869
C   -2.45643555300670      1.41831729028492      0.00842454345199
C   2.45512389762097     -2.83422965658853      0.00783102630520
C   -1.22671388474763      3.54346943575023      0.00827029982280
C   4.91451777504333      1.42717324448953     -0.00160886631602
C   3.69315067131765      3.54279566454522     -0.00155906667985
C   -2.45643712022637     -1.41831290883911     -0.00846337726810
C   1.22670532178455     -3.54347386990643     -0.00780316414624
C   -2.45512491866593      2.83421703463423     -0.00818572995999
C   4.91452486062398     -1.42718653794377      0.00136387641845
C   1.22142509354026      4.97013443726031      0.00150231067809
C   4.89300870916237      2.82518837202648     -0.00039219795739
C   -1.22669652864725     -3.54347062507680     -0.00753595973677
C   -3.68181849668397      0.70932533873199     -0.00807686886569
C   3.69314758099218     -3.54280096939050      0.00148176697923
C   -1.22143177215231      4.97012866986289      0.00168580605083
C   6.13477145276790      0.68054831910577     -0.00083909176631
C   3.65678936045204      4.97295361556775     -0.00065042889723
C   -2.45512642789169     -2.83421472106065      0.00758666850712
C   -3.68181869921921     -0.70932533146830      0.00810055625144
C   4.89301309775526     -2.82519973363176      0.00021895393805
C   -0.00000059327114      5.65044773803267      0.00045449734393
C   6.13477559217374     -0.68055448207492      0.00042622874941
C   2.47813196269732      5.65357712333155      0.00063835075260
C   1.22142288457925     -4.97012668293268     -0.00129718634452
C   -3.69316190412301      3.54279732619245     -0.00139355922051
C   -1.22142804110313     -4.97011793159564     -0.00140994817719
C   -4.91452132810043      1.42717581899491     -0.00153192130862
C   3.65678749952045     -4.97295485423912      0.00080007163680
C   -2.47813805026426      5.65357479452875      0.00092287576113
C   -3.69314125872231     -3.54278984697859      0.00136564082345
C   -4.91451200321153     -1.42718062802730      0.00139857359209
C   -0.00000552908399     -5.65043791501335      0.00005899322272
C   -4.89302000425900      2.82518897091939     -0.00040227981744
C   2.47812647313991     -5.65357317188818     -0.00029052915548
C   -3.65679823041642      4.97295655404175     -0.00047374852278
C   -4.89299899901461     -2.82519139505969      0.00006491824035
C   -2.47812801824129     -5.65356579800621     -0.00056571680280
C   -6.13477002348955      0.68054913825639     -0.00086464346868
C   -3.65678835334731     -4.97294365097028      0.00058578382008
C   -6.13476456307132     -0.68055354348201      0.00040575295444
H   5.83528897565761      3.36927626695423      0.00396712770529
H   7.07385965258860      1.22821762089947     -0.00037744837300
H   4.60066374401555      5.51238117445323     -0.00014522814529
H   5.83528386714679     -3.36930568472863     -0.00423551337640
H   -0.00001167146422      6.73853104613662     -0.00389474766392
H   7.07386165167227     -1.22822657074368     -0.00008250934481
H   2.47331421164041      6.74068466339473      0.00017162982210
H   4.60066897122302     -5.51237575717576      0.00039007446835
H   -2.47331820069565      6.74068209160650      0.00047297644710
H   -0.00000978838621     -6.73852780445195      0.00458867820736
H   -5.83530143450167      3.36927132229595      0.00410314985360
H   2.47330840367253     -6.74068500242887      0.00027980126949
H   -4.60067436136587      5.51237839860371      0.00002010017831
H   -5.83527902699321     -3.36928859177951     -0.00451481925734
H   -2.47329986759855     -6.74067870613986     -0.00016951527498
H   -7.07385728692578      1.22822084484047     -0.00046143985387
H   -4.60067330624313     -5.51236229778631      0.00021776644566
H   -7.07385645456741     -1.22822025997701     -0.00017736581114

# additional options
units angstrom
no_reorient
symmetry c1
}

# calculation options
set {
scf_type DF         # Density fitting, faster than exact integrals
freeze_core True    # Freeze core electrons
basis jun-cc-pVDZ   # Jun-cc-pVDZ basis set, recommended for sSAPT0 in https://doi.org/10.1063/1.4867135
}

# call gdma routine
energy, wfn = energy('scf', return_wfn=True)
fchk(wfn, filename='gdma.fchk')
gdma(wfn, datafile='gdma.dma')
print(variable('DMA DISTRIBUTED MULTIPOLES'))
print(variable('DMA TOTAL MULTIPOLES'))
--------------------------------------------------------------------------

    Molecular point group: c1

    Geometry (in Angstrom), charge = 0, multiplicity = 1:

       Center              X                  Y                   Z               Mass
    ------------   -----------------  -----------------  -----------------  -----------------
         C            1.225311848525     0.707538211325     0.006140147314    12.000000000000
         C            1.225323809153    -0.707538972164    -0.006190662256    12.000000000000
         C           -0.000006200830     1.414965836496    -0.006724285777    12.000000000000
         C            2.456448707051     1.418327809584     0.009027004714    12.000000000000
         C            0.000010780381    -1.414976576229     0.003475271548    12.000000000000
         C           -1.225300995806     0.707545296390     0.008391667637    12.000000000000
         C            2.456437708423    -1.418323381475    -0.008435819113    12.000000000000
         C           -0.000001379875     2.836800953687    -0.009127835911    12.000000000000
         C            3.681826650573     0.709317878407    -0.008087029315    12.000000000000
         C            2.455120001967     2.834223583895    -0.008189586276    12.000000000000
         C            3.681821058321    -0.709333917023     0.007985454703    12.000000000000
         C           -1.225313645586    -0.707527593138    -0.005117900829    12.000000000000
         C            1.226699534305     3.543469406400     0.008169486634    12.000000000000
         C            0.000004737960    -2.836782216830     0.008323439169    12.000000000000
         C           -2.456436079746     1.418316840691     0.008427063482    12.000000000000
         C            2.455123370882    -2.834230106183     0.007833546336    12.000000000000
         C           -1.226714411487     3.543468986156     0.008272819853    12.000000000000
         C            4.914517248304     1.427172794895    -0.001606346286    12.000000000000
         C            3.693150144578     3.542795214951    -0.001556546649    12.000000000000
         C           -2.456437646966    -1.418313358433    -0.008460857238    12.000000000000
         C            1.226704795045    -3.543474319501    -0.007800644116    12.000000000000
         C           -2.455125445405     2.834216585040    -0.008183209930    12.000000000000
         C            4.914524333885    -1.427186987538     0.001366396449    12.000000000000
         C            1.221424566801     4.970133987666     0.001504830709    12.000000000000
         C            4.893008182423     2.825187922432    -0.000389677927    12.000000000000
         C           -1.226697055387    -3.543471074671    -0.007533439706    12.000000000000
         C           -3.681819023423     0.709324889138    -0.008074348835    12.000000000000
         C            3.693147054253    -3.542801418985     0.001484287010    12.000000000000
         C           -1.221432298892     4.970128220269     0.001688326081    12.000000000000
         C            6.134770926029     0.680547869512    -0.000836571736    12.000000000000
         C            3.656788833713     4.972953165974    -0.000647908867    12.000000000000
         C           -2.455126954631    -2.834215170655     0.007589188538    12.000000000000
         C           -3.681819225959    -0.709325781063     0.008103076282    12.000000000000
         C            4.893012571016    -2.825200183226     0.000221473969    12.000000000000
         C           -0.000001120010     5.650447288438     0.000457017374    12.000000000000
         C            6.134775065434    -0.680554931669     0.000428748780    12.000000000000
         C            2.478131435958     5.653576673737     0.000640870783    12.000000000000
         C            1.221422357840    -4.970127132527    -0.001294666314    12.000000000000
         C           -3.693162430862     3.542796876598    -0.001391039190    12.000000000000
         C           -1.221428567842    -4.970118381190    -0.001407428147    12.000000000000
         C           -4.914521854840     1.427175369401    -0.001529401278    12.000000000000
         C            3.656786972781    -4.972955303833     0.000802591667    12.000000000000
         C           -2.478138577004     5.653574344935     0.000925395792    12.000000000000
         C           -3.693141785462    -3.542790296573     0.001368160854    12.000000000000
         C           -4.914512529951    -1.427181077622     0.001401093623    12.000000000000
         C           -0.000006055823    -5.650438364608     0.000061513253    12.000000000000
         C           -4.893020530998     2.825188521325    -0.000399759787    12.000000000000
         C            2.478125946401    -5.653573621482    -0.000288009125    12.000000000000
         C           -3.656798757156     4.972956104448    -0.000471228492    12.000000000000
         C           -4.892999525754    -2.825191844654     0.000067438271    12.000000000000
         C           -2.478128544981    -5.653566247600    -0.000563196772    12.000000000000
         C           -6.134770550229     0.680548688662    -0.000862123438    12.000000000000
         C           -3.656788880087    -4.972944100565     0.000588303851    12.000000000000
         C           -6.134765089811    -0.680553993076     0.000408272985    12.000000000000
         H            5.835288448918     3.369275817360     0.003969647736     1.007825032230
         H            7.073859125849     1.228217171305    -0.000374928343     1.007825032230
         H            4.600663217276     5.512380724859    -0.000142708115     1.007825032230
         H            5.835283340407    -3.369306134323    -0.004232993346     1.007825032230
         H           -0.000012198204     6.738530596542    -0.003892227633     1.007825032230
         H            7.073861124933    -1.228227020338    -0.000079989314     1.007825032230
         H            2.473313684901     6.740684213800     0.000174149853     1.007825032230
         H            4.600668444484    -5.512376206770     0.000392594499     1.007825032230
         H           -2.473318727435     6.740681642012     0.000475496478     1.007825032230
         H           -0.000010315126    -6.738528254046     0.004591198238     1.007825032230
         H           -5.835301961241     3.369270872702     0.004105669884     1.007825032230
         H            2.473307876933    -6.740685452023     0.000282321300     1.007825032230
         H           -4.600674888105     5.512377949009     0.000022620209     1.007825032230
         H           -5.835279553733    -3.369289041374    -0.004512299227     1.007825032230
         H           -2.473300394338    -6.740679155734    -0.000166995245     1.007825032230
         H           -7.073857813665     1.228220395246    -0.000458919823     1.007825032230
         H           -4.600673832982    -5.512362747381     0.000220286476     1.007825032230
         H           -7.073856981307    -1.228220709571    -0.000174845781     1.007825032230

  Charge       = 0
  Multiplicity = 1
  Basis Set: JUN-CC-PVDZ
    Blend: JUN-CC-PVDZ
  Basis Set: (JUN-CC-PVDZ AUX)
    Blend: JUN-CC-PVDZ-JKFIT

    Orbital Energies [Eh]
    ---------------------

    Doubly Occupied:

       1A    -11.260681     2A    -11.260238     3A    -11.260236
       4A    -11.259524     5A    -11.259523     6A    -11.259353
       7A    -11.259143     8A    -11.259066     9A    -11.259065
      10A    -11.258741    11A    -11.258738    12A    -11.258668
      13A    -11.258605    14A    -11.258600    15A    -11.258597
      16A    -11.258568    17A    -11.258562    18A    -11.258546
      19A    -11.258532    20A    -11.258527    21A    -11.258521
      22A    -11.258425    23A    -11.258422    24A    -11.258126
      25A    -11.257466    26A    -11.257404    27A    -11.257403
      28A    -11.257268    29A    -11.257267    30A    -11.257183
      31A    -11.256562    32A    -11.256491    33A    -11.256490
      34A    -11.256381    35A    -11.256380    36A    -11.256333
      37A    -11.252408    38A    -11.252408    39A    -11.252406
      40A    -11.252405    41A    -11.252403    42A    -11.252401
      43A    -11.251541    44A    -11.251538    45A    -11.251537
      46A    -11.251531    47A    -11.251531    48A    -11.251527
      49A    -11.250970    50A    -11.250969    51A    -11.250967
      52A    -11.250965    53A    -11.250964    54A    -11.250962
      55A     -1.244305    56A     -1.220023    57A     -1.220022
      58A     -1.189731    59A     -1.189724    60A     -1.181176
      61A     -1.157731    62A     -1.149163    63A     -1.135715
      64A     -1.135708    65A     -1.113364    66A     -1.113360
      67A     -1.082638    68A     -1.082631    69A     -1.078824
      70A     -1.066148    71A     -1.066144    72A     -1.039589
      73A     -1.024500    74A     -1.022007    75A     -1.021964
      76A     -1.017896    77A     -1.012958    78A     -0.987232
      79A     -0.987186    80A     -0.962059    81A     -0.962009
      82A     -0.894477    83A     -0.894451    84A     -0.888178
      85A     -0.886424    86A     -0.886366    87A     -0.881611
      88A     -0.881564    89A     -0.862083    90A     -0.837560
      91A     -0.818400    92A     -0.816843    93A     -0.812351
      94A     -0.812342    95A     -0.794864    96A     -0.794853
      97A     -0.746850    98A     -0.745076    99A     -0.733645
     100A     -0.733636   101A     -0.732363   102A     -0.732339
     103A     -0.716712   104A     -0.699159   105A     -0.699148
     106A     -0.693786   107A     -0.693771   108A     -0.661409
     109A     -0.653346   110A     -0.651391   111A     -0.650427
     112A     -0.650421   113A     -0.639539   114A     -0.639537
     115A     -0.629925   116A     -0.627736   117A     -0.627720
     118A     -0.606464   119A     -0.605942   120A     -0.601878
     121A     -0.599929   122A     -0.599898   123A     -0.593833
     124A     -0.591467   125A     -0.591456   126A     -0.585427
     127A     -0.576423   128A     -0.576417   129A     -0.567487
     130A     -0.567473   131A     -0.566177   132A     -0.566158
     133A     -0.558954   134A     -0.555033   135A     -0.555027
     136A     -0.538769   137A     -0.538767   138A     -0.538295
     139A     -0.538289   140A     -0.529906   141A     -0.528211
     142A     -0.523061   143A     -0.523054   144A     -0.500678
     145A     -0.495726   146A     -0.493416   147A     -0.487953
     148A     -0.485277   149A     -0.481958   150A     -0.481950
     151A     -0.470446   152A     -0.470428   153A     -0.451264
     154A     -0.451186   155A     -0.439196   156A     -0.439186
     157A     -0.404877   158A     -0.404854   159A     -0.403495
     160A     -0.375550   161A     -0.375547   162A     -0.349257
     163A     -0.337722   164A     -0.336693   165A     -0.336636
     166A     -0.311229   167A     -0.298219   168A     -0.284493
     169A     -0.284439   170A     -0.225054   171A     -0.224988

  @DF-RHF Final Energy: -2055.89156891643097

   => Energetics <=

    Nuclear Repulsion Energy =           6452.5568002797781446
    One-Electron Energy =              -15636.4228041960741393
    Two-Electron Energy =                7127.9744349998654798
    Total Energy =                      -2055.8915689164314244
 Dipole X            :          0.0001352           -0.0000388            0.0000964
 Dipole Y            :          0.0000180           -0.0000331           -0.0000151
 Dipole Z            :         -0.0001729            0.0001857            0.0000128
 Magnitude           :                                                    0.0000984
*** Psi4 exiting successfully. Buy a developer a beer!
