                               Psi4 1.9 release

  ==> Input File <==

--------------------------------------------------------------------------
memory 48 GB # how much memory is available ! Depends on the nodes/cores !

molecule dimer {
# monomer A
+1 1    # Charge and multiplicity
C  0.680067 -0.008042 -5.715929
C -0.680504 -0.006014 -5.715545
N -1.085635 -0.005016 -4.397221
C  0.000108 -0.001740 -3.615820
C -2.477365  0.044390 -3.929242
N  1.085222 -0.005016 -4.397221
H  1.385146 -0.015870 -6.533368
H -1.385302 -0.006204 -6.533214
H -0.000009  0.000007 -2.534731
C  2.478117 -0.021908 -3.932123
H  2.490592  0.005437 -2.841870
H  2.967028 -0.935354 -4.279299
H  3.001428  0.853575 -4.323595
H -2.857359  1.066461 -4.009201
H -3.082679 -0.625694 -4.542306
H -2.518128 -0.282594 -2.889294
--
# monomer B
0 1     # Charge and multiplicity
C   1.22531237526482      0.70753866091955      0.00613762728373
C   1.22532433589282     -0.70753852257020     -0.00619318228664
C   -0.00000567409046      1.41496628609039     -0.00672680580738
C   2.45644923379077      1.41832825917820      0.00902448468363
C   0.00001130712078     -1.41497612663474      0.00347275151708
C   -1.22530046906674      0.70754574598412      0.00838914760619
C   2.45643823516184     -1.41832293188077     -0.00843833914343
C   -0.00000085313587      2.83680140328112     -0.00913035594137
C   3.68182717731192      0.70931832800114     -0.00808954934571
C   2.45512052870677      2.83422403348893     -0.00819210630633
C   3.68182158506039     -0.70933346742900      0.00798293467272
C   -1.22531311884624     -0.70752714354401     -0.00512042085974
C   1.22670006104402      3.54346985599427      0.00816696660346
C   0.00000526469929     -2.83678176723568      0.00832091913869
C   -2.45643555300670      1.41831729028492      0.00842454345199
C   2.45512389762097     -2.83422965658853      0.00783102630520
C   -1.22671388474763      3.54346943575023      0.00827029982280
C   4.91451777504333      1.42717324448953     -0.00160886631602
C   3.69315067131765      3.54279566454522     -0.00155906667985
C   -2.45643712022637     -1.41831290883911     -0.00846337726810
C   1.22670532178455     -3.54347386990643     -0.00780316414624
C   -2.45512491866593      2.83421703463423     -0.00818572995999
C   4.91452486062398     -1.42718653794377      0.00136387641845
C   1.22142509354026      4.97013443726031      0.00150231067809
C   4.89300870916237      2.82518837202648     -0.00039219795739
C   -1.22669652864725     -3.54347062507680     -0.00753595973677
C   -3.68181849668397      0.70932533873199     -0.00807686886569
C   3.69314758099218     -3.54280096939050      0.00148176697923
C   -1.22143177215231      4.97012866986289      0.00168580605083
C   6.13477145276790      0.68054831910577     -0.00083909176631
C   3.65678936045204      4.97295361556775     -0.00065042889723
C   -2.45512642789169     -2.83421472106065      0.00758666850712
C   -3.68181869921921     -0.70932533146830      0.00810055625144
C   4.89301309775526     -2.82519973363176      0.00021895393805
C   -0.00000059327114      5.65044773803267      0.00045449734393
C   6.13477559217374     -0.68055448207492      0.00042622874941
C   2.47813196269732      5.65357712333155      0.00063835075260
C   1.22142288457925     -4.97012668293268     -0.00129718634452
C   -3.69316190412301      3.54279732619245     -0.00139355922051
C   -1.22142804110313     -4.97011793159564     -0.00140994817719
C   -4.91452132810043      1.42717581899491     -0.00153192130862
C   3.65678749952045     -4.97295485423912      0.00080007163680
C   -2.47813805026426      5.65357479452875      0.00092287576113
C   -3.69314125872231     -3.54278984697859      0.00136564082345
C   -4.91451200321153     -1.42718062802730      0.00139857359209
C   -0.00000552908399     -5.65043791501335      0.00005899322272
C   -4.89302000425900      2.82518897091939     -0.00040227981744
C   2.47812647313991     -5.65357317188818     -0.00029052915548
C   -3.65679823041642      4.97295655404175     -0.00047374852278
C   -4.89299899901461     -2.82519139505969      0.00006491824035
C   -2.47812801824129     -5.65356579800621     -0.00056571680280
C   -6.13477002348955      0.68054913825639     -0.00086464346868
C   -3.65678835334731     -4.97294365097028      0.00058578382008
C   -6.13476456307132     -0.68055354348201      0.00040575295444
H   5.83528897565761      3.36927626695423      0.00396712770529
H   7.07385965258860      1.22821762089947     -0.00037744837300
H   4.60066374401555      5.51238117445323     -0.00014522814529
H   5.83528386714679     -3.36930568472863     -0.00423551337640
H   -0.00001167146422      6.73853104613662     -0.00389474766392
H   7.07386165167227     -1.22822657074368     -0.00008250934481
H   2.47331421164041      6.74068466339473      0.00017162982210
H   4.60066897122302     -5.51237575717576      0.00039007446835
H   -2.47331820069565      6.74068209160650      0.00047297644710
H   -0.00000978838621     -6.73852780445195      0.00458867820736
H   -5.83530143450167      3.36927132229595      0.00410314985360
H   2.47330840367253     -6.74068500242887      0.00027980126949
H   -4.60067436136587      5.51237839860371      0.00002010017831
H   -5.83527902699321     -3.36928859177951     -0.00451481925734
H   -2.47329986759855     -6.74067870613986     -0.00016951527498
H   -7.07385728692578      1.22822084484047     -0.00046143985387
H   -4.60067330624313     -5.51236229778631      0.00021776644566
H   -7.07385645456741     -1.22822025997701     -0.00017736581114

    units angstrom      # Angstroms are the default
    no_reorient         # Geometry fixed, default
    symmetry c1         # C1 symmetry, default
}

set {
    scf_type DF         # Density fitting, faster than exact integrals
    freeze_core True    # Freeze core electrons
    basis jun-cc-pVDZ   # Jun-cc-pVDZ basis set, recommended for sSAPT0 in https://doi.org/10.1063/1.4867135
}

energy('ssapt0')        # Compute sSAPT0 energy, includes also SAPT0
--------------------------------------------------------------------------

  //              Dimer HF             //
    Molecular point group: c1
  Charge       = 1
  Multiplicity = 1
  Basis Set: JUN-CC-PVDZ
    Blend: JUN-CC-PVDZ
  Basis Set: (JUN-CC-PVDZ AUX)
    Blend: JUN-CC-PVDZ-JKFIT
  @DF-RHF Final Energy: -2359.21337429978121
    Total Energy =                      -2359.2133742997812078
 Dipole X            :         -0.0022964            0.0006313           -0.0016651
 Dipole Y            :         -0.0524335            0.0560211            0.0035876
 Dipole Z            :         16.1748141          -21.5702647           -5.3954506
 Magnitude           :                                                    5.3954520
  //            Monomer A HF           //
    Molecular point group: c1
  Multiplicity = 1
  Basis Set: JUN-CC-PVDZ
    Blend: JUN-CC-PVDZ
  Basis Set: (JUN-CC-PVDZ AUX)
    Blend: JUN-CC-PVDZ-JKFIT
  @DF-RHF Final Energy:  -303.29803524322352
    Total Energy =                       -303.2980352432235236
  //            Monomer B HF           //
    Molecular point group: c1

    Geometry (in Angstrom), charge = 0, multiplicity = 1:

       Center              X                  Y                   Z               Mass
    ------------   -----------------  -----------------  -----------------  -----------------
      Gh(C)           0.680066520158    -0.008042372515    -5.143558880763    12.000000000000
      Gh(C)          -0.680504479842    -0.006014372515    -5.143174880763    12.000000000000
      Gh(N)          -1.085635479842    -0.005016372515    -3.824850880763    14.003074004430
      Gh(C)           0.000107520158    -0.001740372515    -3.043449880763    12.000000000000
      Gh(C)          -2.477365479842     0.044389627485    -3.356871880763    12.000000000000
      Gh(N)           1.085221520158    -0.005016372515    -3.824850880763    14.003074004430
      Gh(H)           1.385145520158    -0.015870372515    -5.960997880763     1.007825032230
      Gh(H)          -1.385302479842    -0.006204372515    -5.960843880763     1.007825032230
      Gh(H)          -0.000009479842     0.000006627485    -1.962360880763     1.007825032230
      Gh(C)           2.478116520158    -0.021908372515    -3.359752880763    12.000000000000
      Gh(H)           2.490591520158     0.005436627485    -2.269499880763     1.007825032230
      Gh(H)           2.967027520158    -0.935354372515    -3.706928880763     1.007825032230
      Gh(H)           3.001427520158     0.853574627485    -3.751224880763     1.007825032230
      Gh(H)          -2.857359479842     1.066460627485    -3.436830880763     1.007825032230
      Gh(H)          -3.082679479842    -0.625694372515    -3.969935880763     1.007825032230
      Gh(H)          -2.518128479842    -0.282594372515    -2.316923880763     1.007825032230
         C            1.225311895423     0.707538288405     0.578507746521    12.000000000000
         C            1.225323856051    -0.707538895085     0.566176936951    12.000000000000
         C           -0.000006153932     1.414965913575     0.565643313430    12.000000000000
         C            2.456448753949     1.418327886663     0.581394603921    12.000000000000
         C            0.000010827279    -1.414976499150     0.575842870754    12.000000000000
         C           -1.225300948908     0.707545373469     0.580759266844    12.000000000000
         C            2.456437755320    -1.418323304396     0.563931780094    12.000000000000
         C           -0.000001332978     2.836801030766     0.563239763296    12.000000000000
         C            3.681826697470     0.709317955486     0.564280569892    12.000000000000
         C            2.455120048865     2.834223660974     0.564178012931    12.000000000000
         C            3.681821105219    -0.709333839944     0.580353053910    12.000000000000
         C           -1.225313598688    -0.707527516059     0.567249698378    12.000000000000
         C            1.226699581202     3.543469483479     0.580537085841    12.000000000000
         C            0.000004784858    -2.836782139751     0.580691038376    12.000000000000
         C           -2.456436032848     1.418316917770     0.580794662689    12.000000000000
         C            2.455123417779    -2.834230029103     0.580201145543    12.000000000000
         C           -1.226714364589     3.543469063235     0.580640419060    12.000000000000
         C            4.914517295202     1.427172871975     0.570761252921    12.000000000000
         C            3.693150191476     3.542795292030     0.570811052558    12.000000000000
         C           -2.456437600068    -1.418313281354     0.563906741969    12.000000000000
         C            1.226704841943    -3.543474242421     0.564566955091    12.000000000000
         C           -2.455125398508     2.834216662119     0.564184389277    12.000000000000
         C            4.914524380782    -1.427186910459     0.573733995656    12.000000000000
         C            1.221424613699     4.970134064745     0.573872429915    12.000000000000
         C            4.893008229321     2.825187999512     0.571977921280    12.000000000000
         C           -1.226697008489    -3.543470997592     0.564834159501    12.000000000000
         C           -3.681818976526     0.709324966217     0.564293250372    12.000000000000
         C            3.693147101150    -3.542801341905     0.573851886217    12.000000000000
         C           -1.221432251994     4.970128297348     0.574055925288    12.000000000000
         C            6.134770972926     0.680547946591     0.571531027471    12.000000000000
         C            3.656788880610     4.972953243053     0.571719690340    12.000000000000
         C           -2.455126907733    -2.834215093576     0.579956787744    12.000000000000
         C           -3.681819179061    -0.709325703983     0.580470675489    12.000000000000
         C            4.893012617914    -2.825200106147     0.572589073175    12.000000000000
         C           -0.000001073113     5.650447365518     0.572824616581    12.000000000000
         C            6.134775112332    -0.680554854590     0.572796347987    12.000000000000
         C            2.478131482856     5.653576750817     0.573008469990    12.000000000000
         C            1.221422404738    -4.970127055448     0.571072932893    12.000000000000
         C           -3.693162383965     3.542796953677     0.570976560017    12.000000000000
         C           -1.221428520945    -4.970118304111     0.570960171060    12.000000000000
         C           -4.914521807942     1.427175446480     0.570838197929    12.000000000000
         C            3.656787019679    -4.972955226754     0.573170190874    12.000000000000
         C           -2.478138530106     5.653574422014     0.573292994998    12.000000000000
         C           -3.693141738564    -3.542790219494     0.573735760061    12.000000000000
         C           -4.914512483053    -1.427181000542     0.573768692829    12.000000000000
         C           -0.000006008926    -5.650438287528     0.572429112460    12.000000000000
         C           -4.893020484101     2.825188598404     0.571967839420    12.000000000000
         C            2.478125993298    -5.653573544403     0.572079590082    12.000000000000
         C           -3.656798710258     4.972956181527     0.571896370715    12.000000000000
         C           -4.892999478856    -2.825191767575     0.572435037478    12.000000000000
         C           -2.478128498083    -5.653566170521     0.571804402435    12.000000000000
         C           -6.134770503331     0.680548765741     0.571505475769    12.000000000000
         C           -3.656788833189    -4.972944023485     0.572955903057    12.000000000000
         C           -6.134765042913    -0.680553915997     0.572775872192    12.000000000000
         H            5.835288495816     3.369275894439     0.576337246943     1.007825032230
         H            7.073859172747     1.228217248385     0.571992670864     1.007825032230
         H            4.600663264174     5.512380801938     0.572224891092     1.007825032230
         H            5.835283387305    -3.369306057244     0.568134605861     1.007825032230
         H           -0.000012151306     6.738530673622     0.568475371573     1.007825032230
         H            7.073861171831    -1.228226943259     0.572287609893     1.007825032230
         H            2.473313731799     6.740684290880     0.572541749059     1.007825032230
         H            4.600668491381    -5.512376129691     0.572760193706     1.007825032230
         H           -2.473318680537     6.740681719092     0.572843095684     1.007825032230
         H           -0.000010268228    -6.738528176967     0.576958797445     1.007825032230
         H           -5.835301914343     3.369270949781     0.576473269091     1.007825032230
         H            2.473307923831    -6.740685374944     0.572649920507     1.007825032230
         H           -4.600674841208     5.512378026089     0.572390219416     1.007825032230
         H           -5.835279506835    -3.369288964294     0.567855299980     1.007825032230
         H           -2.473300347440    -6.740679078655     0.572200603962     1.007825032230
         H           -7.073857766768     1.228220472326     0.571908679383     1.007825032230
         H           -4.600673786085    -5.512362670301     0.572587885683     1.007825032230
         H           -7.073856934409    -1.228220632492     0.572192753426     1.007825032230

  Charge       = 0
  Multiplicity = 1
  Basis Set: JUN-CC-PVDZ
    Blend: JUN-CC-PVDZ
  Basis Set: (JUN-CC-PVDZ AUX)
    Blend: JUN-CC-PVDZ-JKFIT

    Orbital Energies [Eh]
    ---------------------

    Doubly Occupied:

       1A    -11.260586     2A    -11.260172     3A    -11.260098
       4A    -11.259420     5A    -11.259362     6A    -11.259206
       7A    -11.258979     8A    -11.258925     9A    -11.258880
      10A    -11.258583    11A    -11.258567    12A    -11.258473
      13A    -11.258416    14A    -11.258410    15A    -11.258406
      16A    -11.258375    17A    -11.258366    18A    -11.258349
      19A    -11.258343    20A    -11.258335    21A    -11.258333
      22A    -11.258277    23A    -11.258248    24A    -11.258007
      25A    -11.257280    26A    -11.257241    27A    -11.257192
      28A    -11.257100    29A    -11.257056    30A    -11.256993
      31A    -11.256381    32A    -11.256337    33A    -11.256274
      34A    -11.256211    35A    -11.256165    36A    -11.256138
      37A    -11.252225    38A    -11.252225    39A    -11.252223
      40A    -11.252222    41A    -11.252205    42A    -11.252204
      43A    -11.251322    44A    -11.251321    45A    -11.251317
      46A    -11.251313    47A    -11.251310    48A    -11.251307
      49A    -11.250787    50A    -11.250786    51A    -11.250783
      52A    -11.250783    53A    -11.250767    54A    -11.250766
      55A     -1.243925    56A     -1.219700    57A     -1.219675
      58A     -1.189432    59A     -1.189415    60A     -1.180816
      61A     -1.157456    62A     -1.148868    63A     -1.135376
      64A     -1.135345    65A     -1.113090    66A     -1.113085
      67A     -1.082308    68A     -1.082296    69A     -1.078478
      70A     -1.065884    71A     -1.065875    72A     -1.039284
      73A     -1.024137    74A     -1.021641    75A     -1.021574
      76A     -1.017624    77A     -1.012702    78A     -0.986901
      79A     -0.986842    80A     -0.961778    81A     -0.961720
      82A     -0.894174    83A     -0.894154    84A     -0.887789
      85A     -0.886036    86A     -0.885993    87A     -0.881259
      88A     -0.881218    89A     -0.861788    90A     -0.837319
      91A     -0.818088    92A     -0.816476    93A     -0.812004
      94A     -0.811999    95A     -0.794585    96A     -0.794570
      97A     -0.746483    98A     -0.744726    99A     -0.733282
     100A     -0.733272   101A     -0.732069   102A     -0.732049
     103A     -0.716371   104A     -0.698871   105A     -0.698833
     106A     -0.693478   107A     -0.693427   108A     -0.661122
     109A     -0.652978   110A     -0.651016   111A     -0.650152
     112A     -0.650140   113A     -0.639258   114A     -0.639229
     115A     -0.629586   116A     -0.627390   117A     -0.627380
     118A     -0.606410   119A     -0.605730   120A     -0.601521
     121A     -0.599636   122A     -0.599563   123A     -0.593502
     124A     -0.591082   125A     -0.591045   126A     -0.585189
     127A     -0.576457   128A     -0.576312   129A     -0.567228
     130A     -0.567202   131A     -0.565824   132A     -0.565813
     133A     -0.558587   134A     -0.554742   135A     -0.554727
     136A     -0.538486   137A     -0.538484   138A     -0.538203
     139A     -0.538144   140A     -0.529597   141A     -0.528146
     142A     -0.522769   143A     -0.522728   144A     -0.500396
     145A     -0.495578   146A     -0.493123   147A     -0.487784
     148A     -0.484937   149A     -0.481628   150A     -0.481623
     151A     -0.470313   152A     -0.470247   153A     -0.450863
     154A     -0.450800   155A     -0.439009   156A     -0.439008
     157A     -0.404703   158A     -0.404643   159A     -0.403313
     160A     -0.375365   161A     -0.375361   162A     -0.349072
     163A     -0.337515   164A     -0.336467   165A     -0.336455
     166A     -0.311024   167A     -0.298054   168A     -0.284254
     169A     -0.284215   170A     -0.224834   171A     -0.224775

  @DF-RHF Final Energy: -2055.89480470114722

   => Energetics <=

    Nuclear Repulsion Energy =           6452.5568002797781446
    One-Electron Energy =              -15636.5159146373607655
    Two-Electron Energy =                7128.0643096564344887
    Total Energy =                      -2055.8948047011472227
 Dipole X            :         -0.0002384           -0.0000085           -0.0002469
 Dipole Y            :         -0.0002441            0.0000167           -0.0002274
 Dipole Z            :       -369.9091410          369.9135436            0.0044026
 Magnitude           :                                                    0.0044154

    SAPT Results
  --------------------------------------------------------------------------------------------------------
    Electrostatics                -14.26910971 [mEh]      -8.95400153 [kcal/mol]     -37.46354240 [kJ/mol]
      Elst10,r                    -14.26910971 [mEh]      -8.95400153 [kcal/mol]     -37.46354240 [kJ/mol]

    Exchange                        6.58712865 [mEh]       4.13348563 [kcal/mol]      17.29450388 [kJ/mol]
      Exch10                        6.58712865 [mEh]       4.13348563 [kcal/mol]      17.29450388 [kJ/mol]
      Exch10(S^2)                   6.57294446 [mEh]       4.12458492 [kcal/mol]      17.25726330 [kJ/mol]

    Induction                     -12.85237434 [mEh]      -8.06498666 [kcal/mol]     -33.74390419 [kJ/mol]
      Ind20,r                     -12.47998875 [mEh]      -7.83131117 [kcal/mol]     -32.76620594 [kJ/mol]
      Exch-Ind20,r                  1.42109994 [mEh]       0.89175367 [kcal/mol]       3.73109738 [kJ/mol]
      delta HF,r (2)               -1.79348553 [mEh]      -1.12542916 [kcal/mol]      -4.70879562 [kJ/mol]

    Dispersion                    -16.45593121 [mEh]     -10.32625273 [kcal/mol]     -43.20504143 [kJ/mol]
      Disp20                      -17.11779108 [mEh]     -10.74157607 [kcal/mol]     -44.94275430 [kJ/mol]
      Exch-Disp20                   0.66185988 [mEh]       0.41532334 [kcal/mol]       1.73771287 [kJ/mol]
      Disp20 (SS)                  -8.55889554 [mEh]      -5.37078804 [kcal/mol]     -22.47137715 [kJ/mol]
      Disp20 (OS)                  -8.55889554 [mEh]      -5.37078804 [kcal/mol]     -22.47137715 [kJ/mol]
      Exch-Disp20 (SS)              0.40108651 [mEh]       0.25168558 [kcal/mol]       1.05305248 [kJ/mol]
      Exch-Disp20 (OS)              0.26077337 [mEh]       0.16363776 [kcal/mol]       0.68466039 [kJ/mol]

  Total HF                        -20.53435541 [mEh]     -12.88550256 [kcal/mol]     -53.91294270 [kJ/mol]
  Total SAPT0                     -36.99028662 [mEh]     -23.21175529 [kcal/mol]     -97.11798413 [kJ/mol]

  Special recipe for scaled SAPT0 (see Manual):
    Electrostatics sSAPT0         -14.26910971 [mEh]      -8.95400153 [kcal/mol]     -37.46354240 [kJ/mol]
    Exchange sSAPT0                 6.58712865 [mEh]       4.13348563 [kcal/mol]      17.29450388 [kJ/mol]
    Induction sSAPT0              -12.84315442 [mEh]      -8.05920107 [kcal/mol]     -33.71969729 [kJ/mol]
    Dispersion sSAPT0             -16.45163714 [mEh]     -10.32355816 [kcal/mol]     -43.19376736 [kJ/mol]
  Total sSAPT0                    -36.97677263 [mEh]     -23.20327513 [kcal/mol]     -97.08250316 [kJ/mol]
  --------------------------------------------------------------------------------------------------------

*** Psi4 exiting successfully. Buy a developer a beer!
