                               Psi4 1.9 release

  ==> Input File <==

--------------------------------------------------------------------------
memory 32 GB # how much memory is available ! Depends on the nodes/cores !

molecule dimer {
# monomer A
-1 1    # Charge and multiplicity
B -1.977592e-04  2.742729e-04 6.000034
F  1.123153e-16  1.430594e-17 7.412819
F  1.147860e+00  6.757812e-01 5.528893
F  1.191806e-02 -1.332011e+00 5.529095
F -1.159666e+00  6.560735e-01 5.529174
--
# monomer B
0 1     # Charge and multiplicity
C   1.22531237526482      0.70753866091955      0.00613762728373
C   1.22532433589282     -0.70753852257020     -0.00619318228664
C   -0.00000567409046      1.41496628609039     -0.00672680580738
C   2.45644923379077      1.41832825917820      0.00902448468363
C   0.00001130712078     -1.41497612663474      0.00347275151708
C   -1.22530046906674      0.70754574598412      0.00838914760619
C   2.45643823516184     -1.41832293188077     -0.00843833914343
C   -0.00000085313587      2.83680140328112     -0.00913035594137
C   3.68182717731192      0.70931832800114     -0.00808954934571
C   2.45512052870677      2.83422403348893     -0.00819210630633
C   3.68182158506039     -0.70933346742900      0.00798293467272
C   -1.22531311884624     -0.70752714354401     -0.00512042085974
C   1.22670006104402      3.54346985599427      0.00816696660346
C   0.00000526469929     -2.83678176723568      0.00832091913869
C   -2.45643555300670      1.41831729028492      0.00842454345199
C   2.45512389762097     -2.83422965658853      0.00783102630520
C   -1.22671388474763      3.54346943575023      0.00827029982280
C   4.91451777504333      1.42717324448953     -0.00160886631602
C   3.69315067131765      3.54279566454522     -0.00155906667985
C   -2.45643712022637     -1.41831290883911     -0.00846337726810
C   1.22670532178455     -3.54347386990643     -0.00780316414624
C   -2.45512491866593      2.83421703463423     -0.00818572995999
C   4.91452486062398     -1.42718653794377      0.00136387641845
C   1.22142509354026      4.97013443726031      0.00150231067809
C   4.89300870916237      2.82518837202648     -0.00039219795739
C   -1.22669652864725     -3.54347062507680     -0.00753595973677
C   -3.68181849668397      0.70932533873199     -0.00807686886569
C   3.69314758099218     -3.54280096939050      0.00148176697923
C   -1.22143177215231      4.97012866986289      0.00168580605083
C   6.13477145276790      0.68054831910577     -0.00083909176631
C   3.65678936045204      4.97295361556775     -0.00065042889723
C   -2.45512642789169     -2.83421472106065      0.00758666850712
C   -3.68181869921921     -0.70932533146830      0.00810055625144
C   4.89301309775526     -2.82519973363176      0.00021895393805
C   -0.00000059327114      5.65044773803267      0.00045449734393
C   6.13477559217374     -0.68055448207492      0.00042622874941
C   2.47813196269732      5.65357712333155      0.00063835075260
C   1.22142288457925     -4.97012668293268     -0.00129718634452
C   -3.69316190412301      3.54279732619245     -0.00139355922051
C   -1.22142804110313     -4.97011793159564     -0.00140994817719
C   -4.91452132810043      1.42717581899491     -0.00153192130862
C   3.65678749952045     -4.97295485423912      0.00080007163680
C   -2.47813805026426      5.65357479452875      0.00092287576113
C   -3.69314125872231     -3.54278984697859      0.00136564082345
C   -4.91451200321153     -1.42718062802730      0.00139857359209
C   -0.00000552908399     -5.65043791501335      0.00005899322272
C   -4.89302000425900      2.82518897091939     -0.00040227981744
C   2.47812647313991     -5.65357317188818     -0.00029052915548
C   -3.65679823041642      4.97295655404175     -0.00047374852278
C   -4.89299899901461     -2.82519139505969      0.00006491824035
C   -2.47812801824129     -5.65356579800621     -0.00056571680280
C   -6.13477002348955      0.68054913825639     -0.00086464346868
C   -3.65678835334731     -4.97294365097028      0.00058578382008
C   -6.13476456307132     -0.68055354348201      0.00040575295444
H   5.83528897565761      3.36927626695423      0.00396712770529
H   7.07385965258860      1.22821762089947     -0.00037744837300
H   4.60066374401555      5.51238117445323     -0.00014522814529
H   5.83528386714679     -3.36930568472863     -0.00423551337640
H   -0.00001167146422      6.73853104613662     -0.00389474766392
H   7.07386165167227     -1.22822657074368     -0.00008250934481
H   2.47331421164041      6.74068466339473      0.00017162982210
H   4.60066897122302     -5.51237575717576      0.00039007446835
H   -2.47331820069565      6.74068209160650      0.00047297644710
H   -0.00000978838621     -6.73852780445195      0.00458867820736
H   -5.83530143450167      3.36927132229595      0.00410314985360
H   2.47330840367253     -6.74068500242887      0.00027980126949
H   -4.60067436136587      5.51237839860371      0.00002010017831
H   -5.83527902699321     -3.36928859177951     -0.00451481925734
H   -2.47329986759855     -6.74067870613986     -0.00016951527498
H   -7.07385728692578      1.22822084484047     -0.00046143985387
H   -4.60067330624313     -5.51236229778631      0.00021776644566
H   -7.07385645456741     -1.22822025997701     -0.00017736581114

    units angstrom      # Angstroms are the default
    no_reorient         # Geometry fixed, default
    symmetry c1         # C1 symmetry, default
}

set {
    scf_type DF         # Density fitting, faster than exact integrals
    freeze_core True    # Freeze core electrons
    basis jun-cc-pVDZ   # Jun-cc-pVDZ basis set, recommended for sSAPT0 in https://doi.org/10.1063/1.4867135
}

energy('ssapt0')        # Compute sSAPT0 energy, includes also SAPT0
--------------------------------------------------------------------------

  //              Dimer HF             //
    Molecular point group: c1
  Charge       = -1
  Multiplicity = 1
  Basis Set: JUN-CC-PVDZ
    Blend: JUN-CC-PVDZ
  Basis Set: (JUN-CC-PVDZ AUX)
    Blend: JUN-CC-PVDZ-JKFIT
  @DF-RHF Final Energy: -2478.65792661320666
    Total Energy =                      -2478.6579266132066550
 Dipole X            :         -0.0005485            0.0000481           -0.0005005
 Dipole Y            :          0.0010522           -0.0001453            0.0009070
 Dipole Z            :         27.6544179          -36.7818456           -9.1274278
 Magnitude           :                                                    9.1274278
  //            Monomer A HF           //
    Molecular point group: c1
  Multiplicity = 1
  Basis Set: JUN-CC-PVDZ
    Blend: JUN-CC-PVDZ
  Basis Set: (JUN-CC-PVDZ AUX)
    Blend: JUN-CC-PVDZ-JKFIT
  @DF-RHF Final Energy:  -422.77157811545379
    Total Energy =                       -422.7715781154537922
  //            Monomer B HF           //
    Molecular point group: c1

    Geometry (in Angstrom), charge = 0, multiplicity = 1:

       Center              X                  Y                   Z               Mass
    ------------   -----------------  -----------------  -----------------  -----------------
      Gh(B)          -0.000198161052     0.000273808717     5.306918203937    11.009305360000
      Gh(F)          -0.000000401852    -0.000000464183     6.719703203937    18.998403162730
      Gh(F)           1.147859598148     0.675780735817     4.835777203937    18.998403162730
      Gh(F)           0.011917658148    -1.332011464183     4.835979203937    18.998403162730
      Gh(F)          -1.159666401852     0.656073035817     4.836058203937    18.998403162730
         C            1.225311973413     0.707538196736    -0.686978168779    12.000000000000
         C            1.225323934041    -0.707538986754    -0.699308978350    12.000000000000
         C           -0.000006075942     1.414965821907    -0.699842601871    12.000000000000
         C            2.456448831939     1.418327794995    -0.684091311380    12.000000000000
         C            0.000010905269    -1.414976590818    -0.689643044546    12.000000000000
         C           -1.225300870919     0.707545281801    -0.684726648457    12.000000000000
         C            2.456437833310    -1.418323396064    -0.701554135207    12.000000000000
         C           -0.000001254988     2.836800939098    -0.702246152005    12.000000000000
         C            3.681826775460     0.709317863818    -0.701205345409    12.000000000000
         C            2.455120126855     2.834223569306    -0.701307902369    12.000000000000
         C            3.681821183209    -0.709333931612    -0.685132861390    12.000000000000
         C           -1.225313520698    -0.707527607727    -0.698236216923    12.000000000000
         C            1.226699659192     3.543469391811    -0.684948829460    12.000000000000
         C            0.000004862847    -2.836782231419    -0.684794876924    12.000000000000
         C           -2.456435954859     1.418316826102    -0.684691252611    12.000000000000
         C            2.455123495769    -2.834230120772    -0.685284769758    12.000000000000
         C           -1.226714286599     3.543468971567    -0.684845496240    12.000000000000
         C            4.914517373191     1.427172780306    -0.694724662379    12.000000000000
         C            3.693150269466     3.542795200362    -0.694674862743    12.000000000000
         C           -2.456437522078    -1.418313373022    -0.701579173331    12.000000000000
         C            1.226704919933    -3.543474334090    -0.700918960209    12.000000000000
         C           -2.455125320518     2.834216570451    -0.701301526023    12.000000000000
         C            4.914524458772    -1.427187002127    -0.691751919645    12.000000000000
         C            1.221424691688     4.970133973077    -0.691613485385    12.000000000000
         C            4.893008307311     2.825187907843    -0.693507994021    12.000000000000
         C           -1.226696930499    -3.543471089260    -0.700651755800    12.000000000000
         C           -3.681818898536     0.709324874549    -0.701192664929    12.000000000000
         C            3.693147179140    -3.542801433574    -0.691634029084    12.000000000000
         C           -1.221432174004     4.970128205680    -0.691429990012    12.000000000000
         C            6.134771050916     0.680547854922    -0.693954887829    12.000000000000
         C            3.656788958600     4.972953151384    -0.693766224960    12.000000000000
         C           -2.455126829744    -2.834215185244    -0.685529127556    12.000000000000
         C           -3.681819101071    -0.709325795652    -0.685015239812    12.000000000000
         C            4.893012695903    -2.825200197815    -0.692896842125    12.000000000000
         C           -0.000000995123     5.650447273849    -0.692661298719    12.000000000000
         C            6.134775190322    -0.680554946258    -0.692689567314    12.000000000000
         C            2.478131560845     5.653576659148    -0.692477445311    12.000000000000
         C            1.221422482727    -4.970127147116    -0.694412982408    12.000000000000
         C           -3.693162305975     3.542796862009    -0.694509355284    12.000000000000
         C           -1.221428442955    -4.970118395779    -0.694525744240    12.000000000000
         C           -4.914521729952     1.427175354812    -0.694647717372    12.000000000000
         C            3.656787097669    -4.972955318422    -0.692315724426    12.000000000000
         C           -2.478138452116     5.653574330345    -0.692192920302    12.000000000000
         C           -3.693141660574    -3.542790311162    -0.691750155240    12.000000000000
         C           -4.914512405063    -1.427181092211    -0.691717222471    12.000000000000
         C           -0.000005930936    -5.650438379197    -0.693056802840    12.000000000000
         C           -4.893020406111     2.825188506736    -0.693518075881    12.000000000000
         C            2.478126071288    -5.653573636072    -0.693406325219    12.000000000000
         C           -3.656798632268     4.972956089858    -0.693589544586    12.000000000000
         C           -4.892999400866    -2.825191859243    -0.693050877823    12.000000000000
         C           -2.478128420093    -5.653566262190    -0.693681512866    12.000000000000
         C           -6.134770425341     0.680548674073    -0.693980439532    12.000000000000
         C           -3.656788755199    -4.972944115154    -0.692530012243    12.000000000000
         C           -6.134764964923    -0.680554007665    -0.692710043109    12.000000000000
         H            5.835288573806     3.369275802771    -0.689148668358     1.007825032230
         H            7.073859250737     1.228217156716    -0.693493244436     1.007825032230
         H            4.600663342164     5.512380710270    -0.693261024208     1.007825032230
         H            5.835283465295    -3.369306148912    -0.697351309440     1.007825032230
         H           -0.000012073316     6.738530581953    -0.697010543727     1.007825032230
         H            7.073861249820    -1.228227034927    -0.693198305408     1.007825032230
         H            2.473313809789     6.740684199211    -0.692944166241     1.007825032230
         H            4.600668569371    -5.512376221359    -0.692725721595     1.007825032230
         H           -2.473318602548     6.740681627423    -0.692642819616     1.007825032230
         H           -0.000010190238    -6.738528268635    -0.688527117856     1.007825032230
         H           -5.835301836354     3.369270858113    -0.689012646210     1.007825032230
         H            2.473308001821    -6.740685466612    -0.692835994794     1.007825032230
         H           -4.600674763218     5.512377934420    -0.693095695885     1.007825032230
         H           -5.835279428845    -3.369289055963    -0.697630615320     1.007825032230
         H           -2.473300269450    -6.740679170323    -0.693285311338     1.007825032230
         H           -7.073857688778     1.228220380657    -0.693577235917     1.007825032230
         H           -4.600673708095    -5.512362761970    -0.692898029617     1.007825032230
         H           -7.073856856419    -1.228220724160    -0.693293161874     1.007825032230

  Charge       = 0
  Multiplicity = 1
  Basis Set: JUN-CC-PVDZ
    Blend: JUN-CC-PVDZ
  Basis Set: (JUN-CC-PVDZ AUX)
    Blend: JUN-CC-PVDZ-JKFIT

    Orbital Energies [Eh]
    ---------------------

    Doubly Occupied:

       1A    -11.260650     2A    -11.260207     3A    -11.260206
       4A    -11.259498     5A    -11.259498     6A    -11.259329
       7A    -11.259120     8A    -11.259042     9A    -11.259041
      10A    -11.258717    11A    -11.258713    12A    -11.258646
      13A    -11.258583    14A    -11.258578    15A    -11.258576
      16A    -11.258547    17A    -11.258541    18A    -11.258525
      19A    -11.258512    20A    -11.258506    21A    -11.258501
      22A    -11.258400    23A    -11.258397    24A    -11.258096
      25A    -11.257439    26A    -11.257377    27A    -11.257376
      28A    -11.257241    29A    -11.257241    30A    -11.257156
      31A    -11.256534    32A    -11.256463    33A    -11.256462
      34A    -11.256353    35A    -11.256352    36A    -11.256305
      37A    -11.252385    38A    -11.252385    39A    -11.252383
      40A    -11.252382    41A    -11.252380    42A    -11.252378
      43A    -11.251516    44A    -11.251513    45A    -11.251512
      46A    -11.251506    47A    -11.251505    48A    -11.251501
      49A    -11.250947    50A    -11.250946    51A    -11.250944
      52A    -11.250942    53A    -11.250941    54A    -11.250939
      55A     -1.244259    56A     -1.219987    57A     -1.219986
      58A     -1.189699    59A     -1.189692    60A     -1.181132
      61A     -1.157702    62A     -1.149132    63A     -1.135674
      64A     -1.135667    65A     -1.113335    66A     -1.113330
      67A     -1.082601    68A     -1.082594    69A     -1.078781
      70A     -1.066119    71A     -1.066115    72A     -1.039554
      73A     -1.024457    74A     -1.021957    75A     -1.021914
      76A     -1.017868    77A     -1.012930    78A     -0.987191
      79A     -0.987145    80A     -0.962026    81A     -0.961976
      82A     -0.894444    83A     -0.894418    84A     -0.888129
      85A     -0.886377    86A     -0.886319    87A     -0.881571
      88A     -0.881523    89A     -0.862050    90A     -0.837535
      91A     -0.818365    92A     -0.816798    93A     -0.812309
      94A     -0.812300    95A     -0.794832    96A     -0.794822
      97A     -0.746807    98A     -0.745035    99A     -0.733598
     100A     -0.733589   101A     -0.732330   102A     -0.732306
     103A     -0.716669   104A     -0.699126   105A     -0.699115
     106A     -0.693749   107A     -0.693733   108A     -0.661377
     109A     -0.653297   110A     -0.651343   111A     -0.650396
     112A     -0.650390   113A     -0.639507   114A     -0.639504
     115A     -0.629884   116A     -0.627695   117A     -0.627679
     118A     -0.606468   119A     -0.605920   120A     -0.601835
     121A     -0.599894   122A     -0.599863   123A     -0.593797
     124A     -0.591416   125A     -0.591405   126A     -0.585403
     127A     -0.576410   128A     -0.576404   129A     -0.567459
     130A     -0.567444   131A     -0.566133   132A     -0.566113
     133A     -0.558907   134A     -0.554998   135A     -0.554992
     136A     -0.538738   137A     -0.538736   138A     -0.538274
     139A     -0.538268   140A     -0.529871   141A     -0.528201
     142A     -0.523026   143A     -0.523020   144A     -0.500647
     145A     -0.495704   146A     -0.493384   147A     -0.487932
     148A     -0.485239   149A     -0.481920   150A     -0.481912
     151A     -0.470423   152A     -0.470405   153A     -0.451214
     154A     -0.451136   155A     -0.439174   156A     -0.439165
     157A     -0.404852   158A     -0.404829   159A     -0.403474
     160A     -0.375528   161A     -0.375526   162A     -0.349231
     163A     -0.337696   164A     -0.336663   165A     -0.336605
     166A     -0.311207   167A     -0.298197   168A     -0.284461
     169A     -0.284407   170A     -0.225031   171A     -0.224965

  @DF-RHF Final Energy: -2055.89189813348366

   => Energetics <=

    Nuclear Repulsion Energy =           6452.5568002797772351
    One-Electron Energy =              -15636.4345651459534565
    Two-Electron Energy =                7127.9858667326925570
    Total Energy =                      -2055.8918981334836644
 Dipole X            :          0.0000479            0.0000419            0.0000898
 Dipole Y            :          0.0000253           -0.0000426           -0.0000173
 Dipole Z            :        447.9489980         -447.9527105           -0.0037124
 Magnitude           :                                                    0.0037136

    SAPT Results
  --------------------------------------------------------------------------------------------------------
    Electrostatics                  9.21781550 [mEh]       5.78426655 [kcal/mol]      24.20137126 [kJ/mol]
      Elst10,r                      9.21781550 [mEh]       5.78426655 [kcal/mol]      24.20137126 [kJ/mol]

    Exchange                        0.00062429 [mEh]       0.00039174 [kcal/mol]       0.00163906 [kJ/mol]
      Exch10                        0.00062429 [mEh]       0.00039174 [kcal/mol]       0.00163906 [kJ/mol]
      Exch10(S^2)                   0.00062429 [mEh]       0.00039175 [kcal/mol]       0.00163908 [kJ/mol]

    Induction                      -3.66880405 [mEh]      -2.30220930 [kcal/mol]      -9.63244371 [kJ/mol]
      Ind20,r                      -3.70052877 [mEh]      -2.32211686 [kcal/mol]      -9.71573695 [kJ/mol]
      Exch-Ind20,r                  0.00083749 [mEh]       0.00052553 [kcal/mol]       0.00219883 [kJ/mol]
      delta HF,r (2)                0.03088723 [mEh]       0.01938203 [kcal/mol]       0.08109441 [kJ/mol]

    Dispersion                     -0.81513770 [mEh]      -0.51150663 [kcal/mol]      -2.14014374 [kJ/mol]
      Disp20                       -0.81610917 [mEh]      -0.51211624 [kcal/mol]      -2.14269434 [kJ/mol]
      Exch-Disp20                   0.00097147 [mEh]       0.00060961 [kcal/mol]       0.00255059 [kJ/mol]
      Disp20 (SS)                  -0.40805459 [mEh]      -0.25605812 [kcal/mol]      -1.07134717 [kJ/mol]
      Disp20 (OS)                  -0.40805459 [mEh]      -0.25605812 [kcal/mol]      -1.07134717 [kJ/mol]
      Exch-Disp20 (SS)              0.00074977 [mEh]       0.00047049 [kcal/mol]       0.00196852 [kJ/mol]
      Exch-Disp20 (OS)              0.00022170 [mEh]       0.00013912 [kcal/mol]       0.00058207 [kJ/mol]

  Total HF                          5.54963573 [mEh]       3.48244900 [kcal/mol]      14.57056660 [kJ/mol]
  Total SAPT0                       4.73449803 [mEh]       2.97094237 [kcal/mol]      12.43042286 [kJ/mol]

  Special recipe for scaled SAPT0 (see Manual):
    Electrostatics sSAPT0           9.21781550 [mEh]       5.78426655 [kcal/mol]      24.20137126 [kJ/mol]
    Exchange sSAPT0                 0.00062429 [mEh]       0.00039174 [kcal/mol]       0.00163906 [kJ/mol]
    Induction sSAPT0               -3.66880405 [mEh]      -2.30220930 [kcal/mol]      -9.63244371 [kJ/mol]
    Dispersion sSAPT0              -0.81513770 [mEh]      -0.51150663 [kcal/mol]      -2.14014374 [kJ/mol]
  Total sSAPT0                      4.73449803 [mEh]       2.97094237 [kcal/mol]      12.43042286 [kJ/mol]
  --------------------------------------------------------------------------------------------------------

*** Psi4 exiting successfully. Buy a developer a beer!
