                               Psi4 1.9 release

  ==> Input File <==

--------------------------------------------------------------------------
memory 64 GB # how much memory is available ! Depends on the nodes/cores !

molecule dimer {
# monomer A
+1 1    # Charge and multiplicity
C  0.680067 -1.215929 4.408042
C -0.680504 -1.215545 4.406014
N -1.085635  0.102779 4.405016
C  0.000108  0.884180 4.401740
C -2.477365  0.570758 4.355610
N  1.085222  0.102779 4.405016
H  1.385146 -2.033368 4.415870
H -1.385302 -2.033214 4.406204
H -0.000009  1.965269 4.399993
C  2.478117  0.567877 4.421908
H  2.490592  1.658130 4.394563
H  2.967028  0.220701 5.335354
H  3.001428  0.176405 3.546425
H -2.857359  0.490799 3.333539
H -3.082679 -0.042306 5.025694
H -2.518128  1.610706 4.682594
--
# monomer B
0 1     # Charge and multiplicity
C   -3.66844126402057      7.80375217008252      0.00190004133558
C   -4.84759871934653      7.13124183134024     -0.00046653359696
C   -4.89495929917518      5.69633040353158     -0.00103944469517
C   -3.65374067877320      4.98073034095895      0.00662099703436
C   -2.40942512149445      7.11398103667468      0.00209438359570
C   -2.42547734410473      5.68112195090346     -0.00491050527438
C   -1.19474401643570      7.78614419430947      0.00356656413763
C   0.03795902893699      7.09942164575698      0.00139585983271
C   0.03033258741920      5.66948955970466     -0.00408752508301
C   -1.20098450790502      4.96927034791531      0.00488220885047
C   1.27795782581485      7.77285944319479      0.00277170839332
C   2.48535808472416      7.08769688523756      0.00049722048857
C   2.48612868491717      5.65477081024076     -0.00644052849921
C   1.25408291964399      4.95607811366431      0.00518741308898
C   3.75171459140595      7.76391215098033      0.00062407186893
C   4.92356605618520      7.07878077698995     -0.00143240883900
C   4.95560727132542      5.64344746336949     -0.00159282164606
C   3.70680153420475      4.94121020833308      0.00349873852374
H   -3.65852113775815      8.89082741913536      0.00358502958574
H   -1.18921332975660      8.87412108735996      0.00753844057883
H   1.28429423888630      8.86083343548850      0.00693053253426
H   3.75354208679975      8.85103527897216      0.00214659618464
H   5.86995870320703      7.61379483465560     -0.00235777588134
H   -5.78823170750226      7.67630221293400     -0.00202638095293
C   -6.09197395869619      4.99326001364347     -0.00291168518608
C   -6.12866148031747      3.58258016879823     -0.00171050815740
C   -3.66457974004527      3.56418217974434     -0.00463560277484
C   -4.89429820469869      2.86108077590057      0.00453338221034
C   -2.43733499489796      2.84761165708481      0.00719617576166
C   -1.20922785759670      3.54788693497833     -0.00648285103018
C   1.24714157216223      3.53468075142962     -0.00729145743546
C   0.01517603956900      2.83311183930540      0.00439272578912
C   2.46764517244071      2.82128997725533      0.00449278391269
C   3.70254947457969      3.52466015442405     -0.00899517692985
C   6.14498038638375      4.92757236613191     -0.00282626685777
C   6.16658835886151      3.51658447594213     -0.00065971342101
C   4.92460995845939      2.80840792535402      0.00587903281610
H   7.08990550964105      5.46688776622306     -0.00658814770723
H   -7.03104175110130      5.54268795285765     -0.00714490013730
C   -7.33969804112295      2.85841153457957     -0.00333767559888
C   -7.36488195805880      1.47032337158330     -0.00157213747140
C   -4.90350460894690      1.44442681216000     -0.00628840166334
C   -6.13225715261081      0.73993935705394      0.00600164231964
C   -3.67687480051673      0.72669714267312      0.00433931473643
C   -2.44565658606518      1.42964113326212     -0.00597039546461
C   -1.22360068130162      0.71532450163492      0.00545886906656
C   0.00763786931376      1.41738314923765      0.00392452278437
C   1.23121980774686      0.70211669058719     -0.01490206287210
C   2.46082110053113      1.40329203612573      0.00460244601878
C   3.68443025419614      0.68719842821222      0.00377365974158
C   4.91870890153864      1.39173456118907     -0.00862816189375
C   7.36980207796101      2.77948220318441     -0.00242013321349
C   7.38016266612146      1.39121750785509     -0.00087345036788
C   6.13979953912259      0.67411862320065      0.00545489144369
H   -8.27919079934664      3.40711804112415     -0.00763522772059
H   8.31511347147953      3.31811809662368     -0.00663070901292
C   -8.59175593758115      0.72483255304480     -0.00123170985383
C   -8.59902460370342     -0.63263980622873      0.00089141472904
C   -6.13981313911873     -0.67413663715361     -0.00609792660607
C   -7.38018411213749     -1.39126618958160      0.00131813493501
C   -4.91868448025621     -1.39175501803000      0.00624257154343
C   -3.68443829568458     -0.68723731573599     -0.00478966852105
C   -2.46081704024768     -1.40334517882457      0.00575341766833
C   -1.23116201232071     -0.70217386488055     -0.00636696112346
C   -0.00756962538737     -1.41741884941102      0.00108956317991
C   1.22364771588843     -0.71527537726392      0.01109518512883
C   2.44567064933149     -1.42964328900682     -0.00065482763106
C   3.67686670284649     -0.72670743155550     -0.00479541202602
C   6.13224884641929     -0.73997883984993     -0.00632338623858
C   4.90351914550401     -1.44445752054090      0.00751768830159
C   8.59901484869081      0.63260386666793     -0.00101133422380
C   8.59174548810050     -0.72485086719319      0.00072504603735
C   7.36486276438985     -1.47033266560598      0.00049486934466
H   -9.52830597181814      1.27684744919284     -0.00270163681798
H   9.54141097460619      1.17457248844457     -0.00206336648518
C   -7.36983790976868     -2.77954514593389      0.00312634335708
C   -4.92459910905015     -2.80843725734101     -0.00460528907921
C   -6.16662249566744     -3.51665219282533      0.00169655107992
C   -3.70251035970491     -3.52468154912026      0.00571878010666
C   -2.46764698511392     -2.82132596280400     -0.00632585824990
C   -0.01513347410770     -2.83314164539971     -0.00604426974092
C   -1.24712184122656     -3.53473217556300      0.00551968366725
C   1.20924506964357     -3.54791467864352      0.00805871345849
C   2.43733602215464     -2.84764173817541     -0.00608104485234
C   4.89430234377080     -2.86112296828604     -0.00526030478103
C   3.66461525504104     -3.56421984553201      0.00761911515957
C   6.12863901474565     -3.58258405771778      0.00096495711699
C   7.33967266469532     -2.85841330737039      0.00248018319869
H   -9.54144911125902     -1.17456346666430      0.00226083090216
H   9.52826186807155     -1.27691907390448      0.00197485379837
H   -8.31516504384864     -3.31814985321231      0.00729857188773
H   8.27915514249207     -3.40714078989363      0.00681973918158
C   -6.14499418870218     -4.92764727278338      0.00302254913999
C   -3.70678334799751     -4.94126171411716     -0.00679841894792
C   -4.95559005800169     -5.64349397349412      0.00116871569699
C   -2.48612132622665     -5.65478557440947      0.00614125209662
C   -1.25405833548005     -4.95612205000132     -0.00503435388927
C   1.20101257386816     -4.96928038819302     -0.00385322963129
C   -0.03033667441341     -5.66952030313900      0.00398997003238
C   3.65375010132847     -4.98074377541453     -0.00309522988330
C   2.42549269587528     -5.68117463552727      0.00628170066869
C   6.09196561781097     -4.99325796338655      0.00325918379042
C   4.89497644461045     -5.69634842095790      0.00202298796027
H   -7.08989238804069     -5.46699984223871      0.00742531082125
H   7.03105520920009     -5.54265853633254      0.00683896355417
C   -4.92354532219813     -7.07882109967734      0.00061394679214
C   -2.48534208823777     -7.08772807792913     -0.00189594564379
C   -3.75168589177895     -7.76394715763627     -0.00170126671874
C   -0.03794895698805     -7.09946487446944     -0.00168022049625
C   -1.27795610040136     -7.77290438466689     -0.00366491325785
C   2.40944432072629     -7.11402201200282     -0.00081701968533
C   1.19474993715296     -7.78618536556242     -0.00296931056689
C   4.84762105249800     -7.13126211057943      0.00168979497423
C   3.66847160587561     -7.80378799294376     -0.00065863938960
H   -5.86994035041618     -7.61383059804164      0.00215798365757
H   5.78824962538815     -7.67633218931421      0.00281691445618
H   -3.75352693944918     -8.85107156923607     -0.00353718114765
H   -1.28430440589466     -8.86087539249706     -0.00809229711623
H   1.18922157469537     -8.87416062058945     -0.00706194725726
H   3.65854661482387     -8.89086063405326     -0.00231318081200

    units angstrom      # Angstroms are the default
    no_reorient         # Geometry fixed, default
    symmetry c1         # C1 symmetry, default
}

set {
    scf_type DF         # Density fitting, faster than exact integrals
    freeze_core True    # Freeze core electrons
    basis jun-cc-pVDZ   # Jun-cc-pVDZ basis set, recommended for sSAPT0 in https://doi.org/10.1063/1.4867135
}

energy('ssapt0')        # Compute sSAPT0 energy, includes also SAPT0
--------------------------------------------------------------------------

  //              Dimer HF             //
    Molecular point group: c1
  Charge       = 1
  Multiplicity = 1
  Basis Set: JUN-CC-PVDZ
    Blend: JUN-CC-PVDZ
  Basis Set: (JUN-CC-PVDZ AUX)
    Blend: JUN-CC-PVDZ-JKFIT
  @DF-RHF Final Energy: -3953.65923672538975
    Total Energy =                      -3953.6592367253906559
 Dipole X            :          0.0018059            0.0004804            0.0022864
 Dipole Y            :         -1.5974407            1.8866171            0.2891764
 Dipole Z            :        -20.5025727           26.6655497            6.1629770
 Magnitude           :                                                    6.1697580
  //            Monomer A HF           //
    Molecular point group: c1
  Multiplicity = 1
  Basis Set: JUN-CC-PVDZ
    Blend: JUN-CC-PVDZ
  Basis Set: (JUN-CC-PVDZ AUX)
    Blend: JUN-CC-PVDZ-JKFIT
  @DF-RHF Final Energy:  -303.29827986854218
    Total Energy =                       -303.2982798685421812
  //            Monomer B HF           //
    Molecular point group: c1

    Geometry (in Angstrom), charge = 0, multiplicity = 1:

       Center              X                  Y                   Z               Mass
    ------------   -----------------  -----------------  -----------------  -----------------
      Gh(C)           0.680062820275    -1.215917226251     4.072572876375    12.000000000000
      Gh(C)          -0.680508179725    -1.215533226251     4.070544876375    12.000000000000
      Gh(N)          -1.085639179725     0.102790773749     4.069546876375    14.003074004430
      Gh(C)           0.000103820275     0.884191773749     4.066270876375    12.000000000000
      Gh(C)          -2.477369179725     0.570769773749     4.020140876375    12.000000000000
      Gh(N)           1.085217820275     0.102790773749     4.069546876375    14.003074004430
      Gh(H)           1.385141820275    -2.033356226251     4.080400876375     1.007825032230
      Gh(H)          -1.385306179725    -2.033202226251     4.070734876375     1.007825032230
      Gh(H)          -0.000013179725     1.965280773749     4.064523876375     1.007825032230
      Gh(C)           2.478112820275     0.567888773749     4.086438876375    12.000000000000
      Gh(H)           2.490587820275     1.658141773750     4.059093876375     1.007825032230
      Gh(H)           2.967023820275     0.220712773749     4.999884876375     1.007825032230
      Gh(H)           3.001423820275     0.176416773749     3.210955876375     1.007825032230
      Gh(H)          -2.857363179725     0.490810773749     2.998069876375     1.007825032230
      Gh(H)          -3.082683179725    -0.042294226251     4.690224876375     1.007825032230
      Gh(H)          -2.518132179725     1.610717773749     4.347124876375     1.007825032230
         C           -3.668445443746     7.803763943832    -0.333569082289    12.000000000000
         C           -4.847602899072     7.131253605090    -0.335935657221    12.000000000000
         C           -4.894963478901     5.696342177281    -0.336508568320    12.000000000000
         C           -3.653744858499     4.980742114708    -0.328848126590    12.000000000000
         C           -2.409429301220     7.113992810424    -0.333374740029    12.000000000000
         C           -2.425481523830     5.681133724653    -0.340379628899    12.000000000000
         C           -1.194748196161     7.786155968059    -0.331902559487    12.000000000000
         C            0.037954849212     7.099433419506    -0.334073263792    12.000000000000
         C            0.030328407694     5.669501333454    -0.339556648708    12.000000000000
         C           -1.200988687630     4.969282121665    -0.330586914774    12.000000000000
         C            1.277953646089     7.772871216944    -0.332697415231    12.000000000000
         C            2.485353904999     7.087708658987    -0.334971903136    12.000000000000
         C            2.486124505192     5.654782583990    -0.341909652124    12.000000000000
         C            1.254078739919     4.956089887414    -0.330281710536    12.000000000000
         C            3.751710411681     7.763923924730    -0.334845051756    12.000000000000
         C            4.923561876460     7.078792550739    -0.336901532464    12.000000000000
         C            4.955603091600     5.643459237119    -0.337061945271    12.000000000000
         C            3.706797354479     4.941221982083    -0.331970385101    12.000000000000
         H           -3.658525317484     8.890839192885    -0.331884094039     1.007825032230
         H           -1.189217509482     8.874132861109    -0.327930683046     1.007825032230
         H            1.284290059161     8.860845209238    -0.328538591090     1.007825032230
         H            3.753537907074     8.851047052722    -0.333322527440     1.007825032230
         H            5.869954523482     7.613806608405    -0.337826899506     1.007825032230
         H           -5.788235887228     7.676313986684    -0.337495504577     1.007825032230
         C           -6.091978138422     4.993271787393    -0.338380808811    12.000000000000
         C           -6.128665660043     3.582591942548    -0.337179631782    12.000000000000
         C           -3.664583919771     3.564193953494    -0.340104726399    12.000000000000
         C           -4.894302384424     2.861092549650    -0.330935741414    12.000000000000
         C           -2.437339174623     2.847623430834    -0.328272947863    12.000000000000
         C           -1.209232037322     3.547898708728    -0.341951974655    12.000000000000
         C            1.247137392437     3.534692525179    -0.342760581060    12.000000000000
         C            0.015171859844     2.833123613055    -0.331076397835    12.000000000000
         C            2.467640992715     2.821301751005    -0.330976339712    12.000000000000
         C            3.702545294854     3.524671928174    -0.344464300554    12.000000000000
         C            6.144976206658     4.927584139881    -0.338295390482    12.000000000000
         C            6.166584179136     3.516596249692    -0.336128837046    12.000000000000
         C            4.924605778734     2.808419699104    -0.329590090808    12.000000000000
         H            7.089901329916     5.466899539973    -0.342057271332     1.007825032230
         H           -7.031045930827     5.542699726607    -0.342614023762     1.007825032230
         C           -7.339702220848     2.858423308329    -0.338806799223    12.000000000000
         C           -7.364886137784     1.470335145333    -0.337041261096    12.000000000000
         C           -4.903508788672     1.444438585909    -0.341757525288    12.000000000000
         C           -6.132261332336     0.739951130803    -0.329467481305    12.000000000000
         C           -3.676878980242     0.726708916423    -0.331129808888    12.000000000000
         C           -2.445660765791     1.429652907012    -0.341439519089    12.000000000000
         C           -1.223604861027     0.715336275384    -0.330010254558    12.000000000000
         C            0.007633689588     1.417394922987    -0.331544600840    12.000000000000
         C            1.231215628021     0.702128464337    -0.350371186497    12.000000000000
         C            2.460816920806     1.403303809875    -0.330866677606    12.000000000000
         C            3.684426074471     0.687210201962    -0.331695463883    12.000000000000
         C            4.918704721813     1.391746334939    -0.344097285518    12.000000000000
         C            7.369797898236     2.779493976934    -0.337889256838    12.000000000000
         C            7.380158486396     1.391229281605    -0.336342573992    12.000000000000
         C            6.139795359397     0.674130396950    -0.330014232181    12.000000000000
         H           -8.279194979072     3.407129814874    -0.343104351345     1.007825032230
         H            8.315109291754     3.318129870373    -0.342099832637     1.007825032230
         C           -8.591760117307     0.724844326794    -0.336700833478    12.000000000000
         C           -8.599028783429    -0.632628032479    -0.334577708895    12.000000000000
         C           -6.139817318844    -0.674124863404    -0.341567050231    12.000000000000
         C           -7.380188291863    -1.391254415832    -0.334150988689    12.000000000000
         C           -4.918688659982    -1.391743244281    -0.329226552081    12.000000000000
         C           -3.684442475410    -0.687225541986    -0.340258792146    12.000000000000
         C           -2.460821219973    -1.403333405075    -0.329715705956    12.000000000000
         C           -1.231166192046    -0.702162091131    -0.341836084748    12.000000000000
         C           -0.007573805113    -1.417407075662    -0.334379560445    12.000000000000
         C            1.223643536163    -0.715263603514    -0.324373938496    12.000000000000
         C            2.445666469606    -1.429631515257    -0.336123951256    12.000000000000
         C            3.676862523121    -0.726695657806    -0.340264535651    12.000000000000
         C            6.132244666694    -0.739967066100    -0.341792509863    12.000000000000
         C            4.903514965779    -1.444445746791    -0.327951435323    12.000000000000
         C            8.599010668965     0.632615640417    -0.336480457848    12.000000000000
         C            8.591741308375    -0.724839093444    -0.334744077587    12.000000000000
         C            7.364858584664    -1.470320891856    -0.334974254280    12.000000000000
         H           -9.528310151544     1.276859222942    -0.338170760442     1.007825032230
         H            9.541406794881     1.174584262194    -0.337532490110     1.007825032230
         C           -7.369842089494    -2.779533372184    -0.332342780267    12.000000000000
         C           -4.924603288776    -2.808425483592    -0.340074412704    12.000000000000
         C           -6.166626675393    -3.516640419076    -0.333772572545    12.000000000000
         C           -3.702514539430    -3.524669775371    -0.329750343518    12.000000000000
         C           -2.467651164839    -2.821314189055    -0.341794981874    12.000000000000
         C           -0.015137653833    -2.833129871650    -0.341513393365    12.000000000000
         C           -1.247126020952    -3.534720401814    -0.329949439957    12.000000000000
         C            1.209240889918    -3.547902904894    -0.327410410166    12.000000000000
         C            2.437331842429    -2.847629964426    -0.341550168477    12.000000000000
         C            4.894298164045    -2.861111194537    -0.340729428406    12.000000000000
         C            3.664611075316    -3.564208071783    -0.327850008465    12.000000000000
         C            6.128634835020    -3.582572283968    -0.334504166508    12.000000000000
         C            7.339668484970    -2.858401533621    -0.332988940426    12.000000000000
         H           -9.541453290984    -1.174551692915    -0.333208292722     1.007825032230
         H            9.528257688346    -1.276907300155    -0.333494269826     1.007825032230
         H           -8.315169223574    -3.318138079463    -0.328170551737     1.007825032230
         H            8.279150962767    -3.407129016144    -0.328649384443     1.007825032230
         C           -6.144998368428    -4.927635499034    -0.332446574485    12.000000000000
         C           -3.706787527723    -4.941249940368    -0.342267542572    12.000000000000
         C           -4.955594237727    -5.643482199745    -0.334300407928    12.000000000000
         C           -2.486125505952    -5.654773800660    -0.329327871528    12.000000000000
         C           -1.254062515205    -4.956110276252    -0.340503477514    12.000000000000
         C            1.201008394143    -4.969268614444    -0.339322353256    12.000000000000
         C           -0.030340854139    -5.669508529390    -0.331479153592    12.000000000000
         C            3.653745921603    -4.980732001665    -0.338564353508    12.000000000000
         C            2.425488516150    -5.681162861778    -0.329187422956    12.000000000000
         C            6.091961438086    -4.993246189637    -0.332209939834    12.000000000000
         C            4.894972264885    -5.696336647208    -0.333446135664    12.000000000000
         H           -7.089896567766    -5.466988068489    -0.328043812803     1.007825032230
         H            7.031051029475    -5.542646762583    -0.328630160070     1.007825032230
         C           -4.923549501924    -7.078809325928    -0.334855176832    12.000000000000
         C           -2.485346267963    -7.087716304180    -0.337365069268    12.000000000000
         C           -3.751690071504    -7.763935383887    -0.337170390343    12.000000000000
         C           -0.037953136713    -7.099453100720    -0.337149344121    12.000000000000
         C           -1.277960280127    -7.772892610917    -0.339134036882    12.000000000000
         C            2.409440141001    -7.114010238253    -0.336286143310    12.000000000000
         C            1.194745757428    -7.786173591813    -0.338438434191    12.000000000000
         C            4.847616872773    -7.131250336830    -0.333779328650    12.000000000000
         C            3.668467426150    -7.803776219194    -0.336127763014    12.000000000000
         H           -5.869944530142    -7.613818824292    -0.333311139967     1.007825032230
         H            5.788245445663    -7.676320415565    -0.332652209168     1.007825032230
         H           -3.753531119175    -8.851059795487    -0.339006304772     1.007825032230
         H           -1.284308585620    -8.860863618748    -0.343561420741     1.007825032230
         H            1.189217394970    -8.874148846840    -0.342531070882     1.007825032230
         H            3.658542435098    -8.890848860304    -0.337782304437     1.007825032230

  Charge       = 0
  Multiplicity = 1
  Basis Set: JUN-CC-PVDZ
    Blend: JUN-CC-PVDZ
  Basis Set: (JUN-CC-PVDZ AUX)
    Blend: JUN-CC-PVDZ-JKFIT

    Orbital Energies [Eh]
    ---------------------

    Doubly Occupied:

       1A    -11.264022     2A    -11.263702     3A    -11.263666
       4A    -11.263322     5A    -11.263307     6A    -11.263261
       7A    -11.263131     8A    -11.263113     9A    -11.263084
      10A    -11.262905    11A    -11.262769    12A    -11.262751
      13A    -11.262271    14A    -11.262261    15A    -11.262220
      16A    -11.262193    17A    -11.262123    18A    -11.262093
      19A    -11.262051    20A    -11.262007    21A    -11.262004
      22A    -11.261881    23A    -11.261876    24A    -11.261735
      25A    -11.261725    26A    -11.261704    27A    -11.261700
      28A    -11.261657    29A    -11.261650    30A    -11.261560
      31A    -11.261539    32A    -11.261537    33A    -11.261516
      34A    -11.261511    35A    -11.261499    36A    -11.261492
      37A    -11.261311    38A    -11.261301    39A    -11.261294
      40A    -11.261290    41A    -11.261280    42A    -11.261276
      43A    -11.261264    44A    -11.261251    45A    -11.261244
      46A    -11.261222    47A    -11.261216    48A    -11.261211
      49A    -11.261060    50A    -11.261042    51A    -11.261016
      52A    -11.260970    53A    -11.260937    54A    -11.260890
      55A    -11.259889    56A    -11.259877    57A    -11.259871
      58A    -11.259845    59A    -11.259840    60A    -11.259825
      61A    -11.259262    62A    -11.259238    63A    -11.259231
      64A    -11.259183    65A    -11.259176    66A    -11.259149
      67A    -11.258891    68A    -11.258875    69A    -11.258870
      70A    -11.258845    71A    -11.258839    72A    -11.258829
      73A    -11.254507    74A    -11.254506    75A    -11.254501
      76A    -11.254497    77A    -11.254496    78A    -11.254491
      79A    -11.253633    80A    -11.253630    81A    -11.253625
      82A    -11.253621    83A    -11.253620    84A    -11.253617
      85A    -11.253549    86A    -11.253546    87A    -11.253540
      88A    -11.253536    89A    -11.253536    90A    -11.253533
      91A    -11.253034    92A    -11.253033    93A    -11.253029
      94A    -11.253025    95A    -11.253024    96A    -11.253018
      97A     -1.253880    98A     -1.238953    99A     -1.238929
     100A     -1.220419   101A     -1.220411   102A     -1.215385
     103A     -1.201002   104A     -1.195561   105A     -1.188093
     106A     -1.188075   107A     -1.173725   108A     -1.173724
     109A     -1.155573   110A     -1.155568   111A     -1.152658
     112A     -1.144686   113A     -1.144684   114A     -1.128515
     115A     -1.114656   116A     -1.113125   117A     -1.112435
     118A     -1.112407   119A     -1.111584   120A     -1.088377
     121A     -1.088364   122A     -1.076926   123A     -1.076924
     124A     -1.067564   125A     -1.067531   126A     -1.064915
     127A     -1.046755   128A     -1.046744   129A     -1.040430
     130A     -1.038701   131A     -1.038697   132A     -1.025182
     133A     -1.021326   134A     -1.021265   135A     -1.007134
     136A     -1.006755   137A     -1.003751   138A     -1.000435
     139A     -1.000383   140A     -0.991042   141A     -0.970937
     142A     -0.970886   143A     -0.955844   144A     -0.955786
     145A     -0.905521   146A     -0.905516   147A     -0.905484
     148A     -0.905474   149A     -0.904258   150A     -0.892297
     151A     -0.892237   152A     -0.890301   153A     -0.890248
     154A     -0.889396   155A     -0.872177   156A     -0.869027
     157A     -0.851495   158A     -0.847801   159A     -0.847788
     160A     -0.845535   161A     -0.842956   162A     -0.834514
     163A     -0.834503   164A     -0.828082   165A     -0.828074
     166A     -0.784502   167A     -0.784493   168A     -0.783605
     169A     -0.783587   170A     -0.782232   171A     -0.782209
     172A     -0.781971   173A     -0.766939   174A     -0.760723
     175A     -0.750512   176A     -0.733445   177A     -0.727024
     178A     -0.726995   179A     -0.725024   180A     -0.724493
     181A     -0.724466   182A     -0.718427   183A     -0.713710
     184A     -0.713703   185A     -0.699530   186A     -0.699507
     187A     -0.686055   188A     -0.685911   189A     -0.685904
     190A     -0.682122   191A     -0.682115   192A     -0.678724
     193A     -0.653577   194A     -0.650821   195A     -0.650788
     196A     -0.649744   197A     -0.649736   198A     -0.649521
     199A     -0.640870   200A     -0.640826   201A     -0.640037
     202A     -0.639117   203A     -0.635965   204A     -0.635931
     205A     -0.629082   206A     -0.617749   207A     -0.615260
     208A     -0.615235   209A     -0.608750   210A     -0.608743
     211A     -0.599132   212A     -0.599108   213A     -0.598686
     214A     -0.598535   215A     -0.598521   216A     -0.597974
     217A     -0.595019   218A     -0.595006   219A     -0.594667
     220A     -0.594158   221A     -0.591897   222A     -0.591892
     223A     -0.587317   224A     -0.577760   225A     -0.577745
     226A     -0.575679   227A     -0.575675   228A     -0.573327
     229A     -0.569567   230A     -0.568080   231A     -0.568053
     232A     -0.566694   233A     -0.566686   234A     -0.560875
     235A     -0.558662   236A     -0.558625   237A     -0.558388
     238A     -0.554311   239A     -0.550543   240A     -0.547435
     241A     -0.544239   242A     -0.535011   243A     -0.534984
     244A     -0.533485   245A     -0.533467   246A     -0.528029
     247A     -0.528013   248A     -0.527718   249A     -0.517103
     250A     -0.517071   251A     -0.515326   252A     -0.515319
     253A     -0.509591   254A     -0.509579   255A     -0.497969
     256A     -0.496398   257A     -0.496362   258A     -0.493785
     259A     -0.493754   260A     -0.489414   261A     -0.481401
     262A     -0.477385   263A     -0.477385   264A     -0.473939
     265A     -0.469370   266A     -0.466460   267A     -0.466458
     268A     -0.458778   269A     -0.446603   270A     -0.446549
     271A     -0.440988   272A     -0.440747   273A     -0.440702
     274A     -0.434654   275A     -0.433870   276A     -0.407335
     277A     -0.407312   278A     -0.386373   279A     -0.386310
     280A     -0.385695   281A     -0.385694   282A     -0.383715
     283A     -0.354282   284A     -0.354258   285A     -0.350625
     286A     -0.338047   287A     -0.335541   288A     -0.335503
     289A     -0.332675   290A     -0.332671   291A     -0.307022
     292A     -0.301897   293A     -0.301831   294A     -0.300798
     295A     -0.286127   296A     -0.256439   297A     -0.253444
     298A     -0.253401   299A     -0.204219   300A     -0.204133

  @DF-RHF Final Energy: -3650.34091940883491

   => Energetics <=

    Nuclear Repulsion Energy =          15611.4211649754324753
    One-Electron Energy =              -36072.1721168444419163
    Two-Electron Energy =               16810.4100324601749890
    Total Energy =                      -3650.3409194088344520
 Dipole X            :         -0.0007200            0.0002112           -0.0005089
 Dipole Y            :          0.0044517           -0.0044281            0.0000237
 Dipole Z            :        380.3533663         -380.3634684           -0.0101021
 Magnitude           :                                                    0.0101149

    SAPT Results
  --------------------------------------------------------------------------------------------------------
    Electrostatics                -12.21886076 [mEh]      -7.66745089 [kcal/mol]     -32.08061451 [kJ/mol]
      Elst10,r                    -12.21886076 [mEh]      -7.66745089 [kcal/mol]     -32.08061451 [kJ/mol]

    Exchange                        0.99288963 [mEh]       0.62304765 [kcal/mol]       2.60683136 [kJ/mol]
      Exch10                        0.99288963 [mEh]       0.62304765 [kcal/mol]       2.60683136 [kJ/mol]
      Exch10(S^2)                   0.99280864 [mEh]       0.62299682 [kcal/mol]       2.60661871 [kJ/mol]

    Induction                      -8.81147688 [mEh]      -5.52928522 [kcal/mol]     -23.13452935 [kJ/mol]
      Ind20,r                      -8.63905318 [mEh]      -5.42108771 [kcal/mol]     -22.68183099 [kJ/mol]
      Exch-Ind20,r                  0.21532653 [mEh]       0.13511944 [kcal/mol]       0.56533973 [kJ/mol]
      delta HF,r (2)               -0.38775023 [mEh]      -0.24331694 [kcal/mol]      -1.01803810 [kJ/mol]

    Dispersion                    -12.14003595 [mEh]      -7.61798757 [kcal/mol]     -31.87365998 [kJ/mol]
      Disp20                      -12.30368111 [mEh]      -7.72067646 [kcal/mol]     -32.30331031 [kJ/mol]
      Exch-Disp20                   0.16364517 [mEh]       0.10268889 [kcal/mol]       0.42965033 [kJ/mol]
      Disp20 (SS)                  -6.15184056 [mEh]      -3.86033823 [kcal/mol]     -16.15165516 [kJ/mol]
      Disp20 (OS)                  -6.15184056 [mEh]      -3.86033823 [kcal/mol]     -16.15165516 [kJ/mol]
      Exch-Disp20 (SS)              0.10684332 [mEh]       0.06704520 [kcal/mol]       0.28051710 [kJ/mol]
      Exch-Disp20 (OS)              0.05680185 [mEh]       0.03564370 [kcal/mol]       0.14913323 [kJ/mol]

  Total HF                        -20.03744801 [mEh]     -12.57368846 [kcal/mol]     -52.60831251 [kJ/mol]
  Total SAPT0                     -32.17748396 [mEh]     -20.19167603 [kcal/mol]     -84.48197249 [kJ/mol]

  Special recipe for scaled SAPT0 (see Manual):
    Electrostatics sSAPT0         -12.21886076 [mEh]      -7.66745089 [kcal/mol]     -32.08061451 [kJ/mol]
    Exchange sSAPT0                 0.99288963 [mEh]       0.62304765 [kcal/mol]       2.60683136 [kJ/mol]
    Induction sSAPT0               -8.81142417 [mEh]      -5.52925215 [kcal/mol]     -23.13439098 [kJ/mol]
    Dispersion sSAPT0             -12.13999589 [mEh]      -7.61796243 [kcal/mol]     -31.87355482 [kJ/mol]
  Total sSAPT0                    -32.17739120 [mEh]     -20.19161782 [kcal/mol]     -84.48172896 [kJ/mol]
  --------------------------------------------------------------------------------------------------------

*** Psi4 exiting successfully. Buy a developer a beer!
