                               Psi4 1.9 release

  ==> Input File <==

--------------------------------------------------------------------------
memory 80 GB # how much memory is available ! Depends on the nodes/cores !

molecule dimer {
# monomer A
+1 1    # Charge and multiplicity
C  0.680067 -0.008042 -4.615929
C -0.680504 -0.006014 -4.615545
N -1.085635 -0.005016 -3.297221
C  0.000108 -0.001740 -2.515820
C -2.477365  0.044390 -2.829242
N  1.085222 -0.005016 -3.297221
H  1.385146 -0.015870 -5.433368
H -1.385302 -0.006204 -5.433214
H -0.000009  0.000007 -1.434731
C  2.478117 -0.021908 -2.832123
H  2.490592  0.005437 -1.741870
H  2.967028 -0.935354 -3.179299
H  3.001428  0.853575 -3.223595
H -2.857359  1.066461 -2.909201
H -3.082679 -0.625694 -3.442306
H -2.518128 -0.282594 -1.789294
--
# monomer B
0 1     # Charge and multiplicity
C   -3.66844126402057      7.80375217008252      0.00190004133558
C   -4.84759871934653      7.13124183134024     -0.00046653359696
C   -4.89495929917518      5.69633040353158     -0.00103944469517
C   -3.65374067877320      4.98073034095895      0.00662099703436
C   -2.40942512149445      7.11398103667468      0.00209438359570
C   -2.42547734410473      5.68112195090346     -0.00491050527438
C   -1.19474401643570      7.78614419430947      0.00356656413763
C   0.03795902893699      7.09942164575698      0.00139585983271
C   0.03033258741920      5.66948955970466     -0.00408752508301
C   -1.20098450790502      4.96927034791531      0.00488220885047
C   1.27795782581485      7.77285944319479      0.00277170839332
C   2.48535808472416      7.08769688523756      0.00049722048857
C   2.48612868491717      5.65477081024076     -0.00644052849921
C   1.25408291964399      4.95607811366431      0.00518741308898
C   3.75171459140595      7.76391215098033      0.00062407186893
C   4.92356605618520      7.07878077698995     -0.00143240883900
C   4.95560727132542      5.64344746336949     -0.00159282164606
C   3.70680153420475      4.94121020833308      0.00349873852374
H   -3.65852113775815      8.89082741913536      0.00358502958574
H   -1.18921332975660      8.87412108735996      0.00753844057883
H   1.28429423888630      8.86083343548850      0.00693053253426
H   3.75354208679975      8.85103527897216      0.00214659618464
H   5.86995870320703      7.61379483465560     -0.00235777588134
H   -5.78823170750226      7.67630221293400     -0.00202638095293
C   -6.09197395869619      4.99326001364347     -0.00291168518608
C   -6.12866148031747      3.58258016879823     -0.00171050815740
C   -3.66457974004527      3.56418217974434     -0.00463560277484
C   -4.89429820469869      2.86108077590057      0.00453338221034
C   -2.43733499489796      2.84761165708481      0.00719617576166
C   -1.20922785759670      3.54788693497833     -0.00648285103018
C   1.24714157216223      3.53468075142962     -0.00729145743546
C   0.01517603956900      2.83311183930540      0.00439272578912
C   2.46764517244071      2.82128997725533      0.00449278391269
C   3.70254947457969      3.52466015442405     -0.00899517692985
C   6.14498038638375      4.92757236613191     -0.00282626685777
C   6.16658835886151      3.51658447594213     -0.00065971342101
C   4.92460995845939      2.80840792535402      0.00587903281610
H   7.08990550964105      5.46688776622306     -0.00658814770723
H   -7.03104175110130      5.54268795285765     -0.00714490013730
C   -7.33969804112295      2.85841153457957     -0.00333767559888
C   -7.36488195805880      1.47032337158330     -0.00157213747140
C   -4.90350460894690      1.44442681216000     -0.00628840166334
C   -6.13225715261081      0.73993935705394      0.00600164231964
C   -3.67687480051673      0.72669714267312      0.00433931473643
C   -2.44565658606518      1.42964113326212     -0.00597039546461
C   -1.22360068130162      0.71532450163492      0.00545886906656
C   0.00763786931376      1.41738314923765      0.00392452278437
C   1.23121980774686      0.70211669058719     -0.01490206287210
C   2.46082110053113      1.40329203612573      0.00460244601878
C   3.68443025419614      0.68719842821222      0.00377365974158
C   4.91870890153864      1.39173456118907     -0.00862816189375
C   7.36980207796101      2.77948220318441     -0.00242013321349
C   7.38016266612146      1.39121750785509     -0.00087345036788
C   6.13979953912259      0.67411862320065      0.00545489144369
H   -8.27919079934664      3.40711804112415     -0.00763522772059
H   8.31511347147953      3.31811809662368     -0.00663070901292
C   -8.59175593758115      0.72483255304480     -0.00123170985383
C   -8.59902460370342     -0.63263980622873      0.00089141472904
C   -6.13981313911873     -0.67413663715361     -0.00609792660607
C   -7.38018411213749     -1.39126618958160      0.00131813493501
C   -4.91868448025621     -1.39175501803000      0.00624257154343
C   -3.68443829568458     -0.68723731573599     -0.00478966852105
C   -2.46081704024768     -1.40334517882457      0.00575341766833
C   -1.23116201232071     -0.70217386488055     -0.00636696112346
C   -0.00756962538737     -1.41741884941102      0.00108956317991
C   1.22364771588843     -0.71527537726392      0.01109518512883
C   2.44567064933149     -1.42964328900682     -0.00065482763106
C   3.67686670284649     -0.72670743155550     -0.00479541202602
C   6.13224884641929     -0.73997883984993     -0.00632338623858
C   4.90351914550401     -1.44445752054090      0.00751768830159
C   8.59901484869081      0.63260386666793     -0.00101133422380
C   8.59174548810050     -0.72485086719319      0.00072504603735
C   7.36486276438985     -1.47033266560598      0.00049486934466
H   -9.52830597181814      1.27684744919284     -0.00270163681798
H   9.54141097460619      1.17457248844457     -0.00206336648518
C   -7.36983790976868     -2.77954514593389      0.00312634335708
C   -4.92459910905015     -2.80843725734101     -0.00460528907921
C   -6.16662249566744     -3.51665219282533      0.00169655107992
C   -3.70251035970491     -3.52468154912026      0.00571878010666
C   -2.46764698511392     -2.82132596280400     -0.00632585824990
C   -0.01513347410770     -2.83314164539971     -0.00604426974092
C   -1.24712184122656     -3.53473217556300      0.00551968366725
C   1.20924506964357     -3.54791467864352      0.00805871345849
C   2.43733602215464     -2.84764173817541     -0.00608104485234
C   4.89430234377080     -2.86112296828604     -0.00526030478103
C   3.66461525504104     -3.56421984553201      0.00761911515957
C   6.12863901474565     -3.58258405771778      0.00096495711699
C   7.33967266469532     -2.85841330737039      0.00248018319869
H   -9.54144911125902     -1.17456346666430      0.00226083090216
H   9.52826186807155     -1.27691907390448      0.00197485379837
H   -8.31516504384864     -3.31814985321231      0.00729857188773
H   8.27915514249207     -3.40714078989363      0.00681973918158
C   -6.14499418870218     -4.92764727278338      0.00302254913999
C   -3.70678334799751     -4.94126171411716     -0.00679841894792
C   -4.95559005800169     -5.64349397349412      0.00116871569699
C   -2.48612132622665     -5.65478557440947      0.00614125209662
C   -1.25405833548005     -4.95612205000132     -0.00503435388927
C   1.20101257386816     -4.96928038819302     -0.00385322963129
C   -0.03033667441341     -5.66952030313900      0.00398997003238
C   3.65375010132847     -4.98074377541453     -0.00309522988330
C   2.42549269587528     -5.68117463552727      0.00628170066869
C   6.09196561781097     -4.99325796338655      0.00325918379042
C   4.89497644461045     -5.69634842095790      0.00202298796027
H   -7.08989238804069     -5.46699984223871      0.00742531082125
H   7.03105520920009     -5.54265853633254      0.00683896355417
C   -4.92354532219813     -7.07882109967734      0.00061394679214
C   -2.48534208823777     -7.08772807792913     -0.00189594564379
C   -3.75168589177895     -7.76394715763627     -0.00170126671874
C   -0.03794895698805     -7.09946487446944     -0.00168022049625
C   -1.27795610040136     -7.77290438466689     -0.00366491325785
C   2.40944432072629     -7.11402201200282     -0.00081701968533
C   1.19474993715296     -7.78618536556242     -0.00296931056689
C   4.84762105249800     -7.13126211057943      0.00168979497423
C   3.66847160587561     -7.80378799294376     -0.00065863938960
H   -5.86994035041618     -7.61383059804164      0.00215798365757
H   5.78824962538815     -7.67633218931421      0.00281691445618
H   -3.75352693944918     -8.85107156923607     -0.00353718114765
H   -1.28430440589466     -8.86087539249706     -0.00809229711623
H   1.18922157469537     -8.87416062058945     -0.00706194725726
H   3.65854661482387     -8.89086063405326     -0.00231318081200

    units angstrom      # Angstroms are the default
    no_reorient         # Geometry fixed, default
    symmetry c1         # C1 symmetry, default
}

set {
    scf_type DF         # Density fitting, faster than exact integrals
    freeze_core True    # Freeze core electrons
    basis jun-cc-pVDZ   # Jun-cc-pVDZ basis set, recommended for sSAPT0 in https://doi.org/10.1063/1.4867135
}

energy('ssapt0')        # Compute sSAPT0 energy, includes also SAPT0
--------------------------------------------------------------------------

  //              Dimer HF             //
    Molecular point group: c1
  Charge       = 1
  Multiplicity = 1
  Basis Set: JUN-CC-PVDZ
    Blend: JUN-CC-PVDZ
  Basis Set: (JUN-CC-PVDZ AUX)
    Blend: JUN-CC-PVDZ-JKFIT
  @DF-RHF Final Energy: -3953.57946321371037
    Total Energy =                      -3953.5794632137112785
 Dipole X            :          0.0008082            0.0004804            0.0012886
 Dipole Y            :         -0.0486767            0.0561130            0.0074363
 Dipole Z            :         15.4491311          -18.7627198           -3.3135887
 Magnitude           :                                                    3.3135973
  //            Monomer A HF           //
    Molecular point group: c1
  Multiplicity = 1
  Basis Set: JUN-CC-PVDZ
    Blend: JUN-CC-PVDZ
  Basis Set: (JUN-CC-PVDZ AUX)
    Blend: JUN-CC-PVDZ-JKFIT
  @DF-RHF Final Energy:  -303.29930448220330
    Total Energy =                       -303.2993044822032971
  //            Monomer B HF           //
    Molecular point group: c1

    Geometry (in Angstrom), charge = 0, multiplicity = 1:

       Center              X                  Y                   Z               Mass
    ------------   -----------------  -----------------  -----------------  -----------------
      Gh(C)           0.680062820275    -0.008027535675    -4.356711040798    12.000000000000
      Gh(C)          -0.680508179725    -0.005999535675    -4.356327040798    12.000000000000
      Gh(N)          -1.085639179725    -0.005001535675    -3.038003040798    14.003074004430
      Gh(C)           0.000103820275    -0.001725535675    -2.256602040798    12.000000000000
      Gh(C)          -2.477369179725     0.044404464325    -2.570024040798    12.000000000000
      Gh(N)           1.085217820275    -0.005001535675    -3.038003040798    14.003074004430
      Gh(H)           1.385141820275    -0.015855535675    -5.174150040798     1.007825032230
      Gh(H)          -1.385306179725    -0.006189535675    -5.173996040798     1.007825032230
      Gh(H)          -0.000013179725     0.000021464325    -1.175513040798     1.007825032230
      Gh(C)           2.478112820275    -0.021893535675    -2.572905040798    12.000000000000
      Gh(H)           2.490587820275     0.005451464325    -1.482652040798     1.007825032230
      Gh(H)           2.967023820275    -0.935339535675    -2.920081040798     1.007825032230
      Gh(H)           3.001423820275     0.853589464325    -2.964377040798     1.007825032230
      Gh(H)          -2.857363179725     1.066475464325    -2.649983040798     1.007825032230
      Gh(H)          -3.082683179725    -0.625679535675    -3.183088040798     1.007825032230
      Gh(H)          -2.518132179725    -0.282579535675    -1.530076040798     1.007825032230
         C           -3.668445443746     7.803766634408     0.261118000538    12.000000000000
         C           -4.847602899072     7.131256295665     0.258751425605    12.000000000000
         C           -4.894963478901     5.696344867857     0.258178514507    12.000000000000
         C           -3.653744858499     4.980744805284     0.265838956236    12.000000000000
         C           -2.409429301220     7.113995501000     0.261312342798    12.000000000000
         C           -2.425481523830     5.681136415228     0.254307453928    12.000000000000
         C           -1.194748196161     7.786158658634     0.262784523340    12.000000000000
         C            0.037954849212     7.099436110082     0.260613819035    12.000000000000
         C            0.030328407694     5.669504024030     0.255130434119    12.000000000000
         C           -1.200988687630     4.969284812240     0.264100168053    12.000000000000
         C            1.277953646089     7.772873907520     0.261989667595    12.000000000000
         C            2.485353904999     7.087711349563     0.259715179691    12.000000000000
         C            2.486124505192     5.654785274566     0.252777430703    12.000000000000
         C            1.254078739919     4.956092577989     0.264405372291    12.000000000000
         C            3.751710411681     7.763926615305     0.259842031071    12.000000000000
         C            4.923561876460     7.078795241315     0.257785550363    12.000000000000
         C            4.955603091600     5.643461927694     0.257625137556    12.000000000000
         C            3.706797354479     4.941224672658     0.262716697726    12.000000000000
         H           -3.658525317484     8.890841883460     0.262802988788     1.007825032230
         H           -1.189217509482     8.874135551685     0.266756399781     1.007825032230
         H            1.284290059161     8.860847899813     0.266148491736     1.007825032230
         H            3.753537907074     8.851049743297     0.261364555387     1.007825032230
         H            5.869954523482     7.613809298981     0.256860183321     1.007825032230
         H           -5.788235887228     7.676316677259     0.257191578249     1.007825032230
         C           -6.091978138422     4.993274477968     0.256306274016    12.000000000000
         C           -6.128665660043     3.582594633123     0.257507451045    12.000000000000
         C           -3.664583919771     3.564196644069     0.254582356427    12.000000000000
         C           -4.894302384424     2.861095240226     0.263751341412    12.000000000000
         C           -2.437339174623     2.847626121410     0.266414134964    12.000000000000
         C           -1.209232037322     3.547901399303     0.252735108172    12.000000000000
         C            1.247137392437     3.534695215755     0.251926501767    12.000000000000
         C            0.015171859844     2.833126303630     0.263610684991    12.000000000000
         C            2.467640992715     2.821304441580     0.263710743115    12.000000000000
         C            3.702545294854     3.524674618749     0.250222782272    12.000000000000
         C            6.144976206658     4.927586830457     0.256391692344    12.000000000000
         C            6.166584179136     3.516598940267     0.258558245781    12.000000000000
         C            4.924605778734     2.808422389679     0.265096992018    12.000000000000
         H            7.089901329916     5.466902230548     0.252629811495     1.007825032230
         H           -7.031045930827     5.542702417183     0.252073059065     1.007825032230
         C           -7.339702220848     2.858425998905     0.255880283603    12.000000000000
         C           -7.364886137784     1.470337835908     0.257645821731    12.000000000000
         C           -4.903508788672     1.444441276485     0.252929557539    12.000000000000
         C           -6.132261332336     0.739953821379     0.265219601522    12.000000000000
         C           -3.676878980242     0.726711606998     0.263557273938    12.000000000000
         C           -2.445660765791     1.429655597587     0.253247563737    12.000000000000
         C           -1.223604861027     0.715338965960     0.264676828269    12.000000000000
         C            0.007633689588     1.417397613563     0.263142481986    12.000000000000
         C            1.231215628021     0.702131154912     0.244315896330    12.000000000000
         C            2.460816920806     1.403306500451     0.263820405221    12.000000000000
         C            3.684426074471     0.687212892537     0.262991618944    12.000000000000
         C            4.918704721813     1.391749025514     0.250589797308    12.000000000000
         C            7.369797898236     2.779496667509     0.256797825989    12.000000000000
         C            7.380158486396     1.391231972180     0.258344508834    12.000000000000
         C            6.139795359397     0.674133087526     0.264672850646    12.000000000000
         H           -8.279194979072     3.407132505449     0.251582731481     1.007825032230
         H            8.315109291754     3.318132560949     0.252587250189     1.007825032230
         C           -8.591760117307     0.724847017370     0.257986249348    12.000000000000
         C           -8.599028783429    -0.632625341904     0.260109373931    12.000000000000
         C           -6.139817318844    -0.674122172829     0.253120032596    12.000000000000
         C           -7.380188291863    -1.391251725257     0.260536094137    12.000000000000
         C           -4.918688659982    -1.391740553705     0.265460530745    12.000000000000
         C           -3.684442475410    -0.687222851411     0.254428290681    12.000000000000
         C           -2.460821219973    -1.403330714500     0.264971376870    12.000000000000
         C           -1.231166192046    -0.702159400556     0.252850998079    12.000000000000
         C           -0.007573805113    -1.417404385086     0.260307522382    12.000000000000
         C            1.223643536163    -0.715260912939     0.270313144331    12.000000000000
         C            2.445666469606    -1.429628824682     0.258563131571    12.000000000000
         C            3.676862523121    -0.726692967231     0.254422547176    12.000000000000
         C            6.132244666694    -0.739964375525     0.252894572963    12.000000000000
         C            4.903514965779    -1.444443056216     0.266735647504    12.000000000000
         C            8.599010668965     0.632618330993     0.258206624978    12.000000000000
         C            8.591741308375    -0.724836402868     0.259943005239    12.000000000000
         C            7.364858584664    -1.470318201281     0.259712828547    12.000000000000
         H           -9.528310151544     1.276861913518     0.256516322384     1.007825032230
         H            9.541406794881     1.174586952770     0.257154592717     1.007825032230
         C           -7.369842089494    -2.779530681609     0.262344302559    12.000000000000
         C           -4.924603288776    -2.808422793016     0.254612670123    12.000000000000
         C           -6.166626675393    -3.516637728500     0.260914510282    12.000000000000
         C           -3.702514539430    -3.524667084795     0.264936739309    12.000000000000
         C           -2.467651164839    -2.821311498479     0.252892100952    12.000000000000
         C           -0.015137653833    -2.833127181075     0.253173689461    12.000000000000
         C           -1.247126020952    -3.534717711238     0.264737642869    12.000000000000
         C            1.209240889918    -3.547900214319     0.267276672661    12.000000000000
         C            2.437331842429    -2.847627273850     0.253136914350    12.000000000000
         C            4.894298164045    -2.861108503961     0.253957654421    12.000000000000
         C            3.664611075316    -3.564205381207     0.266837074362    12.000000000000
         C            6.128634835020    -3.582569593393     0.260182916319    12.000000000000
         C            7.339668484970    -2.858398843045     0.261698142401    12.000000000000
         H           -9.541453290984    -1.174549002339     0.261478790104     1.007825032230
         H            9.528257688346    -1.276904609579     0.261192813000     1.007825032230
         H           -8.315169223574    -3.318135388887     0.266516531090     1.007825032230
         H            8.279150962767    -3.407126325569     0.266037698384     1.007825032230
         C           -6.144998368428    -4.927632808458     0.262240508342    12.000000000000
         C           -3.706787527723    -4.941247249792     0.252419540254    12.000000000000
         C           -4.955594237727    -5.643479509169     0.260386674899    12.000000000000
         C           -2.486125505952    -5.654771110084     0.265359211299    12.000000000000
         C           -1.254062515205    -4.956107585676     0.254183605313    12.000000000000
         C            1.201008394143    -4.969265923868     0.255364729571    12.000000000000
         C           -0.030340854139    -5.669505838814     0.263207929234    12.000000000000
         C            3.653745921603    -4.980729311090     0.256122729319    12.000000000000
         C            2.425488516150    -5.681160171202     0.265499659871    12.000000000000
         C            6.091961438086    -4.993243499062     0.262477142992    12.000000000000
         C            4.894972264885    -5.696333956633     0.261240947162    12.000000000000
         H           -7.089896567766    -5.466985377914     0.266643270023     1.007825032230
         H            7.031051029475    -5.542644072008     0.266056922756     1.007825032230
         C           -4.923549501924    -7.078806635352     0.259831905994    12.000000000000
         C           -2.485346267963    -7.087713613604     0.257322013558    12.000000000000
         C           -3.751690071504    -7.763932693311     0.257516692483    12.000000000000
         C           -0.037953136713    -7.099450410144     0.257537738706    12.000000000000
         C           -1.277960280127    -7.772889920342     0.255553045944    12.000000000000
         C            2.409440141001    -7.114007547678     0.258400939517    12.000000000000
         C            1.194745757428    -7.786170901237     0.256248648635    12.000000000000
         C            4.847616872773    -7.131247646254     0.260907754176    12.000000000000
         C            3.668467426150    -7.803773528619     0.258559319812    12.000000000000
         H           -5.869944530142    -7.613816133717     0.261375942860     1.007825032230
         H            5.788245445663    -7.676317724989     0.262034873658     1.007825032230
         H           -3.753531119175    -8.851057104911     0.255680778054     1.007825032230
         H           -1.284308585620    -8.860860928172     0.251125662086     1.007825032230
         H            1.189217394970    -8.874146156264     0.252156011945     1.007825032230
         H            3.658542435098    -8.890846169728     0.256904778390     1.007825032230

  Charge       = 0
  Multiplicity = 1
  Basis Set: JUN-CC-PVDZ
    Blend: JUN-CC-PVDZ
  Basis Set: (JUN-CC-PVDZ AUX)
    Blend: JUN-CC-PVDZ-JKFIT

    Orbital Energies [Eh]
    ---------------------

    Doubly Occupied:

       1A    -11.263982     2A    -11.263699     3A    -11.263584
       4A    -11.263295     5A    -11.263284     6A    -11.263182
       7A    -11.263125     8A    -11.263069     9A    -11.262995
      10A    -11.262842    11A    -11.262717    12A    -11.262688
      13A    -11.262230    14A    -11.262212    15A    -11.262204
      16A    -11.262111    17A    -11.262057    18A    -11.262036
      19A    -11.262004    20A    -11.261957    21A    -11.261944
      22A    -11.261846    23A    -11.261807    24A    -11.261685
      25A    -11.261677    26A    -11.261654    27A    -11.261644
      28A    -11.261604    29A    -11.261598    30A    -11.261512
      31A    -11.261495    32A    -11.261485    33A    -11.261468
      34A    -11.261462    35A    -11.261438    36A    -11.261421
      37A    -11.261268    38A    -11.261258    39A    -11.261251
      40A    -11.261243    41A    -11.261227    42A    -11.261224
      43A    -11.261215    44A    -11.261203    45A    -11.261191
      46A    -11.261174    47A    -11.261164    48A    -11.261153
      49A    -11.261026    50A    -11.261018    51A    -11.260949
      52A    -11.260916    53A    -11.260860    54A    -11.260817
      55A    -11.259838    56A    -11.259820    57A    -11.259815
      58A    -11.259791    59A    -11.259783    60A    -11.259765
      61A    -11.259207    62A    -11.259181    63A    -11.259169
      64A    -11.259128    65A    -11.259110    66A    -11.259086
      67A    -11.258838    68A    -11.258818    69A    -11.258813
      70A    -11.258791    71A    -11.258781    72A    -11.258766
      73A    -11.254479    74A    -11.254472    75A    -11.254470
      76A    -11.254458    77A    -11.254444    78A    -11.254442
      79A    -11.253596    80A    -11.253579    81A    -11.253574
      82A    -11.253565    83A    -11.253562    84A    -11.253554
      85A    -11.253512    86A    -11.253494    87A    -11.253482
      88A    -11.253477    89A    -11.253470    90A    -11.253467
      91A    -11.253007    92A    -11.252999    93A    -11.252998
      94A    -11.252985    95A    -11.252972    96A    -11.252970
      97A     -1.253770    98A     -1.238876    99A     -1.238825
     100A     -1.220347   101A     -1.220321   102A     -1.215277
     103A     -1.200927   104A     -1.195490   105A     -1.188004
     106A     -1.187972   107A     -1.173657   108A     -1.173655
     109A     -1.155485   110A     -1.155479   111A     -1.152551
     112A     -1.144621   113A     -1.144619   114A     -1.128432
     115A     -1.114571   116A     -1.113062   117A     -1.112342
     118A     -1.112302   119A     -1.111521   120A     -1.088298
     121A     -1.088276   122A     -1.076863   123A     -1.076861
     124A     -1.067488   125A     -1.067440   126A     -1.064813
     127A     -1.046678   128A     -1.046663   129A     -1.040350
     130A     -1.038642   131A     -1.038631   132A     -1.025095
     133A     -1.021214   134A     -1.021141   135A     -1.007065
     136A     -1.006671   137A     -1.003679   138A     -1.000354
     139A     -1.000287   140A     -0.990984   141A     -0.970853
     142A     -0.970796   143A     -0.955778   144A     -0.955715
     145A     -0.905460   146A     -0.905415   147A     -0.905411
     148A     -0.905390   149A     -0.904144   150A     -0.892186
     151A     -0.892134   152A     -0.890206   153A     -0.890157
     154A     -0.889310   155A     -0.872113   156A     -0.868977
     157A     -0.851422   158A     -0.847704   159A     -0.847696
     160A     -0.845447   161A     -0.842869   162A     -0.834430
     163A     -0.834422   164A     -0.828023   165A     -0.828009
     166A     -0.784426   167A     -0.784419   168A     -0.783516
     169A     -0.783508   170A     -0.782144   171A     -0.782127
     172A     -0.781878   173A     -0.766861   174A     -0.760628
     175A     -0.750429   176A     -0.733382   177A     -0.726959
     178A     -0.726901   179A     -0.724943   180A     -0.724423
     181A     -0.724379   182A     -0.718333   183A     -0.713615
     184A     -0.713607   185A     -0.699460   186A     -0.699429
     187A     -0.685961   188A     -0.685846   189A     -0.685826
     190A     -0.682049   191A     -0.682040   192A     -0.678645
     193A     -0.653504   194A     -0.650744   195A     -0.650706
     196A     -0.649651   197A     -0.649639   198A     -0.649450
     199A     -0.640782   200A     -0.640721   201A     -0.639968
     202A     -0.639050   203A     -0.635882   204A     -0.635848
     205A     -0.629006   206A     -0.617695   207A     -0.615198
     208A     -0.615167   209A     -0.608676   210A     -0.608669
     211A     -0.599147   212A     -0.599053   213A     -0.598610
     214A     -0.598450   215A     -0.598422   216A     -0.597880
     217A     -0.594954   218A     -0.594939   219A     -0.594595
     220A     -0.594057   221A     -0.591815   222A     -0.591810
     223A     -0.587222   224A     -0.577711   225A     -0.577684
     226A     -0.575664   227A     -0.575625   228A     -0.573256
     229A     -0.569528   230A     -0.567986   231A     -0.567958
     232A     -0.566615   233A     -0.566609   234A     -0.560818
     235A     -0.558589   236A     -0.558527   237A     -0.558329
     238A     -0.554234   239A     -0.550528   240A     -0.547382
     241A     -0.544204   242A     -0.534959   243A     -0.534917
     244A     -0.533412   245A     -0.533397   246A     -0.527964
     247A     -0.527939   248A     -0.527619   249A     -0.517005
     250A     -0.516988   251A     -0.515285   252A     -0.515277
     253A     -0.509524   254A     -0.509513   255A     -0.497898
     256A     -0.496330   257A     -0.496270   258A     -0.493733
     259A     -0.493698   260A     -0.489384   261A     -0.481332
     262A     -0.477339   263A     -0.477337   264A     -0.473866
     265A     -0.469283   266A     -0.466381   267A     -0.466372
     268A     -0.458740   269A     -0.446493   270A     -0.446448
     271A     -0.440955   272A     -0.440690   273A     -0.440636
     274A     -0.434608   275A     -0.433833   276A     -0.407293
     277A     -0.407269   278A     -0.386303   279A     -0.386253
     280A     -0.385657   281A     -0.385645   282A     -0.383665
     283A     -0.354231   284A     -0.354203   285A     -0.350565
     286A     -0.337989   287A     -0.335431   288A     -0.335414
     289A     -0.332638   290A     -0.332617   291A     -0.306943
     292A     -0.301838   293A     -0.301759   294A     -0.300774
     295A     -0.286066   296A     -0.256412   297A     -0.253349
     298A     -0.253306   299A     -0.204151   300A     -0.204068

  @DF-RHF Final Energy: -3650.34251115558709

   => Energetics <=

    Nuclear Repulsion Energy =          15611.4211649754306563
    One-Electron Energy =              -36072.2153090241699829
    Two-Electron Energy =               16810.4516328931531461
    Total Energy =                      -3650.3425111555879994
 Dipole X            :         -0.0001792            0.0002112            0.0000320
 Dipole Y            :          0.0029248           -0.0013774            0.0015474
 Dipole Z            :       -293.9123758          293.9139617            0.0015859
 Magnitude           :                                                    0.0022160

    SAPT Results
  --------------------------------------------------------------------------------------------------------
    Electrostatics                -56.49258227 [mEh]     -35.44963058 [kcal/mol]    -148.32125433 [kJ/mol]
      Elst10,r                    -56.49258227 [mEh]     -35.44963058 [kcal/mol]    -148.32125433 [kJ/mol]

    Exchange                      168.67870468 [mEh]     105.84748521 [kcal/mol]     442.86587811 [kJ/mol]
      Exch10                      168.67870468 [mEh]     105.84748521 [kcal/mol]     442.86587811 [kJ/mol]
      Exch10(S^2)                 162.25096737 [mEh]     101.81401915 [kcal/mol]     425.98985614 [kJ/mol]

    Induction                     -49.83369832 [mEh]     -31.27111781 [kcal/mol]    -130.83835692 [kJ/mol]
      Ind20,r                     -86.51802603 [mEh]     -54.29088098 [kcal/mol]    -227.15304604 [kJ/mol]
      Exch-Ind20,r                 51.06023007 [mEh]      32.04077810 [kcal/mol]     134.05861558 [kJ/mol]
      delta HF,r (2)              -14.37590236 [mEh]      -9.02101493 [kcal/mol]     -37.74392646 [kJ/mol]

    Dispersion                    -71.62667835 [mEh]     -44.94641924 [kcal/mol]    -188.05581809 [kJ/mol]
      Disp20                      -82.82507354 [mEh]     -51.97351831 [kcal/mol]    -217.45720062 [kJ/mol]
      Exch-Disp20                  11.19839519 [mEh]       7.02709908 [kcal/mol]      29.40138253 [kJ/mol]
      Disp20 (SS)                 -41.41253677 [mEh]     -25.98675916 [kcal/mol]    -108.72860031 [kJ/mol]
      Disp20 (OS)                 -41.41253677 [mEh]     -25.98675916 [kcal/mol]    -108.72860031 [kJ/mol]
      Exch-Disp20 (SS)              6.60883866 [mEh]       4.14710887 [kcal/mol]      17.35150352 [kJ/mol]
      Exch-Disp20 (OS)              4.58955653 [mEh]       2.87999020 [kcal/mol]      12.04987901 [kJ/mol]

  Total HF                         62.35242408 [mEh]      39.12673682 [kcal/mol]     163.70626687 [kJ/mol]
  Total SAPT0                      -9.27425427 [mEh]      -5.81968241 [kcal/mol]     -24.34955122 [kJ/mol]

  Special recipe for scaled SAPT0 (see Manual):
    Electrostatics sSAPT0         -56.49258227 [mEh]     -35.44963058 [kcal/mol]    -148.32125433 [kJ/mol]
    Exchange sSAPT0               168.67870468 [mEh]     105.84748521 [kcal/mol]     442.86587811 [kJ/mol]
    Induction sSAPT0              -43.52170843 [mEh]     -27.31028436 [kcal/mol]    -114.26622974 [kJ/mol]
    Dispersion sSAPT0             -70.24234935 [mEh]     -44.07773967 [kcal/mol]    -184.42126280 [kJ/mol]
  Total sSAPT0                     -1.57793537 [mEh]      -0.99016940 [kcal/mol]      -4.14286875 [kJ/mol]
  --------------------------------------------------------------------------------------------------------

*** Psi4 exiting successfully. Buy a developer a beer!
