                               Psi4 1.9 release

  ==> Input File <==

--------------------------------------------------------------------------
memory 32 GB # how much memory is available ! Depends on the nodes/cores !

molecule dimer {
# monomer A
+1 1    # Charge and multiplicity
C  0.680067 -0.008042 -6.415929
C -0.680504 -0.006014 -6.415545
N -1.085635 -0.005016 -5.097221
C  0.000108 -0.001740 -4.315820
C -2.477365  0.044390 -4.629242
N  1.085222 -0.005016 -5.097221
H  1.385146 -0.015870 -7.233368
H -1.385302 -0.006204 -7.233214
H -0.000009  0.000007 -3.234731
C  2.478117 -0.021908 -4.632123
H  2.490592  0.005437 -3.541870
H  2.967028 -0.935354 -4.979299
H  3.001428  0.853575 -5.023595
H -2.857359  1.066461 -4.709201
H -3.082679 -0.625694 -5.242306
H -2.518128 -0.282594 -3.589294
--
# monomer B
0 1     # Charge and multiplicity
C   1.22531237526482      0.70753866091955      0.00613762728373
C   1.22532433589282     -0.70753852257020     -0.00619318228664
C   -0.00000567409046      1.41496628609039     -0.00672680580738
C   2.45644923379077      1.41832825917820      0.00902448468363
C   0.00001130712078     -1.41497612663474      0.00347275151708
C   -1.22530046906674      0.70754574598412      0.00838914760619
C   2.45643823516184     -1.41832293188077     -0.00843833914343
C   -0.00000085313587      2.83680140328112     -0.00913035594137
C   3.68182717731192      0.70931832800114     -0.00808954934571
C   2.45512052870677      2.83422403348893     -0.00819210630633
C   3.68182158506039     -0.70933346742900      0.00798293467272
C   -1.22531311884624     -0.70752714354401     -0.00512042085974
C   1.22670006104402      3.54346985599427      0.00816696660346
C   0.00000526469929     -2.83678176723568      0.00832091913869
C   -2.45643555300670      1.41831729028492      0.00842454345199
C   2.45512389762097     -2.83422965658853      0.00783102630520
C   -1.22671388474763      3.54346943575023      0.00827029982280
C   4.91451777504333      1.42717324448953     -0.00160886631602
C   3.69315067131765      3.54279566454522     -0.00155906667985
C   -2.45643712022637     -1.41831290883911     -0.00846337726810
C   1.22670532178455     -3.54347386990643     -0.00780316414624
C   -2.45512491866593      2.83421703463423     -0.00818572995999
C   4.91452486062398     -1.42718653794377      0.00136387641845
C   1.22142509354026      4.97013443726031      0.00150231067809
C   4.89300870916237      2.82518837202648     -0.00039219795739
C   -1.22669652864725     -3.54347062507680     -0.00753595973677
C   -3.68181849668397      0.70932533873199     -0.00807686886569
C   3.69314758099218     -3.54280096939050      0.00148176697923
C   -1.22143177215231      4.97012866986289      0.00168580605083
C   6.13477145276790      0.68054831910577     -0.00083909176631
C   3.65678936045204      4.97295361556775     -0.00065042889723
C   -2.45512642789169     -2.83421472106065      0.00758666850712
C   -3.68181869921921     -0.70932533146830      0.00810055625144
C   4.89301309775526     -2.82519973363176      0.00021895393805
C   -0.00000059327114      5.65044773803267      0.00045449734393
C   6.13477559217374     -0.68055448207492      0.00042622874941
C   2.47813196269732      5.65357712333155      0.00063835075260
C   1.22142288457925     -4.97012668293268     -0.00129718634452
C   -3.69316190412301      3.54279732619245     -0.00139355922051
C   -1.22142804110313     -4.97011793159564     -0.00140994817719
C   -4.91452132810043      1.42717581899491     -0.00153192130862
C   3.65678749952045     -4.97295485423912      0.00080007163680
C   -2.47813805026426      5.65357479452875      0.00092287576113
C   -3.69314125872231     -3.54278984697859      0.00136564082345
C   -4.91451200321153     -1.42718062802730      0.00139857359209
C   -0.00000552908399     -5.65043791501335      0.00005899322272
C   -4.89302000425900      2.82518897091939     -0.00040227981744
C   2.47812647313991     -5.65357317188818     -0.00029052915548
C   -3.65679823041642      4.97295655404175     -0.00047374852278
C   -4.89299899901461     -2.82519139505969      0.00006491824035
C   -2.47812801824129     -5.65356579800621     -0.00056571680280
C   -6.13477002348955      0.68054913825639     -0.00086464346868
C   -3.65678835334731     -4.97294365097028      0.00058578382008
C   -6.13476456307132     -0.68055354348201      0.00040575295444
H   5.83528897565761      3.36927626695423      0.00396712770529
H   7.07385965258860      1.22821762089947     -0.00037744837300
H   4.60066374401555      5.51238117445323     -0.00014522814529
H   5.83528386714679     -3.36930568472863     -0.00423551337640
H   -0.00001167146422      6.73853104613662     -0.00389474766392
H   7.07386165167227     -1.22822657074368     -0.00008250934481
H   2.47331421164041      6.74068466339473      0.00017162982210
H   4.60066897122302     -5.51237575717576      0.00039007446835
H   -2.47331820069565      6.74068209160650      0.00047297644710
H   -0.00000978838621     -6.73852780445195      0.00458867820736
H   -5.83530143450167      3.36927132229595      0.00410314985360
H   2.47330840367253     -6.74068500242887      0.00027980126949
H   -4.60067436136587      5.51237839860371      0.00002010017831
H   -5.83527902699321     -3.36928859177951     -0.00451481925734
H   -2.47329986759855     -6.74067870613986     -0.00016951527498
H   -7.07385728692578      1.22822084484047     -0.00046143985387
H   -4.60067330624313     -5.51236229778631      0.00021776644566
H   -7.07385645456741     -1.22822025997701     -0.00017736581114

    units angstrom      # Angstroms are the default
    no_reorient         # Geometry fixed, default
    symmetry c1         # C1 symmetry, default
}

set {
    scf_type DF         # Density fitting, faster than exact integrals
    freeze_core True    # Freeze core electrons
    basis jun-cc-pVDZ   # Jun-cc-pVDZ basis set, recommended for sSAPT0 in https://doi.org/10.1063/1.4867135
}

energy('ssapt0')        # Compute sSAPT0 energy, includes also SAPT0
--------------------------------------------------------------------------

  //              Dimer HF             //
    Molecular point group: c1
  Charge       = 1
  Multiplicity = 1
  Basis Set: JUN-CC-PVDZ
    Blend: JUN-CC-PVDZ
  Basis Set: (JUN-CC-PVDZ AUX)
    Blend: JUN-CC-PVDZ-JKFIT
  @DF-RHF Final Energy: -2359.20998787603594
    Total Energy =                      -2359.2099878760363936
 Dipole X            :         -0.0016741            0.0006313           -0.0010428
 Dipole Y            :         -0.0499953            0.0560211            0.0060258
 Dipole Z            :         18.4230269          -25.2191304           -6.7961034
 Magnitude           :                                                    6.7961062
  //            Monomer A HF           //
    Molecular point group: c1
  Multiplicity = 1
  Basis Set: JUN-CC-PVDZ
    Blend: JUN-CC-PVDZ
  Basis Set: (JUN-CC-PVDZ AUX)
    Blend: JUN-CC-PVDZ-JKFIT
  @DF-RHF Final Energy:  -303.29769815219265
    Total Energy =                       -303.2976981521926518
  //            Monomer B HF           //
    Molecular point group: c1

    Geometry (in Angstrom), charge = 0, multiplicity = 1:

       Center              X                  Y                   Z               Mass
    ------------   -----------------  -----------------  -----------------  -----------------
      Gh(C)           0.680066520158    -0.008042372515    -5.754523175886    12.000000000000
      Gh(C)          -0.680504479842    -0.006014372515    -5.754139175886    12.000000000000
      Gh(N)          -1.085635479842    -0.005016372515    -4.435815175886    14.003074004430
      Gh(C)           0.000107520158    -0.001740372515    -3.654414175886    12.000000000000
      Gh(C)          -2.477365479842     0.044389627485    -3.967836175886    12.000000000000
      Gh(N)           1.085221520158    -0.005016372515    -4.435815175886    14.003074004430
      Gh(H)           1.385145520158    -0.015870372515    -6.571962175886     1.007825032230
      Gh(H)          -1.385302479842    -0.006204372515    -6.571808175886     1.007825032230
      Gh(H)          -0.000009479842     0.000006627485    -2.573325175886     1.007825032230
      Gh(C)           2.478116520158    -0.021908372515    -3.970717175886    12.000000000000
      Gh(H)           2.490591520158     0.005436627485    -2.880464175886     1.007825032230
      Gh(H)           2.967027520158    -0.935354372515    -4.317893175886     1.007825032230
      Gh(H)           3.001427520158     0.853574627485    -4.362189175886     1.007825032230
      Gh(H)          -2.857359479842     1.066460627485    -4.047795175886     1.007825032230
      Gh(H)          -3.082679479842    -0.625694372515    -4.580900175886     1.007825032230
      Gh(H)          -2.518128479842    -0.282594372515    -2.927888175886     1.007825032230
         C            1.225311895423     0.707538288405     0.667543451398    12.000000000000
         C            1.225323856051    -0.707538895085     0.655212641827    12.000000000000
         C           -0.000006153932     1.414965913575     0.654679018307    12.000000000000
         C            2.456448753949     1.418327886663     0.670430308798    12.000000000000
         C            0.000010827279    -1.414976499150     0.664878575631    12.000000000000
         C           -1.225300948908     0.707545373469     0.669794971720    12.000000000000
         C            2.456437755320    -1.418323304396     0.652967484971    12.000000000000
         C           -0.000001332978     2.836801030766     0.652275468173    12.000000000000
         C            3.681826697470     0.709317955486     0.653316274768    12.000000000000
         C            2.455120048865     2.834223660974     0.653213717808    12.000000000000
         C            3.681821105219    -0.709333839944     0.669388758787    12.000000000000
         C           -1.225313598688    -0.707527516059     0.656285403254    12.000000000000
         C            1.226699581202     3.543469483479     0.669572790718    12.000000000000
         C            0.000004784858    -2.836782139751     0.669726743253    12.000000000000
         C           -2.456436032848     1.418316917770     0.669830367566    12.000000000000
         C            2.455123417779    -2.834230029103     0.669236850419    12.000000000000
         C           -1.226714364589     3.543469063235     0.669676123937    12.000000000000
         C            4.914517295202     1.427172871975     0.659796957798    12.000000000000
         C            3.693150191476     3.542795292030     0.659846757434    12.000000000000
         C           -2.456437600068    -1.418313281354     0.652942446846    12.000000000000
         C            1.226704841943    -3.543474242421     0.653602659968    12.000000000000
         C           -2.455125398508     2.834216662119     0.653220094154    12.000000000000
         C            4.914524380782    -1.427186910459     0.662769700533    12.000000000000
         C            1.221424613699     4.970134064745     0.662908134792    12.000000000000
         C            4.893008229321     2.825187999512     0.661013626157    12.000000000000
         C           -1.226697008489    -3.543470997592     0.653869864377    12.000000000000
         C           -3.681818976526     0.709324966217     0.653328955248    12.000000000000
         C            3.693147101150    -3.542801341905     0.662887591093    12.000000000000
         C           -1.221432251994     4.970128297348     0.663091630165    12.000000000000
         C            6.134770972926     0.680547946591     0.660566732348    12.000000000000
         C            3.656788880610     4.972953243053     0.660755395217    12.000000000000
         C           -2.455126907733    -2.834215093576     0.668992492621    12.000000000000
         C           -3.681819179061    -0.709325703983     0.669506380365    12.000000000000
         C            4.893012617914    -2.825200106147     0.661624778052    12.000000000000
         C           -0.000001073113     5.650447365518     0.661860321458    12.000000000000
         C            6.134775112332    -0.680554854590     0.661832052863    12.000000000000
         C            2.478131482856     5.653576750817     0.662044174867    12.000000000000
         C            1.221422404738    -4.970127055448     0.660108637770    12.000000000000
         C           -3.693162383965     3.542796953677     0.660012264894    12.000000000000
         C           -1.221428520945    -4.970118304111     0.659995875937    12.000000000000
         C           -4.914521807942     1.427175446480     0.659873902805    12.000000000000
         C            3.656787019679    -4.972955226754     0.662205895751    12.000000000000
         C           -2.478138530106     5.653574422014     0.662328699875    12.000000000000
         C           -3.693141738564    -3.542790219494     0.662771464938    12.000000000000
         C           -4.914512483053    -1.427181000542     0.662804397706    12.000000000000
         C           -0.000006008926    -5.650438287528     0.661464817337    12.000000000000
         C           -4.893020484101     2.825188598404     0.661003544297    12.000000000000
         C            2.478125993298    -5.653573544403     0.661115294959    12.000000000000
         C           -3.656798710258     4.972956181527     0.660932075591    12.000000000000
         C           -4.892999478856    -2.825191767575     0.661470742354    12.000000000000
         C           -2.478128498083    -5.653566170521     0.660840107311    12.000000000000
         C           -6.134770503331     0.680548765741     0.660541180645    12.000000000000
         C           -3.656788833189    -4.972944023485     0.661991607934    12.000000000000
         C           -6.134765042913    -0.680553915997     0.661811577068    12.000000000000
         H            5.835288495816     3.369275894439     0.665372951819     1.007825032230
         H            7.073859172747     1.228217248385     0.661028375741     1.007825032230
         H            4.600663264174     5.512380801938     0.661260595969     1.007825032230
         H            5.835283387305    -3.369306057244     0.657170310738     1.007825032230
         H           -0.000012151306     6.738530673622     0.657511076450     1.007825032230
         H            7.073861171831    -1.228226943259     0.661323314769     1.007825032230
         H            2.473313731799     6.740684290880     0.661577453936     1.007825032230
         H            4.600668491381    -5.512376129691     0.661795898582     1.007825032230
         H           -2.473318680537     6.740681719092     0.661878800561     1.007825032230
         H           -0.000010268228    -6.738528176967     0.665994502321     1.007825032230
         H           -5.835301914343     3.369270949781     0.665508973968     1.007825032230
         H            2.473307923831    -6.740685374944     0.661685625384     1.007825032230
         H           -4.600674841208     5.512378026089     0.661425924292     1.007825032230
         H           -5.835279506835    -3.369288964294     0.656891004857     1.007825032230
         H           -2.473300347440    -6.740679078655     0.661236308839     1.007825032230
         H           -7.073857766768     1.228220472326     0.660944384260     1.007825032230
         H           -4.600673786085    -5.512362670301     0.661623590560     1.007825032230
         H           -7.073856934409    -1.228220632492     0.661228458303     1.007825032230

  Charge       = 0
  Multiplicity = 1
  Basis Set: JUN-CC-PVDZ
    Blend: JUN-CC-PVDZ
  Basis Set: (JUN-CC-PVDZ AUX)
    Blend: JUN-CC-PVDZ-JKFIT

    Orbital Energies [Eh]
    ---------------------

    Doubly Occupied:

       1A    -11.260600     2A    -11.260171     3A    -11.260130
       4A    -11.259434     5A    -11.259398     6A    -11.259235
       7A    -11.259011     8A    -11.258951     9A    -11.258919
      10A    -11.258608    11A    -11.258603    12A    -11.258511
      13A    -11.258452    14A    -11.258445    15A    -11.258444
      16A    -11.258412    17A    -11.258403    18A    -11.258386
      19A    -11.258380    20A    -11.258372    21A    -11.258370
      22A    -11.258302    23A    -11.258286    24A    -11.258029
      25A    -11.257321    26A    -11.257279    27A    -11.257234
      28A    -11.257139    29A    -11.257099    30A    -11.257033
      31A    -11.256423    32A    -11.256376    33A    -11.256317
      34A    -11.256252    35A    -11.256208    36A    -11.256179
      37A    -11.252262    38A    -11.252261    39A    -11.252259
      40A    -11.252258    41A    -11.252246    42A    -11.252245
      43A    -11.251369    44A    -11.251368    45A    -11.251364
      46A    -11.251360    47A    -11.251357    48A    -11.251354
      49A    -11.250823    50A    -11.250823    51A    -11.250820
      52A    -11.250819    53A    -11.250807    54A    -11.250807
      55A     -1.244011    56A     -1.219774    57A     -1.219754
      58A     -1.189500    59A     -1.189485    60A     -1.180896
      61A     -1.157518    62A     -1.148935    63A     -1.135451
      64A     -1.135429    65A     -1.113151    66A     -1.113147
      67A     -1.082384    68A     -1.082373    69A     -1.078554
      70A     -1.065943    71A     -1.065934    72A     -1.039352
      73A     -1.024220    74A     -1.021719    75A     -1.021658
      76A     -1.017685    77A     -1.012759    78A     -0.986975
      79A     -0.986918    80A     -0.961838    81A     -0.961785
      82A     -0.894243    83A     -0.894220    84A     -0.887873
      85A     -0.886122    86A     -0.886077    87A     -0.881338
      88A     -0.881292    89A     -0.861854    90A     -0.837373
      91A     -0.818157    92A     -0.816558    93A     -0.812076
      94A     -0.812075    95A     -0.794648    96A     -0.794633
      97A     -0.746564    98A     -0.744804    99A     -0.733359
     100A     -0.733353   101A     -0.732136   102A     -0.732112
     103A     -0.716444   104A     -0.698934   105A     -0.698905
     106A     -0.693545   107A     -0.693503   108A     -0.661187
     109A     -0.653058   110A     -0.651099   111A     -0.650212
     112A     -0.650203   113A     -0.639320   114A     -0.639297
     115A     -0.629660   116A     -0.627465   117A     -0.627454
     118A     -0.606475   119A     -0.605777   120A     -0.601600
     121A     -0.599700   122A     -0.599637   123A     -0.593577
     124A     -0.591165   125A     -0.591132   126A     -0.585242
     127A     -0.576472   128A     -0.576328   129A     -0.567285
     130A     -0.567264   131A     -0.565901   132A     -0.565888
     133A     -0.558667   134A     -0.554802   135A     -0.554796
     136A     -0.538547   137A     -0.538547   138A     -0.538229
     139A     -0.538172   140A     -0.529665   141A     -0.528180
     142A     -0.522833   143A     -0.522802   144A     -0.500458
     145A     -0.495608   146A     -0.493188   147A     -0.487817
     148A     -0.485012   149A     -0.481698   150A     -0.481696
     151A     -0.470347   152A     -0.470282   153A     -0.450951
     154A     -0.450883   155A     -0.439048   156A     -0.439043
     157A     -0.404755   158A     -0.404689   159A     -0.403376
     160A     -0.375405   161A     -0.375395   162A     -0.349115
     163A     -0.337560   164A     -0.336503   165A     -0.336492
     166A     -0.311068   167A     -0.298089   168A     -0.284312
     169A     -0.284266   170A     -0.224883   171A     -0.224826

  @DF-RHF Final Energy: -2055.89405902264070

   => Energetics <=

    Nuclear Repulsion Energy =           6452.5568002797781446
    One-Electron Energy =              -15636.4955496853363002
    Two-Electron Energy =                7128.0446903829188159
    Total Energy =                      -2055.8940590226402492
 Dipole X            :          0.0000954           -0.0000085            0.0000869
 Dipole Y            :         -0.0001411            0.0000167           -0.0001244
 Dipole Z            :       -427.4496642          427.4561030            0.0064388
 Magnitude           :                                                    0.0064406

    SAPT Results
  --------------------------------------------------------------------------------------------------------
    Electrostatics                -11.35385713 [mEh]      -7.12465291 [kcal/mol]     -29.80954778 [kJ/mol]
      Elst10,r                    -11.35385713 [mEh]      -7.12465291 [kcal/mol]     -29.80954778 [kJ/mol]

    Exchange                        0.65756597 [mEh]       0.41262887 [kcal/mol]       1.72643921 [kJ/mol]
      Exch10                        0.65756597 [mEh]       0.41262887 [kcal/mol]       1.72643921 [kJ/mol]
      Exch10(S^2)                   0.65739935 [mEh]       0.41252432 [kcal/mol]       1.72600175 [kJ/mol]

    Induction                      -7.53441005 [mEh]      -4.72791368 [kcal/mol]     -19.78159085 [kJ/mol]
      Ind20,r                      -7.14363998 [mEh]      -4.48270177 [kcal/mol]     -18.75562419 [kJ/mol]
      Exch-Ind20,r                  0.11642630 [mEh]       0.07305861 [kcal/mol]       0.30567721 [kJ/mol]
      delta HF,r (2)               -0.50719636 [mEh]      -0.31827052 [kcal/mol]      -1.33164387 [kJ/mol]

    Dispersion                     -7.56015753 [mEh]      -4.74407047 [kcal/mol]     -19.84919086 [kJ/mol]
      Disp20                       -7.64077820 [mEh]      -4.79466071 [kcal/mol]     -20.06086041 [kJ/mol]
      Exch-Disp20                   0.08062067 [mEh]       0.05059024 [kcal/mol]       0.21166955 [kJ/mol]
      Disp20 (SS)                  -3.82038910 [mEh]      -2.39733035 [kcal/mol]     -10.03043020 [kJ/mol]
      Disp20 (OS)                  -3.82038910 [mEh]      -2.39733035 [kcal/mol]     -10.03043020 [kJ/mol]
      Exch-Disp20 (SS)              0.05190470 [mEh]       0.03257069 [kcal/mol]       0.13627576 [kJ/mol]
      Exch-Disp20 (OS)              0.02871598 [mEh]       0.01801955 [kcal/mol]       0.07539379 [kJ/mol]

  Total HF                        -18.23070120 [mEh]     -11.43993772 [kcal/mol]     -47.86469941 [kJ/mol]
  Total SAPT0                     -25.79085873 [mEh]     -16.18400819 [kcal/mol]     -67.71389027 [kJ/mol]

  Special recipe for scaled SAPT0 (see Manual):
    Electrostatics sSAPT0         -11.35385713 [mEh]      -7.12465291 [kcal/mol]     -29.80954778 [kJ/mol]
    Exchange sSAPT0                 0.65756597 [mEh]       0.41262887 [kcal/mol]       1.72643921 [kJ/mol]
    Induction sSAPT0               -7.53432150 [mEh]      -4.72785812 [kcal/mol]     -19.78135837 [kJ/mol]
    Dispersion sSAPT0              -7.56009621 [mEh]      -4.74403200 [kcal/mol]     -19.84902988 [kJ/mol]
  Total sSAPT0                    -25.79070887 [mEh]     -16.18391415 [kcal/mol]     -67.71349681 [kJ/mol]
  --------------------------------------------------------------------------------------------------------

*** Psi4 exiting successfully. Buy a developer a beer!
