                               Psi4 1.9 release

  ==> Input File <==

--------------------------------------------------------------------------
memory 32 GB # how much memory is available ! Depends on the nodes/cores !

molecule dimer {
# monomer A
-1 1    # Charge and multiplicity
B -1.977592e-04  2.742729e-04 -2.399966
F  1.123153e-16  1.430594e-17 -0.987181
F  1.147860e+00  6.757812e-01 -2.871107
F  1.191806e-02 -1.332011e+00 -2.870905
F -1.159666e+00  6.560735e-01 -2.870826
--
# monomer B
0 1     # Charge and multiplicity
C   1.22531237526482      0.70753866091955      0.00613762728373
C   1.22532433589282     -0.70753852257020     -0.00619318228664
C   -0.00000567409046      1.41496628609039     -0.00672680580738
C   2.45644923379077      1.41832825917820      0.00902448468363
C   0.00001130712078     -1.41497612663474      0.00347275151708
C   -1.22530046906674      0.70754574598412      0.00838914760619
C   2.45643823516184     -1.41832293188077     -0.00843833914343
C   -0.00000085313587      2.83680140328112     -0.00913035594137
C   3.68182717731192      0.70931832800114     -0.00808954934571
C   2.45512052870677      2.83422403348893     -0.00819210630633
C   3.68182158506039     -0.70933346742900      0.00798293467272
C   -1.22531311884624     -0.70752714354401     -0.00512042085974
C   1.22670006104402      3.54346985599427      0.00816696660346
C   0.00000526469929     -2.83678176723568      0.00832091913869
C   -2.45643555300670      1.41831729028492      0.00842454345199
C   2.45512389762097     -2.83422965658853      0.00783102630520
C   -1.22671388474763      3.54346943575023      0.00827029982280
C   4.91451777504333      1.42717324448953     -0.00160886631602
C   3.69315067131765      3.54279566454522     -0.00155906667985
C   -2.45643712022637     -1.41831290883911     -0.00846337726810
C   1.22670532178455     -3.54347386990643     -0.00780316414624
C   -2.45512491866593      2.83421703463423     -0.00818572995999
C   4.91452486062398     -1.42718653794377      0.00136387641845
C   1.22142509354026      4.97013443726031      0.00150231067809
C   4.89300870916237      2.82518837202648     -0.00039219795739
C   -1.22669652864725     -3.54347062507680     -0.00753595973677
C   -3.68181849668397      0.70932533873199     -0.00807686886569
C   3.69314758099218     -3.54280096939050      0.00148176697923
C   -1.22143177215231      4.97012866986289      0.00168580605083
C   6.13477145276790      0.68054831910577     -0.00083909176631
C   3.65678936045204      4.97295361556775     -0.00065042889723
C   -2.45512642789169     -2.83421472106065      0.00758666850712
C   -3.68181869921921     -0.70932533146830      0.00810055625144
C   4.89301309775526     -2.82519973363176      0.00021895393805
C   -0.00000059327114      5.65044773803267      0.00045449734393
C   6.13477559217374     -0.68055448207492      0.00042622874941
C   2.47813196269732      5.65357712333155      0.00063835075260
C   1.22142288457925     -4.97012668293268     -0.00129718634452
C   -3.69316190412301      3.54279732619245     -0.00139355922051
C   -1.22142804110313     -4.97011793159564     -0.00140994817719
C   -4.91452132810043      1.42717581899491     -0.00153192130862
C   3.65678749952045     -4.97295485423912      0.00080007163680
C   -2.47813805026426      5.65357479452875      0.00092287576113
C   -3.69314125872231     -3.54278984697859      0.00136564082345
C   -4.91451200321153     -1.42718062802730      0.00139857359209
C   -0.00000552908399     -5.65043791501335      0.00005899322272
C   -4.89302000425900      2.82518897091939     -0.00040227981744
C   2.47812647313991     -5.65357317188818     -0.00029052915548
C   -3.65679823041642      4.97295655404175     -0.00047374852278
C   -4.89299899901461     -2.82519139505969      0.00006491824035
C   -2.47812801824129     -5.65356579800621     -0.00056571680280
C   -6.13477002348955      0.68054913825639     -0.00086464346868
C   -3.65678835334731     -4.97294365097028      0.00058578382008
C   -6.13476456307132     -0.68055354348201      0.00040575295444
H   5.83528897565761      3.36927626695423      0.00396712770529
H   7.07385965258860      1.22821762089947     -0.00037744837300
H   4.60066374401555      5.51238117445323     -0.00014522814529
H   5.83528386714679     -3.36930568472863     -0.00423551337640
H   -0.00001167146422      6.73853104613662     -0.00389474766392
H   7.07386165167227     -1.22822657074368     -0.00008250934481
H   2.47331421164041      6.74068466339473      0.00017162982210
H   4.60066897122302     -5.51237575717576      0.00039007446835
H   -2.47331820069565      6.74068209160650      0.00047297644710
H   -0.00000978838621     -6.73852780445195      0.00458867820736
H   -5.83530143450167      3.36927132229595      0.00410314985360
H   2.47330840367253     -6.74068500242887      0.00027980126949
H   -4.60067436136587      5.51237839860371      0.00002010017831
H   -5.83527902699321     -3.36928859177951     -0.00451481925734
H   -2.47329986759855     -6.74067870613986     -0.00016951527498
H   -7.07385728692578      1.22822084484047     -0.00046143985387
H   -4.60067330624313     -5.51236229778631      0.00021776644566
H   -7.07385645456741     -1.22822025997701     -0.00017736581114

    units angstrom      # Angstroms are the default
    no_reorient         # Geometry fixed, default
    symmetry c1         # C1 symmetry, default
}

set {
    scf_type DF         # Density fitting, faster than exact integrals
    freeze_core True    # Freeze core electrons
    basis jun-cc-pVDZ   # Jun-cc-pVDZ basis set, recommended for sSAPT0 in https://doi.org/10.1063/1.4867135
}

energy('ssapt0')        # Compute sSAPT0 energy, includes also SAPT0
--------------------------------------------------------------------------

  //              Dimer HF             //
    Molecular point group: c1
  Charge       = -1
  Multiplicity = 1
  Basis Set: JUN-CC-PVDZ
    Blend: JUN-CC-PVDZ
  Basis Set: (JUN-CC-PVDZ AUX)
    Blend: JUN-CC-PVDZ-JKFIT
  @DF-RHF Final Energy: -2478.13284910708080
    Total Energy =                      -2478.1328491070798918
 Dipole X            :         -0.0000302            0.0000481            0.0000179
 Dipole Y            :          0.0002636           -0.0001453            0.0001183
 Dipole Z            :        -12.6622020           14.7129560            2.0507540
 Magnitude           :                                                    2.0507540
  //            Monomer A HF           //
    Molecular point group: c1
  Multiplicity = 1
  Basis Set: JUN-CC-PVDZ
    Blend: JUN-CC-PVDZ
  Basis Set: (JUN-CC-PVDZ AUX)
    Blend: JUN-CC-PVDZ-JKFIT
  @DF-RHF Final Energy:  -422.77814349756267
    Total Energy =                       -422.7781434975626667
  //            Monomer B HF           //
    Molecular point group: c1

    Geometry (in Angstrom), charge = 0, multiplicity = 1:

       Center              X                  Y                   Z               Mass
    ------------   -----------------  -----------------  -----------------  -----------------
      Gh(B)          -0.000198161052     0.000273808717    -2.122716585900    11.009305360000
      Gh(F)          -0.000000401852    -0.000000464183    -0.709931585900    18.998403162730
      Gh(F)           1.147859598148     0.675780735817    -2.593857585900    18.998403162730
      Gh(F)           0.011917658148    -1.332011464183    -2.593655585900    18.998403162730
      Gh(F)          -1.159666401852     0.656073035817    -2.593576585900    18.998403162730
         C            1.225311973413     0.707538196736     0.283387041383    12.000000000000
         C            1.225323934041    -0.707538986754     0.271056231813    12.000000000000
         C           -0.000006075942     1.414965821907     0.270522608292    12.000000000000
         C            2.456448831939     1.418327794995     0.286273898783    12.000000000000
         C            0.000010905269    -1.414976590818     0.280722165617    12.000000000000
         C           -1.225300870919     0.707545281801     0.285638561706    12.000000000000
         C            2.456437833310    -1.418323396064     0.268811074956    12.000000000000
         C           -0.000001254988     2.836800939098     0.268119058158    12.000000000000
         C            3.681826775460     0.709317863818     0.269159864754    12.000000000000
         C            2.455120126855     2.834223569306     0.269057307793    12.000000000000
         C            3.681821183209    -0.709333931612     0.285232348772    12.000000000000
         C           -1.225313520698    -0.707527607727     0.272128993240    12.000000000000
         C            1.226699659192     3.543469391811     0.285416380703    12.000000000000
         C            0.000004862847    -2.836782231419     0.285570333238    12.000000000000
         C           -2.456435954859     1.418316826102     0.285673957552    12.000000000000
         C            2.455123495769    -2.834230120772     0.285080440405    12.000000000000
         C           -1.226714286599     3.543468971567     0.285519713923    12.000000000000
         C            4.914517373191     1.427172780306     0.275640547784    12.000000000000
         C            3.693150269466     3.542795200362     0.275690347420    12.000000000000
         C           -2.456437522078    -1.418313373022     0.268786036832    12.000000000000
         C            1.226704919933    -3.543474334090     0.269446249953    12.000000000000
         C           -2.455125320518     2.834216570451     0.269063684140    12.000000000000
         C            4.914524458772    -1.427187002127     0.278613290518    12.000000000000
         C            1.221424691688     4.970133973077     0.278751724778    12.000000000000
         C            4.893008307311     2.825187907843     0.276857216142    12.000000000000
         C           -1.226696930499    -3.543471089260     0.269713454363    12.000000000000
         C           -3.681818898536     0.709324874549     0.269172545234    12.000000000000
         C            3.693147179140    -3.542801433574     0.278731181079    12.000000000000
         C           -1.221432174004     4.970128205680     0.278935220151    12.000000000000
         C            6.134771050916     0.680547854922     0.276410322333    12.000000000000
         C            3.656788958600     4.972953151384     0.276598985202    12.000000000000
         C           -2.455126829744    -2.834215185244     0.284836082607    12.000000000000
         C           -3.681819101071    -0.709325795652     0.285349970351    12.000000000000
         C            4.893012695903    -2.825200197815     0.277468368038    12.000000000000
         C           -0.000000995123     5.650447273849     0.277703911444    12.000000000000
         C            6.134775190322    -0.680554946258     0.277675642849    12.000000000000
         C            2.478131560845     5.653576659148     0.277887764852    12.000000000000
         C            1.221422482727    -4.970127147116     0.275952227755    12.000000000000
         C           -3.693162305975     3.542796862009     0.275855854879    12.000000000000
         C           -1.221428442955    -4.970118395779     0.275839465923    12.000000000000
         C           -4.914521729952     1.427175354812     0.275717492791    12.000000000000
         C            3.656787097669    -4.972955318422     0.278049485737    12.000000000000
         C           -2.478138452116     5.653574330345     0.278172289861    12.000000000000
         C           -3.693141660574    -3.542790311162     0.278615054923    12.000000000000
         C           -4.914512405063    -1.427181092211     0.278647987692    12.000000000000
         C           -0.000005930936    -5.650438379197     0.277308407322    12.000000000000
         C           -4.893020406111     2.825188506736     0.276847134282    12.000000000000
         C            2.478126071288    -5.653573636072     0.276958884944    12.000000000000
         C           -3.656798632268     4.972956089858     0.276775665577    12.000000000000
         C           -4.892999400866    -2.825191859243     0.277314332340    12.000000000000
         C           -2.478128420093    -5.653566262190     0.276683697297    12.000000000000
         C           -6.134770425341     0.680548674073     0.276384770631    12.000000000000
         C           -3.656788755199    -4.972944115154     0.277835197920    12.000000000000
         C           -6.134764964923    -0.680554007665     0.277655167054    12.000000000000
         H            5.835288573806     3.369275802771     0.281216541805     1.007825032230
         H            7.073859250737     1.228217156716     0.276871965727     1.007825032230
         H            4.600663342164     5.512380710270     0.277104185954     1.007825032230
         H            5.835283465295    -3.369306148912     0.273013900723     1.007825032230
         H           -0.000012073316     6.738530581953     0.273354666436     1.007825032230
         H            7.073861249820    -1.228227034927     0.277166904755     1.007825032230
         H            2.473313809789     6.740684199211     0.277421043922     1.007825032230
         H            4.600668569371    -5.512376221359     0.277639488568     1.007825032230
         H           -2.473318602548     6.740681627423     0.277722390547     1.007825032230
         H           -0.000010190238    -6.738528268635     0.281838092307     1.007825032230
         H           -5.835301836354     3.369270858113     0.281352563953     1.007825032230
         H            2.473308001821    -6.740685466612     0.277529215369     1.007825032230
         H           -4.600674763218     5.512377934420     0.277269514278     1.007825032230
         H           -5.835279428845    -3.369289055963     0.272734594842     1.007825032230
         H           -2.473300269450    -6.740679170323     0.277079898825     1.007825032230
         H           -7.073857688778     1.228220380657     0.276787974246     1.007825032230
         H           -4.600673708095    -5.512362761970     0.277467180545     1.007825032230
         H           -7.073856856419    -1.228220724160     0.277072048289     1.007825032230

  Charge       = 0
  Multiplicity = 1
  Basis Set: JUN-CC-PVDZ
    Blend: JUN-CC-PVDZ
  Basis Set: (JUN-CC-PVDZ AUX)
    Blend: JUN-CC-PVDZ-JKFIT

    Orbital Energies [Eh]
    ---------------------

    Doubly Occupied:

       1A    -11.260622     2A    -11.260169     3A    -11.260166
       4A    -11.259404     5A    -11.259403     6A    -11.259213
       7A    -11.258967     8A    -11.258895     9A    -11.258894
      10A    -11.258578    11A    -11.258574    12A    -11.258463
      13A    -11.258410    14A    -11.258409    15A    -11.258404
      16A    -11.258370    17A    -11.258363    18A    -11.258345
      19A    -11.258344    20A    -11.258340    21A    -11.258335
      22A    -11.258272    23A    -11.258267    24A    -11.258030
      25A    -11.257242    26A    -11.257182    27A    -11.257181
      28A    -11.257050    29A    -11.257049    30A    -11.256968
      31A    -11.256333    32A    -11.256264    33A    -11.256263
      34A    -11.256156    35A    -11.256156    36A    -11.256110
      37A    -11.252238    38A    -11.252237    39A    -11.252236
      40A    -11.252234    41A    -11.252232    42A    -11.252231
      43A    -11.251328    44A    -11.251326    45A    -11.251326
      46A    -11.251314    47A    -11.251313    48A    -11.251310
      49A    -11.250800    50A    -11.250798    51A    -11.250797
      52A    -11.250795    53A    -11.250793    54A    -11.250792
      55A     -1.243854    56A     -1.219687    57A     -1.219687
      58A     -1.189445    59A     -1.189438    60A     -1.180720
      61A     -1.157486    62A     -1.148890    63A     -1.135325
      64A     -1.135318    65A     -1.113118    66A     -1.113114
      67A     -1.082305    68A     -1.082298    69A     -1.078407
      70A     -1.065913    71A     -1.065909    72A     -1.039306
      73A     -1.024127    74A     -1.021560    75A     -1.021517
      76A     -1.017663    77A     -1.012726    78A     -0.986899
      79A     -0.986853    80A     -0.961786    81A     -0.961736
      82A     -0.894204    83A     -0.894178    84A     -0.887728
      85A     -0.886017    86A     -0.885959    87A     -0.881258
      88A     -0.881211    89A     -0.861813    90A     -0.837362
      91A     -0.818116    92A     -0.816464    93A     -0.811980
      94A     -0.811971    95A     -0.794610    96A     -0.794599
      97A     -0.746471    98A     -0.744732    99A     -0.733256
     100A     -0.733247   101A     -0.732093   102A     -0.732070
     103A     -0.716349   104A     -0.698887   105A     -0.698876
     106A     -0.693458   107A     -0.693442   108A     -0.661146
     109A     -0.652944   110A     -0.650997   111A     -0.650165
     112A     -0.650159   113A     -0.639282   114A     -0.639280
     115A     -0.629579   116A     -0.627375   117A     -0.627359
     118A     -0.606510   119A     -0.605769   120A     -0.601537
     121A     -0.599638   122A     -0.599606   123A     -0.593538
     124A     -0.591003   125A     -0.590992   126A     -0.585228
     127A     -0.576363   128A     -0.576357   129A     -0.567254
     130A     -0.567240   131A     -0.565803   132A     -0.565784
     133A     -0.558574   134A     -0.554743   135A     -0.554736
     136A     -0.538507   137A     -0.538506   138A     -0.538141
     139A     -0.538135   140A     -0.529622   141A     -0.528188
     142A     -0.522773   143A     -0.522766   144A     -0.500425
     145A     -0.495545   146A     -0.493149   147A     -0.487788
     148A     -0.484964   149A     -0.481634   150A     -0.481626
     151A     -0.470334   152A     -0.470315   153A     -0.450840
     154A     -0.450762   155A     -0.439020   156A     -0.439011
     157A     -0.404676   158A     -0.404653   159A     -0.403320
     160A     -0.375382   161A     -0.375380   162A     -0.349069
     163A     -0.337512   164A     -0.336458   165A     -0.336400
     166A     -0.311009   167A     -0.298086   168A     -0.284251
     169A     -0.284198   170A     -0.224814   171A     -0.224748

  @DF-RHF Final Energy: -2055.89541418944827

   => Energetics <=

    Nuclear Repulsion Energy =           6452.5568002797772351
    One-Electron Energy =              -15636.5169982957377215
    Two-Electron Energy =                7128.0647838265122118
    Total Energy =                      -2055.8954141894482746
 Dipole X            :         -0.0000010            0.0000419            0.0000409
 Dipole Y            :          0.0000720           -0.0000426            0.0000295
 Dipole Z            :       -179.1851013          179.1810647           -0.0040366
 Magnitude           :                                                    0.0040369

    SAPT Results
  --------------------------------------------------------------------------------------------------------
    Electrostatics               -412.57798732 [mEh]    -258.89659571 [kcal/mol]   -1083.22335647 [kJ/mol]
      Elst10,r                   -412.57798732 [mEh]    -258.89659571 [kcal/mol]   -1083.22335647 [kJ/mol]

    Exchange                      971.82056432 [mEh]     609.82661092 [kcal/mol]    2551.51454010 [kJ/mol]
      Exch10                      971.82056432 [mEh]     609.82661092 [kcal/mol]    2551.51454010 [kJ/mol]
      Exch10(S^2)                 892.69519574 [mEh]     560.17469252 [kcal/mol]    2343.77091350 [kJ/mol]

    Induction                     -18.53399707 [mEh]     -11.63025875 [kcal/mol]     -48.66100261 [kJ/mol]
      Ind20,r                    -564.54433856 [mEh]    -354.25692081 [kcal/mol]   -1482.21095669 [kJ/mol]
      Exch-Ind20,r                385.74298039 [mEh]     242.05737464 [kcal/mol]    1012.76805550 [kJ/mol]
      delta HF,r (2)              160.26736110 [mEh]     100.56928742 [kcal/mol]     420.78189858 [kJ/mol]

    Dispersion                    -81.96612579 [mEh]     -51.43452046 [kcal/mol]    -215.20203360 [kJ/mol]
      Disp20                     -135.42294111 [mEh]     -84.97917851 [kcal/mol]    -355.55288289 [kJ/mol]
      Exch-Disp20                  53.45681532 [mEh]      33.54465805 [kcal/mol]     140.35084929 [kJ/mol]
      Disp20 (SS)                 -67.71147055 [mEh]     -42.48958926 [kcal/mol]    -177.77644144 [kJ/mol]
      Disp20 (OS)                 -67.71147055 [mEh]     -42.48958926 [kcal/mol]    -177.77644144 [kJ/mol]
      Exch-Disp20 (SS)             24.95134307 [mEh]      15.65720416 [kcal/mol]      65.50974221 [kJ/mol]
      Exch-Disp20 (OS)             28.50547225 [mEh]      17.88745389 [kcal/mol]      74.84110707 [kJ/mol]

  Total HF                        540.70857993 [mEh]     339.29975646 [kcal/mol]    1419.63018102 [kJ/mol]
  Total SAPT0                     458.74245414 [mEh]     287.86523600 [kcal/mol]    1204.42814742 [kJ/mol]

  Special recipe for scaled SAPT0 (see Manual):
    Electrostatics sSAPT0        -412.57798732 [mEh]    -258.89659571 [kcal/mol]   -1083.22335647 [kJ/mol]
    Exchange sSAPT0               971.82056432 [mEh]     609.82661092 [kcal/mol]    2551.51454010 [kJ/mol]
    Induction sSAPT0               93.39901755 [mEh]      58.60876835 [kcal/mol]     245.21908680 [kJ/mol]
    Dispersion sSAPT0             -66.45428812 [mEh]     -41.70069537 [kcal/mol]    -174.47570943 [kJ/mol]
  Total sSAPT0                    586.18730643 [mEh]     367.83808819 [kcal/mol]    1539.03456100 [kJ/mol]
  --------------------------------------------------------------------------------------------------------

*** Psi4 exiting successfully. Buy a developer a beer!
