                               Psi4 1.9 release

  ==> Input File <==

--------------------------------------------------------------------------
memory 64 GB # how much memory is available ! Depends on the nodes/cores !

molecule dimer {
# monomer A
-1 1    # Charge and multiplicity
B -0.000046  0.000337 2.999994
F -1.153597  0.000048 3.815641
F  1.153661 -0.000581 3.815641
F -0.000019 -1.153637 2.184360
F -0.000019  1.153978 2.184360
--
# monomer B
0 1     # Charge and multiplicity
C   -3.66844126402057      7.80375217008252      0.00190004133558
C   -4.84759871934653      7.13124183134024     -0.00046653359696
C   -4.89495929917518      5.69633040353158     -0.00103944469517
C   -3.65374067877320      4.98073034095895      0.00662099703436
C   -2.40942512149445      7.11398103667468      0.00209438359570
C   -2.42547734410473      5.68112195090346     -0.00491050527438
C   -1.19474401643570      7.78614419430947      0.00356656413763
C   0.03795902893699      7.09942164575698      0.00139585983271
C   0.03033258741920      5.66948955970466     -0.00408752508301
C   -1.20098450790502      4.96927034791531      0.00488220885047
C   1.27795782581485      7.77285944319479      0.00277170839332
C   2.48535808472416      7.08769688523756      0.00049722048857
C   2.48612868491717      5.65477081024076     -0.00644052849921
C   1.25408291964399      4.95607811366431      0.00518741308898
C   3.75171459140595      7.76391215098033      0.00062407186893
C   4.92356605618520      7.07878077698995     -0.00143240883900
C   4.95560727132542      5.64344746336949     -0.00159282164606
C   3.70680153420475      4.94121020833308      0.00349873852374
H   -3.65852113775815      8.89082741913536      0.00358502958574
H   -1.18921332975660      8.87412108735996      0.00753844057883
H   1.28429423888630      8.86083343548850      0.00693053253426
H   3.75354208679975      8.85103527897216      0.00214659618464
H   5.86995870320703      7.61379483465560     -0.00235777588134
H   -5.78823170750226      7.67630221293400     -0.00202638095293
C   -6.09197395869619      4.99326001364347     -0.00291168518608
C   -6.12866148031747      3.58258016879823     -0.00171050815740
C   -3.66457974004527      3.56418217974434     -0.00463560277484
C   -4.89429820469869      2.86108077590057      0.00453338221034
C   -2.43733499489796      2.84761165708481      0.00719617576166
C   -1.20922785759670      3.54788693497833     -0.00648285103018
C   1.24714157216223      3.53468075142962     -0.00729145743546
C   0.01517603956900      2.83311183930540      0.00439272578912
C   2.46764517244071      2.82128997725533      0.00449278391269
C   3.70254947457969      3.52466015442405     -0.00899517692985
C   6.14498038638375      4.92757236613191     -0.00282626685777
C   6.16658835886151      3.51658447594213     -0.00065971342101
C   4.92460995845939      2.80840792535402      0.00587903281610
H   7.08990550964105      5.46688776622306     -0.00658814770723
H   -7.03104175110130      5.54268795285765     -0.00714490013730
C   -7.33969804112295      2.85841153457957     -0.00333767559888
C   -7.36488195805880      1.47032337158330     -0.00157213747140
C   -4.90350460894690      1.44442681216000     -0.00628840166334
C   -6.13225715261081      0.73993935705394      0.00600164231964
C   -3.67687480051673      0.72669714267312      0.00433931473643
C   -2.44565658606518      1.42964113326212     -0.00597039546461
C   -1.22360068130162      0.71532450163492      0.00545886906656
C   0.00763786931376      1.41738314923765      0.00392452278437
C   1.23121980774686      0.70211669058719     -0.01490206287210
C   2.46082110053113      1.40329203612573      0.00460244601878
C   3.68443025419614      0.68719842821222      0.00377365974158
C   4.91870890153864      1.39173456118907     -0.00862816189375
C   7.36980207796101      2.77948220318441     -0.00242013321349
C   7.38016266612146      1.39121750785509     -0.00087345036788
C   6.13979953912259      0.67411862320065      0.00545489144369
H   -8.27919079934664      3.40711804112415     -0.00763522772059
H   8.31511347147953      3.31811809662368     -0.00663070901292
C   -8.59175593758115      0.72483255304480     -0.00123170985383
C   -8.59902460370342     -0.63263980622873      0.00089141472904
C   -6.13981313911873     -0.67413663715361     -0.00609792660607
C   -7.38018411213749     -1.39126618958160      0.00131813493501
C   -4.91868448025621     -1.39175501803000      0.00624257154343
C   -3.68443829568458     -0.68723731573599     -0.00478966852105
C   -2.46081704024768     -1.40334517882457      0.00575341766833
C   -1.23116201232071     -0.70217386488055     -0.00636696112346
C   -0.00756962538737     -1.41741884941102      0.00108956317991
C   1.22364771588843     -0.71527537726392      0.01109518512883
C   2.44567064933149     -1.42964328900682     -0.00065482763106
C   3.67686670284649     -0.72670743155550     -0.00479541202602
C   6.13224884641929     -0.73997883984993     -0.00632338623858
C   4.90351914550401     -1.44445752054090      0.00751768830159
C   8.59901484869081      0.63260386666793     -0.00101133422380
C   8.59174548810050     -0.72485086719319      0.00072504603735
C   7.36486276438985     -1.47033266560598      0.00049486934466
H   -9.52830597181814      1.27684744919284     -0.00270163681798
H   9.54141097460619      1.17457248844457     -0.00206336648518
C   -7.36983790976868     -2.77954514593389      0.00312634335708
C   -4.92459910905015     -2.80843725734101     -0.00460528907921
C   -6.16662249566744     -3.51665219282533      0.00169655107992
C   -3.70251035970491     -3.52468154912026      0.00571878010666
C   -2.46764698511392     -2.82132596280400     -0.00632585824990
C   -0.01513347410770     -2.83314164539971     -0.00604426974092
C   -1.24712184122656     -3.53473217556300      0.00551968366725
C   1.20924506964357     -3.54791467864352      0.00805871345849
C   2.43733602215464     -2.84764173817541     -0.00608104485234
C   4.89430234377080     -2.86112296828604     -0.00526030478103
C   3.66461525504104     -3.56421984553201      0.00761911515957
C   6.12863901474565     -3.58258405771778      0.00096495711699
C   7.33967266469532     -2.85841330737039      0.00248018319869
H   -9.54144911125902     -1.17456346666430      0.00226083090216
H   9.52826186807155     -1.27691907390448      0.00197485379837
H   -8.31516504384864     -3.31814985321231      0.00729857188773
H   8.27915514249207     -3.40714078989363      0.00681973918158
C   -6.14499418870218     -4.92764727278338      0.00302254913999
C   -3.70678334799751     -4.94126171411716     -0.00679841894792
C   -4.95559005800169     -5.64349397349412      0.00116871569699
C   -2.48612132622665     -5.65478557440947      0.00614125209662
C   -1.25405833548005     -4.95612205000132     -0.00503435388927
C   1.20101257386816     -4.96928038819302     -0.00385322963129
C   -0.03033667441341     -5.66952030313900      0.00398997003238
C   3.65375010132847     -4.98074377541453     -0.00309522988330
C   2.42549269587528     -5.68117463552727      0.00628170066869
C   6.09196561781097     -4.99325796338655      0.00325918379042
C   4.89497644461045     -5.69634842095790      0.00202298796027
H   -7.08989238804069     -5.46699984223871      0.00742531082125
H   7.03105520920009     -5.54265853633254      0.00683896355417
C   -4.92354532219813     -7.07882109967734      0.00061394679214
C   -2.48534208823777     -7.08772807792913     -0.00189594564379
C   -3.75168589177895     -7.76394715763627     -0.00170126671874
C   -0.03794895698805     -7.09946487446944     -0.00168022049625
C   -1.27795610040136     -7.77290438466689     -0.00366491325785
C   2.40944432072629     -7.11402201200282     -0.00081701968533
C   1.19474993715296     -7.78618536556242     -0.00296931056689
C   4.84762105249800     -7.13126211057943      0.00168979497423
C   3.66847160587561     -7.80378799294376     -0.00065863938960
H   -5.86994035041618     -7.61383059804164      0.00215798365757
H   5.78824962538815     -7.67633218931421      0.00281691445618
H   -3.75352693944918     -8.85107156923607     -0.00353718114765
H   -1.28430440589466     -8.86087539249706     -0.00809229711623
H   1.18922157469537     -8.87416062058945     -0.00706194725726
H   3.65854661482387     -8.89086063405326     -0.00231318081200

    units angstrom      # Angstroms are the default
    no_reorient         # Geometry fixed, default
    symmetry c1         # C1 symmetry, default
}

set {
    scf_type DF         # Density fitting, faster than exact integrals
    freeze_core True    # Freeze core electrons
    basis jun-cc-pVDZ   # Jun-cc-pVDZ basis set, recommended for sSAPT0 in https://doi.org/10.1063/1.4867135
}

energy('ssapt0')        # Compute sSAPT0 energy, includes also SAPT0
--------------------------------------------------------------------------

  //              Dimer HF             //
    Molecular point group: c1
  Charge       = -1
  Multiplicity = 1
  Basis Set: JUN-CC-PVDZ
    Blend: JUN-CC-PVDZ
  Basis Set: (JUN-CC-PVDZ AUX)
    Blend: JUN-CC-PVDZ-JKFIT
  @DF-RHF Final Energy: -4073.06554857466290
    Total Energy =                      -4073.0655485746647173
 Dipole X            :          0.0017040           -0.0001188            0.0015852
 Dipole Y            :          0.0012851           -0.0002727            0.0010124
 Dipole Z            :         14.3935601          -17.8538127           -3.4602525
 Magnitude           :                                                    3.4602530
  //            Monomer A HF           //
    Molecular point group: c1
  Multiplicity = 1
  Basis Set: JUN-CC-PVDZ
    Blend: JUN-CC-PVDZ
  Basis Set: (JUN-CC-PVDZ AUX)
    Blend: JUN-CC-PVDZ-JKFIT
  @DF-RHF Final Energy:  -422.77547466595161
    Total Energy =                       -422.7754746659516059
  //            Monomer B HF           //
    Molecular point group: c1

    Geometry (in Angstrom), charge = 0, multiplicity = 1:

       Center              X                  Y                   Z               Mass
    ------------   -----------------  -----------------  -----------------  -----------------
      Gh(B)          -0.000050191042     0.000351518223     2.793364337427    11.009305360000
      Gh(F)          -1.153601191042     0.000062518223     3.609011337427    18.998403162730
      Gh(F)           1.153656808958    -0.000566481777     3.609011337427    18.998403162730
      Gh(F)          -0.000023191042    -1.153622481777     1.977730337427    18.998403162730
      Gh(F)          -0.000023191042     1.153992518223     1.977730337427    18.998403162730
         C           -3.668445455062     7.803766688305    -0.204729621237    12.000000000000
         C           -4.847602910388     7.131256349563    -0.207096196170    12.000000000000
         C           -4.894963490217     5.696344921754    -0.207669107268    12.000000000000
         C           -3.653744869815     4.980744859182    -0.200008665539    12.000000000000
         C           -2.409429312536     7.113995554897    -0.204535278977    12.000000000000
         C           -2.425481535146     5.681136469126    -0.211540167847    12.000000000000
         C           -1.194748207477     7.786158712532    -0.203063098435    12.000000000000
         C            0.037954837895     7.099436163980    -0.205233802740    12.000000000000
         C            0.030328396378     5.669504077927    -0.210717187656    12.000000000000
         C           -1.200988698947     4.969284866138    -0.201747453722    12.000000000000
         C            1.277953634773     7.772873961417    -0.203857954180    12.000000000000
         C            2.485353893683     7.087711403460    -0.206132442084    12.000000000000
         C            2.486124493876     5.654785328463    -0.213070191072    12.000000000000
         C            1.254078728602     4.956092631887    -0.201442249484    12.000000000000
         C            3.751710400364     7.763926669203    -0.206005590704    12.000000000000
         C            4.923561865144     7.078795295213    -0.208062071412    12.000000000000
         C            4.955603080284     5.643461981592    -0.208222484219    12.000000000000
         C            3.706797343163     4.941224726556    -0.203130924049    12.000000000000
         H           -3.658525328800     8.890841937358    -0.203044632987     1.007825032230
         H           -1.189217520798     8.874135605583    -0.199091221994     1.007825032230
         H            1.284290047845     8.860847953711    -0.199699130039     1.007825032230
         H            3.753537895758     8.851049797195    -0.204483066388     1.007825032230
         H            5.869954512165     7.613809352878    -0.208987438454     1.007825032230
         H           -5.788235898544     7.676316731157    -0.208656043526     1.007825032230
         C           -6.091978149738     4.993274531866    -0.209541347759    12.000000000000
         C           -6.128665671359     3.582594687021    -0.208340170730    12.000000000000
         C           -3.664583931087     3.564196697967    -0.211265265348    12.000000000000
         C           -4.894302395740     2.861095294123    -0.202096280363    12.000000000000
         C           -2.437339185940     2.847626175307    -0.199433486811    12.000000000000
         C           -1.209232048638     3.547901453201    -0.213112513603    12.000000000000
         C            1.247137381121     3.534695269652    -0.213921120008    12.000000000000
         C            0.015171848527     2.833126357528    -0.202236936784    12.000000000000
         C            2.467640981399     2.821304495478    -0.202136878660    12.000000000000
         C            3.702545283538     3.524674672647    -0.215624839503    12.000000000000
         C            6.144976195342     4.927586884354    -0.209455929431    12.000000000000
         C            6.166584167820     3.516598994165    -0.207289375994    12.000000000000
         C            4.924605767418     2.808422443577    -0.200750629757    12.000000000000
         H            7.089901318599     5.466902284446    -0.213217810280     1.007825032230
         H           -7.031045942143     5.542702471080    -0.213774562710     1.007825032230
         C           -7.339702232165     2.858426052802    -0.209967338172    12.000000000000
         C           -7.364886149100     1.470337889806    -0.208201800044    12.000000000000
         C           -4.903508799989     1.444441330383    -0.212918064236    12.000000000000
         C           -6.132261343652     0.739953875277    -0.200628020253    12.000000000000
         C           -3.676878991558     0.726711660896    -0.202290347836    12.000000000000
         C           -2.445660777107     1.429655651485    -0.212600058038    12.000000000000
         C           -1.223604872343     0.715339019858    -0.201170793506    12.000000000000
         C            0.007633678272     1.417397667460    -0.202705139789    12.000000000000
         C            1.231215616705     0.702131208810    -0.221531725445    12.000000000000
         C            2.460816909489     1.403306554348    -0.202027216554    12.000000000000
         C            3.684426063155     0.687212946435    -0.202856002831    12.000000000000
         C            4.918704710497     1.391749079412    -0.215257824467    12.000000000000
         C            7.369797886919     2.779496721407    -0.209049795786    12.000000000000
         C            7.380158475080     1.391232026078    -0.207503112941    12.000000000000
         C            6.139795348081     0.674133141423    -0.201174771129    12.000000000000
         H           -8.279194990388     3.407132559347    -0.214264890293     1.007825032230
         H            8.315109280438     3.318132614846    -0.213260371586     1.007825032230
         C           -8.591760128623     0.724847071267    -0.207861372427    12.000000000000
         C           -8.599028794745    -0.632625288006    -0.205738247844    12.000000000000
         C           -6.139817330160    -0.674122118931    -0.212727589179    12.000000000000
         C           -7.380188303179    -1.391251671359    -0.205311527638    12.000000000000
         C           -4.918688671298    -1.391740499807    -0.200387091029    12.000000000000
         C           -3.684442486726    -0.687222797513    -0.211419331094    12.000000000000
         C           -2.460821231289    -1.403330660602    -0.200876244905    12.000000000000
         C           -1.231166203362    -0.702159346658    -0.212996623696    12.000000000000
         C           -0.007573816429    -1.417404331188    -0.205540099393    12.000000000000
         C            1.223643524847    -0.715260859041    -0.195534477444    12.000000000000
         C            2.445666458290    -1.429628770784    -0.207284490204    12.000000000000
         C            3.676862511805    -0.726692913333    -0.211425074599    12.000000000000
         C            6.132244655378    -0.739964321627    -0.212953048811    12.000000000000
         C            4.903514954462    -1.444443002318    -0.199111974271    12.000000000000
         C            8.599010657649     0.632618384891    -0.207640996797    12.000000000000
         C            8.591741297059    -0.724836348971    -0.205904616536    12.000000000000
         C            7.364858573348    -1.470318147383    -0.206134793228    12.000000000000
         H           -9.528310162860     1.276861967415    -0.209331299391     1.007825032230
         H            9.541406783565     1.174587006667    -0.208693029058     1.007825032230
         C           -7.369842100810    -2.779530627711    -0.203503319216    12.000000000000
         C           -4.924603300092    -2.808422739118    -0.211234951652    12.000000000000
         C           -6.166626686709    -3.516637674603    -0.204933111493    12.000000000000
         C           -3.702514550747    -3.524667030898    -0.200910882466    12.000000000000
         C           -2.467651176156    -2.821311444581    -0.212955520823    12.000000000000
         C           -0.015137665149    -2.833127127177    -0.212673932314    12.000000000000
         C           -1.247126032268    -3.534717657340    -0.201109978906    12.000000000000
         C            1.209240878602    -3.547900160421    -0.198570949114    12.000000000000
         C            2.437331831113    -2.847627219953    -0.212710707425    12.000000000000
         C            4.894298152729    -2.861108450063    -0.211889967354    12.000000000000
         C            3.664611063999    -3.564205327309    -0.199010547413    12.000000000000
         C            6.128634823704    -3.582569539495    -0.205664705456    12.000000000000
         C            7.339668473654    -2.858398789148    -0.204149479374    12.000000000000
         H           -9.541453302301    -1.174548948442    -0.204368831671     1.007825032230
         H            9.528257677030    -1.276904555682    -0.204654808775     1.007825032230
         H           -8.315169234890    -3.318135334990    -0.199331090685     1.007825032230
         H            8.279150951450    -3.407126271671    -0.199809923391     1.007825032230
         C           -6.144998379744    -4.927632754561    -0.203607113433    12.000000000000
         C           -3.706787539039    -4.941247195895    -0.213428081521    12.000000000000
         C           -4.955594249043    -5.643479455272    -0.205460946876    12.000000000000
         C           -2.486125517268    -5.654771056187    -0.200488410476    12.000000000000
         C           -1.254062526522    -4.956107531779    -0.211664016462    12.000000000000
         C            1.201008382827    -4.969265869970    -0.210482892204    12.000000000000
         C           -0.030340865455    -5.669505784916    -0.202639692541    12.000000000000
         C            3.653745910287    -4.980729257192    -0.209724892456    12.000000000000
         C            2.425488504834    -5.681160117305    -0.200347961904    12.000000000000
         C            6.091961426769    -4.993243445164    -0.203370478782    12.000000000000
         C            4.894972253569    -5.696333902735    -0.204606674613    12.000000000000
         H           -7.089896579082    -5.466985324016    -0.199204351752     1.007825032230
         H            7.031051018158    -5.542644018110    -0.199790699019     1.007825032230
         C           -4.923549513240    -7.078806581455    -0.206015715781    12.000000000000
         C           -2.485346279279    -7.087713559707    -0.208525608217    12.000000000000
         C           -3.751690082821    -7.763932639414    -0.208330929292    12.000000000000
         C           -0.037953148030    -7.099450356247    -0.208309883069    12.000000000000
         C           -1.277960291443    -7.772889866444    -0.210294575831    12.000000000000
         C            2.409440129685    -7.114007493780    -0.207446682258    12.000000000000
         C            1.194745746111    -7.786170847340    -0.209598973140    12.000000000000
         C            4.847616861456    -7.131247592357    -0.204939867599    12.000000000000
         C            3.668467414834    -7.803773474721    -0.207288301962    12.000000000000
         H           -5.869944541458    -7.613816079819    -0.204471678915     1.007825032230
         H            5.788245434347    -7.676317671092    -0.203812748117     1.007825032230
         H           -3.753531130491    -8.851057051013    -0.210166843721     1.007825032230
         H           -1.284308596936    -8.860860874274    -0.214721959689     1.007825032230
         H            1.189217383654    -8.874146102367    -0.213691609830     1.007825032230
         H            3.658542423782    -8.890846115831    -0.208942843385     1.007825032230

  Charge       = 0
  Multiplicity = 1
  Basis Set: JUN-CC-PVDZ
    Blend: JUN-CC-PVDZ
  Basis Set: (JUN-CC-PVDZ AUX)
    Blend: JUN-CC-PVDZ-JKFIT

    Orbital Energies [Eh]
    ---------------------

    Doubly Occupied:

       1A    -11.264125     2A    -11.263814     3A    -11.263677
       4A    -11.263317     5A    -11.263267     6A    -11.263253
       7A    -11.263143     8A    -11.263100     9A    -11.263081
      10A    -11.262858    11A    -11.262759    12A    -11.262724
      13A    -11.262269    14A    -11.262253    15A    -11.262231
      16A    -11.262206    17A    -11.262109    18A    -11.262102
      19A    -11.262059    20A    -11.262027    21A    -11.262009
      22A    -11.261939    23A    -11.261893    24A    -11.261756
      25A    -11.261755    26A    -11.261736    27A    -11.261715
      28A    -11.261690    29A    -11.261669    30A    -11.261577
      31A    -11.261568    32A    -11.261557    33A    -11.261552
      34A    -11.261524    35A    -11.261519    36A    -11.261500
      37A    -11.261337    38A    -11.261331    39A    -11.261323
      40A    -11.261320    41A    -11.261312    42A    -11.261309
      43A    -11.261288    44A    -11.261270    45A    -11.261267
      46A    -11.261242    47A    -11.261240    48A    -11.261234
      49A    -11.261042    50A    -11.261009    51A    -11.261004
      52A    -11.260933    53A    -11.260920    54A    -11.260870
      55A    -11.259919    56A    -11.259905    57A    -11.259902
      58A    -11.259873    59A    -11.259871    60A    -11.259855
      61A    -11.259287    62A    -11.259260    63A    -11.259260
      64A    -11.259205    65A    -11.259204    66A    -11.259174
      67A    -11.258921    68A    -11.258903    69A    -11.258900
      70A    -11.258872    71A    -11.258870    72A    -11.258858
      73A    -11.254538    74A    -11.254536    75A    -11.254529
      76A    -11.254529    77A    -11.254528    78A    -11.254527
      79A    -11.253662    80A    -11.253660    81A    -11.253657
      82A    -11.253655    83A    -11.253652    84A    -11.253651
      85A    -11.253577    86A    -11.253575    87A    -11.253572
      88A    -11.253570    89A    -11.253567    90A    -11.253566
      91A    -11.253065    92A    -11.253064    93A    -11.253057
      94A    -11.253057    95A    -11.253056    96A    -11.253055
      97A     -1.253902    98A     -1.238986    99A     -1.238979
     100A     -1.220461   101A     -1.220456   102A     -1.215401
     103A     -1.201045   104A     -1.195606   105A     -1.188111
     106A     -1.188105   107A     -1.173770   108A     -1.173765
     109A     -1.155611   110A     -1.155608   111A     -1.152683
     112A     -1.144728   113A     -1.144725   114A     -1.128562
     115A     -1.114697   116A     -1.113167   117A     -1.112448
     118A     -1.112439   119A     -1.111626   120A     -1.088421
     121A     -1.088400   122A     -1.076966   123A     -1.076964
     124A     -1.067600   125A     -1.067570   126A     -1.064946
     127A     -1.046798   128A     -1.046791   129A     -1.040474
     130A     -1.038739   131A     -1.038739   132A     -1.025214
     133A     -1.021349   134A     -1.021299   135A     -1.007179
     136A     -1.006810   137A     -1.003790   138A     -1.000471
     139A     -1.000418   140A     -0.991080   141A     -0.970976
     142A     -0.970929   143A     -0.955882   144A     -0.955824
     145A     -0.905560   146A     -0.905556   147A     -0.905523
     148A     -0.905516   149A     -0.904299   150A     -0.892344
     151A     -0.892288   152A     -0.890341   153A     -0.890282
     154A     -0.889445   155A     -0.872218   156A     -0.869065
     157A     -0.851538   158A     -0.847851   159A     -0.847830
     160A     -0.845575   161A     -0.843009   162A     -0.834559
     163A     -0.834545   164A     -0.828117   165A     -0.828115
     166A     -0.784542   167A     -0.784533   168A     -0.783640
     169A     -0.783616   170A     -0.782276   171A     -0.782258
     172A     -0.782017   173A     -0.766990   174A     -0.760772
     175A     -0.750544   176A     -0.733485   177A     -0.727067
     178A     -0.727053   179A     -0.725072   180A     -0.724538
     181A     -0.724521   182A     -0.718455   183A     -0.713751
     184A     -0.713745   185A     -0.699567   186A     -0.699558
     187A     -0.686093   188A     -0.685958   189A     -0.685955
     190A     -0.682175   191A     -0.682162   192A     -0.678747
     193A     -0.653612   194A     -0.650860   195A     -0.650831
     196A     -0.649786   197A     -0.649774   198A     -0.649566
     199A     -0.640898   200A     -0.640876   201A     -0.640089
     202A     -0.639166   203A     -0.636000   204A     -0.635973
     205A     -0.629136   206A     -0.617706   207A     -0.615305
     208A     -0.615286   209A     -0.608798   210A     -0.608791
     211A     -0.599118   212A     -0.599070   213A     -0.598730
     214A     -0.598596   215A     -0.598572   216A     -0.598000
     217A     -0.595067   218A     -0.595054   219A     -0.594711
     220A     -0.594202   221A     -0.591939   222A     -0.591935
     223A     -0.587361   224A     -0.577800   225A     -0.577790
     226A     -0.575650   227A     -0.575643   228A     -0.573380
     229A     -0.569582   230A     -0.568109   231A     -0.568091
     232A     -0.566742   233A     -0.566727   234A     -0.560916
     235A     -0.558700   236A     -0.558679   237A     -0.558429
     238A     -0.554357   239A     -0.550544   240A     -0.547478
     241A     -0.544253   242A     -0.535033   243A     -0.534958
     244A     -0.533523   245A     -0.533502   246A     -0.528073
     247A     -0.528058   248A     -0.527763   249A     -0.517131
     250A     -0.517099   251A     -0.515345   252A     -0.515339
     253A     -0.509640   254A     -0.509623   255A     -0.498022
     256A     -0.496440   257A     -0.496410   258A     -0.493768
     259A     -0.493736   260A     -0.489428   261A     -0.481448
     262A     -0.477414   263A     -0.477408   264A     -0.473989
     265A     -0.469428   266A     -0.466512   267A     -0.466507
     268A     -0.458774   269A     -0.446651   270A     -0.446591
     271A     -0.441008   272A     -0.440759   273A     -0.440738
     274A     -0.434682   275A     -0.433903   276A     -0.407357
     277A     -0.407332   278A     -0.386379   279A     -0.386312
     280A     -0.385733   281A     -0.385726   282A     -0.383716
     283A     -0.354305   284A     -0.354303   285A     -0.350637
     286A     -0.338026   287A     -0.335548   288A     -0.335475
     289A     -0.332707   290A     -0.332705   291A     -0.307025
     292A     -0.301885   293A     -0.301825   294A     -0.300838
     295A     -0.286149   296A     -0.256487   297A     -0.253444
     298A     -0.253400   299A     -0.204240   300A     -0.204145

  @DF-RHF Final Energy: -3650.34020686171016

   => Energetics <=

    Nuclear Repulsion Energy =          15611.4211649754324753
    One-Electron Energy =              -36072.1529790240529110
    Two-Electron Energy =               16810.3916071869098232
    Total Energy =                      -3650.3402068617106124
 Dipole X            :          0.0002752            0.0001983            0.0004736
 Dipole Y            :          0.0013867           -0.0013163            0.0000704
 Dipole Z            :        234.2808320         -234.2806911            0.0001409
 Magnitude           :                                                    0.0004991

    SAPT Results
  --------------------------------------------------------------------------------------------------------
    Electrostatics                -44.99308162 [mEh]     -28.23358497 [kcal/mol]    -118.12931952 [kJ/mol]
      Elst10,r                    -44.99308162 [mEh]     -28.23358497 [kcal/mol]    -118.12931952 [kJ/mol]

    Exchange                      132.68155338 [mEh]      83.25893174 [kcal/mol]     348.35537040 [kJ/mol]
      Exch10                      132.68155338 [mEh]      83.25893174 [kcal/mol]     348.35537040 [kJ/mol]
      Exch10(S^2)                 129.96931093 [mEh]      81.55697391 [kcal/mol]     341.23437884 [kJ/mol]

    Induction                     -37.55551876 [mEh]     -23.56644382 [kcal/mol]     -98.60200092 [kJ/mol]
      Ind20,r                     -89.56398431 [mEh]     -56.20224866 [kcal/mol]    -235.15020840 [kJ/mol]
      Exch-Ind20,r                 60.76055726 [mEh]      38.12782531 [kcal/mol]     159.52682112 [kJ/mol]
      delta HF,r (2)               -8.75209172 [mEh]      -5.49202047 [kcal/mol]     -22.97861364 [kJ/mol]

    Dispersion                    -29.12500524 [mEh]     -18.27621671 [kcal/mol]     -76.46769073 [kJ/mol]
      Disp20                      -40.28632500 [mEh]     -25.28005060 [kcal/mol]    -105.77173172 [kJ/mol]
      Exch-Disp20                  11.16131976 [mEh]       7.00383389 [kcal/mol]      29.30404100 [kJ/mol]
      Disp20 (SS)                 -20.14316250 [mEh]     -12.64002530 [kcal/mol]     -52.88586586 [kJ/mol]
      Disp20 (OS)                 -20.14316250 [mEh]     -12.64002530 [kcal/mol]     -52.88586586 [kJ/mol]
      Exch-Disp20 (SS)              5.91556817 [mEh]       3.71207507 [kcal/mol]      15.53132210 [kJ/mol]
      Exch-Disp20 (OS)              5.24575159 [mEh]       3.29175882 [kcal/mol]      13.77271890 [kJ/mol]

  Total HF                         50.13295300 [mEh]      31.45890296 [kcal/mol]     131.62404996 [kJ/mol]
  Total SAPT0                      21.00794776 [mEh]      13.18268624 [kcal/mol]      55.15635924 [kJ/mol]

  Special recipe for scaled SAPT0 (see Manual):
    Electrostatics sSAPT0         -44.99308162 [mEh]     -28.23358497 [kcal/mol]    -118.12931952 [kJ/mol]
    Exchange sSAPT0               132.68155338 [mEh]      83.25893174 [kcal/mol]     348.35537040 [kJ/mol]
    Induction sSAPT0              -33.67167120 [mEh]     -21.12929267 [kcal/mol]     -88.40496055 [kJ/mol]
    Dispersion sSAPT0             -28.41156767 [mEh]     -17.82852788 [kcal/mol]     -74.59456063 [kJ/mol]
  Total sSAPT0                     25.60523290 [mEh]      16.06752622 [kcal/mol]      67.22652971 [kJ/mol]
  --------------------------------------------------------------------------------------------------------

*** Psi4 exiting successfully. Buy a developer a beer!
