                               Psi4 1.9 release

  ==> Input File <==

--------------------------------------------------------------------------
memory 80 GB # how much memory is available ! Depends on the nodes/cores !

molecule dimer {
# monomer A
+1 1    # Charge and multiplicity
C  0.680067 -1.215929 4.008042
C -0.680504 -1.215545 4.006014
N -1.085635  0.102779 4.005016
C  0.000108  0.884180 4.001740
C -2.477365  0.570758 3.955610
N  1.085222  0.102779 4.005016
H  1.385146 -2.033368 4.015870
H -1.385302 -2.033214 4.006204
H -0.000009  1.965269 3.999993
C  2.478117  0.567877 4.021908
H  2.490592  1.658130 3.994563
H  2.967028  0.220701 4.935354
H  3.001428  0.176405 3.146425
H -2.857359  0.490799 2.933539
H -3.082679 -0.042306 4.625694
H -2.518128  1.610706 4.282594
--
# monomer B
0 1     # Charge and multiplicity
C   -3.66844126402057      7.80375217008252      0.00190004133558
C   -4.84759871934653      7.13124183134024     -0.00046653359696
C   -4.89495929917518      5.69633040353158     -0.00103944469517
C   -3.65374067877320      4.98073034095895      0.00662099703436
C   -2.40942512149445      7.11398103667468      0.00209438359570
C   -2.42547734410473      5.68112195090346     -0.00491050527438
C   -1.19474401643570      7.78614419430947      0.00356656413763
C   0.03795902893699      7.09942164575698      0.00139585983271
C   0.03033258741920      5.66948955970466     -0.00408752508301
C   -1.20098450790502      4.96927034791531      0.00488220885047
C   1.27795782581485      7.77285944319479      0.00277170839332
C   2.48535808472416      7.08769688523756      0.00049722048857
C   2.48612868491717      5.65477081024076     -0.00644052849921
C   1.25408291964399      4.95607811366431      0.00518741308898
C   3.75171459140595      7.76391215098033      0.00062407186893
C   4.92356605618520      7.07878077698995     -0.00143240883900
C   4.95560727132542      5.64344746336949     -0.00159282164606
C   3.70680153420475      4.94121020833308      0.00349873852374
H   -3.65852113775815      8.89082741913536      0.00358502958574
H   -1.18921332975660      8.87412108735996      0.00753844057883
H   1.28429423888630      8.86083343548850      0.00693053253426
H   3.75354208679975      8.85103527897216      0.00214659618464
H   5.86995870320703      7.61379483465560     -0.00235777588134
H   -5.78823170750226      7.67630221293400     -0.00202638095293
C   -6.09197395869619      4.99326001364347     -0.00291168518608
C   -6.12866148031747      3.58258016879823     -0.00171050815740
C   -3.66457974004527      3.56418217974434     -0.00463560277484
C   -4.89429820469869      2.86108077590057      0.00453338221034
C   -2.43733499489796      2.84761165708481      0.00719617576166
C   -1.20922785759670      3.54788693497833     -0.00648285103018
C   1.24714157216223      3.53468075142962     -0.00729145743546
C   0.01517603956900      2.83311183930540      0.00439272578912
C   2.46764517244071      2.82128997725533      0.00449278391269
C   3.70254947457969      3.52466015442405     -0.00899517692985
C   6.14498038638375      4.92757236613191     -0.00282626685777
C   6.16658835886151      3.51658447594213     -0.00065971342101
C   4.92460995845939      2.80840792535402      0.00587903281610
H   7.08990550964105      5.46688776622306     -0.00658814770723
H   -7.03104175110130      5.54268795285765     -0.00714490013730
C   -7.33969804112295      2.85841153457957     -0.00333767559888
C   -7.36488195805880      1.47032337158330     -0.00157213747140
C   -4.90350460894690      1.44442681216000     -0.00628840166334
C   -6.13225715261081      0.73993935705394      0.00600164231964
C   -3.67687480051673      0.72669714267312      0.00433931473643
C   -2.44565658606518      1.42964113326212     -0.00597039546461
C   -1.22360068130162      0.71532450163492      0.00545886906656
C   0.00763786931376      1.41738314923765      0.00392452278437
C   1.23121980774686      0.70211669058719     -0.01490206287210
C   2.46082110053113      1.40329203612573      0.00460244601878
C   3.68443025419614      0.68719842821222      0.00377365974158
C   4.91870890153864      1.39173456118907     -0.00862816189375
C   7.36980207796101      2.77948220318441     -0.00242013321349
C   7.38016266612146      1.39121750785509     -0.00087345036788
C   6.13979953912259      0.67411862320065      0.00545489144369
H   -8.27919079934664      3.40711804112415     -0.00763522772059
H   8.31511347147953      3.31811809662368     -0.00663070901292
C   -8.59175593758115      0.72483255304480     -0.00123170985383
C   -8.59902460370342     -0.63263980622873      0.00089141472904
C   -6.13981313911873     -0.67413663715361     -0.00609792660607
C   -7.38018411213749     -1.39126618958160      0.00131813493501
C   -4.91868448025621     -1.39175501803000      0.00624257154343
C   -3.68443829568458     -0.68723731573599     -0.00478966852105
C   -2.46081704024768     -1.40334517882457      0.00575341766833
C   -1.23116201232071     -0.70217386488055     -0.00636696112346
C   -0.00756962538737     -1.41741884941102      0.00108956317991
C   1.22364771588843     -0.71527537726392      0.01109518512883
C   2.44567064933149     -1.42964328900682     -0.00065482763106
C   3.67686670284649     -0.72670743155550     -0.00479541202602
C   6.13224884641929     -0.73997883984993     -0.00632338623858
C   4.90351914550401     -1.44445752054090      0.00751768830159
C   8.59901484869081      0.63260386666793     -0.00101133422380
C   8.59174548810050     -0.72485086719319      0.00072504603735
C   7.36486276438985     -1.47033266560598      0.00049486934466
H   -9.52830597181814      1.27684744919284     -0.00270163681798
H   9.54141097460619      1.17457248844457     -0.00206336648518
C   -7.36983790976868     -2.77954514593389      0.00312634335708
C   -4.92459910905015     -2.80843725734101     -0.00460528907921
C   -6.16662249566744     -3.51665219282533      0.00169655107992
C   -3.70251035970491     -3.52468154912026      0.00571878010666
C   -2.46764698511392     -2.82132596280400     -0.00632585824990
C   -0.01513347410770     -2.83314164539971     -0.00604426974092
C   -1.24712184122656     -3.53473217556300      0.00551968366725
C   1.20924506964357     -3.54791467864352      0.00805871345849
C   2.43733602215464     -2.84764173817541     -0.00608104485234
C   4.89430234377080     -2.86112296828604     -0.00526030478103
C   3.66461525504104     -3.56421984553201      0.00761911515957
C   6.12863901474565     -3.58258405771778      0.00096495711699
C   7.33967266469532     -2.85841330737039      0.00248018319869
H   -9.54144911125902     -1.17456346666430      0.00226083090216
H   9.52826186807155     -1.27691907390448      0.00197485379837
H   -8.31516504384864     -3.31814985321231      0.00729857188773
H   8.27915514249207     -3.40714078989363      0.00681973918158
C   -6.14499418870218     -4.92764727278338      0.00302254913999
C   -3.70678334799751     -4.94126171411716     -0.00679841894792
C   -4.95559005800169     -5.64349397349412      0.00116871569699
C   -2.48612132622665     -5.65478557440947      0.00614125209662
C   -1.25405833548005     -4.95612205000132     -0.00503435388927
C   1.20101257386816     -4.96928038819302     -0.00385322963129
C   -0.03033667441341     -5.66952030313900      0.00398997003238
C   3.65375010132847     -4.98074377541453     -0.00309522988330
C   2.42549269587528     -5.68117463552727      0.00628170066869
C   6.09196561781097     -4.99325796338655      0.00325918379042
C   4.89497644461045     -5.69634842095790      0.00202298796027
H   -7.08989238804069     -5.46699984223871      0.00742531082125
H   7.03105520920009     -5.54265853633254      0.00683896355417
C   -4.92354532219813     -7.07882109967734      0.00061394679214
C   -2.48534208823777     -7.08772807792913     -0.00189594564379
C   -3.75168589177895     -7.76394715763627     -0.00170126671874
C   -0.03794895698805     -7.09946487446944     -0.00168022049625
C   -1.27795610040136     -7.77290438466689     -0.00366491325785
C   2.40944432072629     -7.11402201200282     -0.00081701968533
C   1.19474993715296     -7.78618536556242     -0.00296931056689
C   4.84762105249800     -7.13126211057943      0.00168979497423
C   3.66847160587561     -7.80378799294376     -0.00065863938960
H   -5.86994035041618     -7.61383059804164      0.00215798365757
H   5.78824962538815     -7.67633218931421      0.00281691445618
H   -3.75352693944918     -8.85107156923607     -0.00353718114765
H   -1.28430440589466     -8.86087539249706     -0.00809229711623
H   1.18922157469537     -8.87416062058945     -0.00706194725726
H   3.65854661482387     -8.89086063405326     -0.00231318081200

    units angstrom      # Angstroms are the default
    no_reorient         # Geometry fixed, default
    symmetry c1         # C1 symmetry, default
}

set {
    scf_type DF         # Density fitting, faster than exact integrals
    freeze_core True    # Freeze core electrons
    basis jun-cc-pVDZ   # Jun-cc-pVDZ basis set, recommended for sSAPT0 in https://doi.org/10.1063/1.4867135
}

energy('ssapt0')        # Compute sSAPT0 energy, includes also SAPT0
--------------------------------------------------------------------------

  //              Dimer HF             //
    Molecular point group: c1
  Charge       = 1
  Multiplicity = 1
  Basis Set: JUN-CC-PVDZ
    Blend: JUN-CC-PVDZ
  Basis Set: (JUN-CC-PVDZ AUX)
    Blend: JUN-CC-PVDZ-JKFIT
  @DF-RHF Final Energy: -3953.66102195833355
    Total Energy =                      -3953.6610219583344588
 Dipole X            :          0.0019376            0.0004804            0.0024180
 Dipole Y            :         -1.6091493            1.8866171            0.2774678
 Dipole Z            :        -18.8790097           24.2362734            5.3572637
 Magnitude           :                                                    5.3644449
  //            Monomer A HF           //
    Molecular point group: c1
  Multiplicity = 1
  Basis Set: JUN-CC-PVDZ
    Blend: JUN-CC-PVDZ
  Basis Set: (JUN-CC-PVDZ AUX)
    Blend: JUN-CC-PVDZ-JKFIT
  @DF-RHF Final Energy:  -303.29861794512709
    Total Energy =                       -303.2986179451270914
  //            Monomer B HF           //
    Molecular point group: c1

    Geometry (in Angstrom), charge = 0, multiplicity = 1:

       Center              X                  Y                   Z               Mass
    ------------   -----------------  -----------------  -----------------  -----------------
      Gh(C)           0.680062820275    -1.215917226251     3.703069786609    12.000000000000
      Gh(C)          -0.680508179725    -1.215533226251     3.701041786609    12.000000000000
      Gh(N)          -1.085639179725     0.102790773749     3.700043786609    14.003074004430
      Gh(C)           0.000103820275     0.884191773749     3.696767786609    12.000000000000
      Gh(C)          -2.477369179725     0.570769773749     3.650637786609    12.000000000000
      Gh(N)           1.085217820275     0.102790773749     3.700043786609    14.003074004430
      Gh(H)           1.385141820275    -2.033356226251     3.710897786609     1.007825032230
      Gh(H)          -1.385306179725    -2.033202226251     3.701231786609     1.007825032230
      Gh(H)          -0.000013179725     1.965280773749     3.695020786609     1.007825032230
      Gh(C)           2.478112820275     0.567888773749     3.716935786609    12.000000000000
      Gh(H)           2.490587820275     1.658141773750     3.689590786609     1.007825032230
      Gh(H)           2.967023820275     0.220712773749     4.630381786609     1.007825032230
      Gh(H)           3.001423820275     0.176416773749     2.841452786609     1.007825032230
      Gh(H)          -2.857363179725     0.490810773749     2.628566786609     1.007825032230
      Gh(H)          -3.082683179725    -0.042294226251     4.320721786609     1.007825032230
      Gh(H)          -2.518132179725     1.610717773749     3.977621786609     1.007825032230
         C           -3.668445443746     7.803763943832    -0.303072172055    12.000000000000
         C           -4.847602899072     7.131253605090    -0.305438746988    12.000000000000
         C           -4.894963478901     5.696342177281    -0.306011658086    12.000000000000
         C           -3.653744858499     4.980742114708    -0.298351216357    12.000000000000
         C           -2.409429301220     7.113992810424    -0.302877829795    12.000000000000
         C           -2.425481523830     5.681133724653    -0.309882718665    12.000000000000
         C           -1.194748196161     7.786155968059    -0.301405649253    12.000000000000
         C            0.037954849212     7.099433419506    -0.303576353558    12.000000000000
         C            0.030328407694     5.669501333454    -0.309059738474    12.000000000000
         C           -1.200988687630     4.969282121665    -0.300090004541    12.000000000000
         C            1.277953646089     7.772871216944    -0.302200504998    12.000000000000
         C            2.485353904999     7.087708658987    -0.304474992902    12.000000000000
         C            2.486124505192     5.654782583990    -0.311412741890    12.000000000000
         C            1.254078739919     4.956089887414    -0.299784800302    12.000000000000
         C            3.751710411681     7.763923924730    -0.304348141522    12.000000000000
         C            4.923561876460     7.078792550739    -0.306404622230    12.000000000000
         C            4.955603091600     5.643459237119    -0.306565035037    12.000000000000
         C            3.706797354479     4.941221982083    -0.301473474867    12.000000000000
         H           -3.658525317484     8.890839192885    -0.301387183805     1.007825032230
         H           -1.189217509482     8.874132861109    -0.297433772812     1.007825032230
         H            1.284290059161     8.860845209238    -0.298041680857     1.007825032230
         H            3.753537907074     8.851047052722    -0.302825617206     1.007825032230
         H            5.869954523482     7.613806608405    -0.307329989272     1.007825032230
         H           -5.788235887228     7.676313986684    -0.306998594344     1.007825032230
         C           -6.091978138422     4.993271787393    -0.307883898577    12.000000000000
         C           -6.128665660043     3.582591942548    -0.306682721548    12.000000000000
         C           -3.664583919771     3.564193953494    -0.309607816166    12.000000000000
         C           -4.894302384424     2.861092549650    -0.300438831181    12.000000000000
         C           -2.437339174623     2.847623430834    -0.297776037629    12.000000000000
         C           -1.209232037322     3.547898708728    -0.311455064421    12.000000000000
         C            1.247137392437     3.534692525179    -0.312263670826    12.000000000000
         C            0.015171859844     2.833123613055    -0.300579487602    12.000000000000
         C            2.467640992715     2.821301751005    -0.300479429478    12.000000000000
         C            3.702545294854     3.524671928174    -0.313967390321    12.000000000000
         C            6.144976206658     4.927584139881    -0.307798480249    12.000000000000
         C            6.166584179136     3.516596249692    -0.305631926812    12.000000000000
         C            4.924605778734     2.808419699104    -0.299093180575    12.000000000000
         H            7.089901329916     5.466899539973    -0.311560361098     1.007825032230
         H           -7.031045930827     5.542699726607    -0.312117113528     1.007825032230
         C           -7.339702220848     2.858423308329    -0.308309888990    12.000000000000
         C           -7.364886137784     1.470335145333    -0.306544350862    12.000000000000
         C           -4.903508788672     1.444438585909    -0.311260615054    12.000000000000
         C           -6.132261332336     0.739951130803    -0.298970571071    12.000000000000
         C           -3.676878980242     0.726708916423    -0.300632898655    12.000000000000
         C           -2.445660765791     1.429652907012    -0.310942608856    12.000000000000
         C           -1.223604861027     0.715336275384    -0.299513344324    12.000000000000
         C            0.007633689588     1.417394922987    -0.301047690607    12.000000000000
         C            1.231215628021     0.702128464337    -0.319874276263    12.000000000000
         C            2.460816920806     1.403303809875    -0.300369767372    12.000000000000
         C            3.684426074471     0.687210201962    -0.301198553649    12.000000000000
         C            4.918704721813     1.391746334939    -0.313600375285    12.000000000000
         C            7.369797898236     2.779493976934    -0.307392346605    12.000000000000
         C            7.380158486396     1.391229281605    -0.305845663759    12.000000000000
         C            6.139795359397     0.674130396950    -0.299517321947    12.000000000000
         H           -8.279194979072     3.407129814874    -0.312607441112     1.007825032230
         H            8.315109291754     3.318129870373    -0.311602922404     1.007825032230
         C           -8.591760117307     0.724844326794    -0.306203923245    12.000000000000
         C           -8.599028783429    -0.632628032479    -0.304080798662    12.000000000000
         C           -6.139817318844    -0.674124863404    -0.311070139997    12.000000000000
         C           -7.380188291863    -1.391254415832    -0.303654078456    12.000000000000
         C           -4.918688659982    -1.391743244281    -0.298729641848    12.000000000000
         C           -3.684442475410    -0.687225541986    -0.309761881912    12.000000000000
         C           -2.460821219973    -1.403333405075    -0.299218795723    12.000000000000
         C           -1.231166192046    -0.702162091131    -0.311339174514    12.000000000000
         C           -0.007573805113    -1.417407075662    -0.303882650211    12.000000000000
         C            1.223643536163    -0.715263603514    -0.293877028262    12.000000000000
         C            2.445666469606    -1.429631515257    -0.305627041022    12.000000000000
         C            3.676862523121    -0.726695657806    -0.309767625417    12.000000000000
         C            6.132244666694    -0.739967066100    -0.311295599630    12.000000000000
         C            4.903514965779    -1.444445746791    -0.297454525089    12.000000000000
         C            8.599010668965     0.632615640417    -0.305983547615    12.000000000000
         C            8.591741308375    -0.724839093444    -0.304247167354    12.000000000000
         C            7.364858584664    -1.470320891856    -0.304477344046    12.000000000000
         H           -9.528310151544     1.276859222942    -0.307673850209     1.007825032230
         H            9.541406794881     1.174584262194    -0.307035579876     1.007825032230
         C           -7.369842089494    -2.779533372184    -0.301845870034    12.000000000000
         C           -4.924603288776    -2.808425483592    -0.309577502470    12.000000000000
         C           -6.166626675393    -3.516640419076    -0.303275662311    12.000000000000
         C           -3.702514539430    -3.524669775371    -0.299253433284    12.000000000000
         C           -2.467651164839    -2.821314189055    -0.311298071641    12.000000000000
         C           -0.015137653833    -2.833129871650    -0.311016483132    12.000000000000
         C           -1.247126020952    -3.534720401814    -0.299452529724    12.000000000000
         C            1.209240889918    -3.547902904894    -0.296913499933    12.000000000000
         C            2.437331842429    -2.847629964426    -0.311053258243    12.000000000000
         C            4.894298164045    -2.861111194537    -0.310232518172    12.000000000000
         C            3.664611075316    -3.564208071783    -0.297353098231    12.000000000000
         C            6.128634835020    -3.582572283968    -0.304007256274    12.000000000000
         C            7.339668484970    -2.858401533621    -0.302492030192    12.000000000000
         H           -9.541453290984    -1.174551692915    -0.302711382489     1.007825032230
         H            9.528257688346    -1.276907300155    -0.302997359593     1.007825032230
         H           -8.315169223574    -3.318138079463    -0.297673641503     1.007825032230
         H            8.279150962767    -3.407129016144    -0.298152474209     1.007825032230
         C           -6.144998368428    -4.927635499034    -0.301949664251    12.000000000000
         C           -3.706787527723    -4.941249940368    -0.311770632339    12.000000000000
         C           -4.955594237727    -5.643482199745    -0.303803497694    12.000000000000
         C           -2.486125505952    -5.654773800660    -0.298830961294    12.000000000000
         C           -1.254062515205    -4.956110276252    -0.310006567280    12.000000000000
         C            1.201008394143    -4.969268614444    -0.308825443022    12.000000000000
         C           -0.030340854139    -5.669508529390    -0.300982243359    12.000000000000
         C            3.653745921603    -4.980732001665    -0.308067443274    12.000000000000
         C            2.425488516150    -5.681162861778    -0.298690512722    12.000000000000
         C            6.091961438086    -4.993246189637    -0.301713029601    12.000000000000
         C            4.894972264885    -5.696336647208    -0.302949225431    12.000000000000
         H           -7.089896567766    -5.466988068489    -0.297546902570     1.007825032230
         H            7.031051029475    -5.542646762583    -0.298133249837     1.007825032230
         C           -4.923549501924    -7.078809325928    -0.304358266599    12.000000000000
         C           -2.485346267963    -7.087716304180    -0.306868159035    12.000000000000
         C           -3.751690071504    -7.763935383887    -0.306673480110    12.000000000000
         C           -0.037953136713    -7.099453100720    -0.306652433887    12.000000000000
         C           -1.277960280127    -7.772892610917    -0.308637126649    12.000000000000
         C            2.409440141001    -7.114010238253    -0.305789233076    12.000000000000
         C            1.194745757428    -7.786173591813    -0.307941523958    12.000000000000
         C            4.847616872773    -7.131250336830    -0.303282418417    12.000000000000
         C            3.668467426150    -7.803776219194    -0.305630852781    12.000000000000
         H           -5.869944530142    -7.613818824292    -0.302814229733     1.007825032230
         H            5.788245445663    -7.676320415565    -0.302155298935     1.007825032230
         H           -3.753531119175    -8.851059795487    -0.308509394539     1.007825032230
         H           -1.284308585620    -8.860863618748    -0.313064510507     1.007825032230
         H            1.189217394970    -8.874148846840    -0.312034160648     1.007825032230
         H            3.658542435098    -8.890848860304    -0.307285394203     1.007825032230

  Charge       = 0
  Multiplicity = 1
  Basis Set: JUN-CC-PVDZ
    Blend: JUN-CC-PVDZ
  Basis Set: (JUN-CC-PVDZ AUX)
    Blend: JUN-CC-PVDZ-JKFIT

    Orbital Energies [Eh]
    ---------------------

    Doubly Occupied:

       1A    -11.264038     2A    -11.263711     3A    -11.263673
       4A    -11.263322     5A    -11.263312     6A    -11.263242
       7A    -11.263130     8A    -11.263115     9A    -11.263076
      10A    -11.262886    11A    -11.262762    12A    -11.262736
      13A    -11.262259    14A    -11.262249    15A    -11.262216
      16A    -11.262186    17A    -11.262103    18A    -11.262081
      19A    -11.262041    20A    -11.261994    21A    -11.261989
      22A    -11.261875    23A    -11.261870    24A    -11.261720
      25A    -11.261712    26A    -11.261689    27A    -11.261686
      28A    -11.261644    29A    -11.261637    30A    -11.261543
      31A    -11.261523    32A    -11.261521    33A    -11.261508
      34A    -11.261502    35A    -11.261486    36A    -11.261476
      37A    -11.261295    38A    -11.261286    39A    -11.261280
      40A    -11.261276    41A    -11.261264    42A    -11.261261
      43A    -11.261249    44A    -11.261235    45A    -11.261228
      46A    -11.261205    47A    -11.261201    48A    -11.261194
      49A    -11.261049    50A    -11.261027    51A    -11.260996
      52A    -11.260958    53A    -11.260916    54A    -11.260875
      55A    -11.259869    56A    -11.259858    57A    -11.259849
      58A    -11.259825    59A    -11.259818    60A    -11.259804
      61A    -11.259242    62A    -11.259218    63A    -11.259211
      64A    -11.259163    65A    -11.259157    66A    -11.259129
      67A    -11.258870    68A    -11.258854    69A    -11.258848
      70A    -11.258825    71A    -11.258818    72A    -11.258807
      73A    -11.254495    74A    -11.254495    75A    -11.254490
      76A    -11.254487    77A    -11.254481    78A    -11.254479
      79A    -11.253620    80A    -11.253615    81A    -11.253606
      82A    -11.253604    83A    -11.253602    84A    -11.253601
      85A    -11.253535    86A    -11.253531    87A    -11.253521
      88A    -11.253519    89A    -11.253517    90A    -11.253516
      91A    -11.253023    92A    -11.253023    93A    -11.253018
      94A    -11.253015    95A    -11.253009    96A    -11.253006
      97A     -1.253851    98A     -1.238930    99A     -1.238904
     100A     -1.220397   101A     -1.220389   102A     -1.215356
     103A     -1.200983   104A     -1.195540   105A     -1.188068
     106A     -1.188049   107A     -1.173707   108A     -1.173704
     109A     -1.155549   110A     -1.155546   111A     -1.152630
     112A     -1.144667   113A     -1.144666   114A     -1.128495
     115A     -1.114632   116A     -1.113107   117A     -1.112409
     118A     -1.112381   119A     -1.111567   120A     -1.088355
     121A     -1.088341   122A     -1.076909   123A     -1.076907
     124A     -1.067542   125A     -1.067505   126A     -1.064888
     127A     -1.046734   128A     -1.046723   129A     -1.040410
     130A     -1.038684   131A     -1.038679   132A     -1.025156
     133A     -1.021297   134A     -1.021235   135A     -1.007114
     136A     -1.006733   137A     -1.003730   138A     -1.000412
     139A     -1.000358   140A     -0.991026   141A     -0.970914
     142A     -0.970861   143A     -0.955825   144A     -0.955767
     145A     -0.905500   146A     -0.905490   147A     -0.905457
     148A     -0.905456   149A     -0.904229   150A     -0.892268
     151A     -0.892210   152A     -0.890275   153A     -0.890222
     154A     -0.889372   155A     -0.872159   156A     -0.869013
     157A     -0.851474   158A     -0.847777   159A     -0.847763
     160A     -0.845510   161A     -0.842933   162A     -0.834488
     163A     -0.834477   164A     -0.828065   165A     -0.828056
     166A     -0.784481   167A     -0.784473   168A     -0.783579
     169A     -0.783564   170A     -0.782209   171A     -0.782188
     172A     -0.781947   173A     -0.766918   174A     -0.760697
     175A     -0.750489   176A     -0.733427   177A     -0.727005
     178A     -0.726971   179A     -0.725001   180A     -0.724473
     181A     -0.724443   182A     -0.718399   183A     -0.713684
     184A     -0.713678   185A     -0.699510   186A     -0.699487
     187A     -0.686028   188A     -0.685891   189A     -0.685883
     190A     -0.682101   191A     -0.682096   192A     -0.678701
     193A     -0.653556   194A     -0.650800   195A     -0.650767
     196A     -0.649716   197A     -0.649711   198A     -0.649502
     199A     -0.640845   200A     -0.640799   201A     -0.640017
     202A     -0.639098   203A     -0.635942   204A     -0.635908
     205A     -0.629062   206A     -0.617725   207A     -0.615242
     208A     -0.615216   209A     -0.608729   210A     -0.608722
     211A     -0.599124   212A     -0.599091   213A     -0.598664
     214A     -0.598509   215A     -0.598495   216A     -0.597947
     217A     -0.595001   218A     -0.594988   219A     -0.594646
     220A     -0.594130   221A     -0.591874   222A     -0.591870
     223A     -0.587290   224A     -0.577745   225A     -0.577729
     226A     -0.575673   227A     -0.575668   228A     -0.573307
     229A     -0.569553   230A     -0.568054   231A     -0.568027
     232A     -0.566672   233A     -0.566664   234A     -0.560859
     235A     -0.558640   236A     -0.558600   237A     -0.558371
     238A     -0.554290   239A     -0.550535   240A     -0.547420
     241A     -0.544229   242A     -0.534999   243A     -0.534970
     244A     -0.533462   245A     -0.533447   246A     -0.528010
     247A     -0.527994   248A     -0.527692   249A     -0.517077
     250A     -0.517047   251A     -0.515314   252A     -0.515309
     253A     -0.509572   254A     -0.509561   255A     -0.497949
     256A     -0.496377   257A     -0.496338   258A     -0.493770
     259A     -0.493739   260A     -0.489400   261A     -0.481382
     262A     -0.477372   263A     -0.477372   264A     -0.473919
     265A     -0.469346   266A     -0.466437   267A     -0.466435
     268A     -0.458763   269A     -0.446573   270A     -0.446521
     271A     -0.440983   272A     -0.440732   273A     -0.440695
     274A     -0.434643   275A     -0.433856   276A     -0.407324
     277A     -0.407302   278A     -0.386357   279A     -0.386296
     280A     -0.385682   281A     -0.385680   282A     -0.383702
     283A     -0.354269   284A     -0.354243   285A     -0.350611
     286A     -0.338045   287A     -0.335539   288A     -0.335489
     289A     -0.332663   290A     -0.332657   291A     -0.307007
     292A     -0.301884   293A     -0.301816   294A     -0.300783
     295A     -0.286114   296A     -0.256429   297A     -0.253433
     298A     -0.253386   299A     -0.204206   300A     -0.204119

  @DF-RHF Final Energy: -3650.34128140720213

   => Energetics <=

    Nuclear Repulsion Energy =          15611.4211649754324753
    One-Electron Energy =              -36072.1836039432237158
    Two-Electron Energy =               16810.4211575605877442
    Total Energy =                      -3650.3412814072034962
 Dipole X            :         -0.0001849            0.0002112            0.0000263
 Dipole Y            :          0.0043316           -0.0044281           -0.0000965
 Dipole Z            :        345.7762875         -345.7849836           -0.0086962
 Magnitude           :                                                    0.0086967

    SAPT Results
  --------------------------------------------------------------------------------------------------------
    Electrostatics                -13.74640913 [mEh]      -8.62600196 [kcal/mol]     -36.09119219 [kJ/mol]
      Elst10,r                    -13.74640913 [mEh]      -8.62600196 [kcal/mol]     -36.09119219 [kJ/mol]

    Exchange                        3.80910731 [mEh]       2.39025092 [kcal/mol]      10.00080986 [kJ/mol]
      Exch10                        3.80910731 [mEh]       2.39025092 [kcal/mol]      10.00080986 [kJ/mol]
      Exch10(S^2)                   3.80769743 [mEh]       2.38936621 [kcal/mol]       9.99710821 [kJ/mol]

    Induction                     -11.18530418 [mEh]      -7.01888434 [kcal/mol]     -29.36701209 [kJ/mol]
      Ind20,r                     -11.40482727 [mEh]      -7.15663716 [kcal/mol]     -29.94336987 [kJ/mol]
      Exch-Ind20,r                  0.96831895 [mEh]       0.60762931 [kcal/mol]       2.54232105 [kJ/mol]
      delta HF,r (2)               -0.74879586 [mEh]      -0.46987650 [kcal/mol]      -1.96596327 [kJ/mol]

    Dispersion                    -18.62645153 [mEh]     -11.68827480 [kcal/mol]     -48.90374176 [kJ/mol]
      Disp20                      -19.17211969 [mEh]     -12.03068674 [kcal/mol]     -50.33639332 [kJ/mol]
      Exch-Disp20                   0.54566816 [mEh]       0.34241194 [kcal/mol]       1.43265156 [kJ/mol]
      Disp20 (SS)                  -9.58605985 [mEh]      -6.01534337 [kcal/mol]     -25.16819666 [kJ/mol]
      Disp20 (OS)                  -9.58605985 [mEh]      -6.01534337 [kcal/mol]     -25.16819666 [kJ/mol]
      Exch-Disp20 (SS)              0.34592894 [mEh]       0.21707369 [kcal/mol]       0.90823632 [kJ/mol]
      Exch-Disp20 (OS)              0.19973922 [mEh]       0.12533825 [kcal/mol]       0.52441524 [kJ/mol]

  Total HF                        -21.12260600 [mEh]     -13.25463538 [kcal/mol]     -55.45739442 [kJ/mol]
  Total SAPT0                     -39.74905754 [mEh]     -24.94291018 [kcal/mol]    -104.36113618 [kJ/mol]

  Special recipe for scaled SAPT0 (see Manual):
    Electrostatics sSAPT0         -13.74640913 [mEh]      -8.62600196 [kcal/mol]     -36.09119219 [kJ/mol]
    Exchange sSAPT0                 3.80910731 [mEh]       2.39025092 [kcal/mol]      10.00080986 [kJ/mol]
    Induction sSAPT0              -11.18422816 [mEh]      -7.01820913 [kcal/mol]     -29.36418700 [kJ/mol]
    Dispersion sSAPT0             -18.62584517 [mEh]     -11.68789430 [kcal/mol]     -48.90214976 [kJ/mol]
  Total sSAPT0                    -39.74737515 [mEh]     -24.94185447 [kcal/mol]    -104.35671909 [kJ/mol]
  --------------------------------------------------------------------------------------------------------

*** Psi4 exiting successfully. Buy a developer a beer!
