                               Psi4 1.9 release

  ==> Input File <==

--------------------------------------------------------------------------
memory 48 GB # how much memory is available ! Depends on the nodes/cores !

molecule dimer {
# monomer A
+1 1    # Charge and multiplicity
C  0.680067 -1.215929 3.308042
C -0.680504 -1.215545 3.306014
N -1.085635  0.102779 3.305016
C  0.000108  0.884180 3.301740
C -2.477365  0.570758 3.255610
N  1.085222  0.102779 3.305016
H  1.385146 -2.033368 3.315870
H -1.385302 -2.033214 3.306204
H -0.000009  1.965269 3.299993
C  2.478117  0.567877 3.321908
H  2.490592  1.658130 3.294563
H  2.967028  0.220701 4.235354
H  3.001428  0.176405 2.446425
H -2.857359  0.490799 2.233539
H -3.082679 -0.042306 3.925694
H -2.518128  1.610706 3.582594
--
# monomer B
0 1     # Charge and multiplicity
C   1.22531237526482      0.70753866091955      0.00613762728373
C   1.22532433589282     -0.70753852257020     -0.00619318228664
C   -0.00000567409046      1.41496628609039     -0.00672680580738
C   2.45644923379077      1.41832825917820      0.00902448468363
C   0.00001130712078     -1.41497612663474      0.00347275151708
C   -1.22530046906674      0.70754574598412      0.00838914760619
C   2.45643823516184     -1.41832293188077     -0.00843833914343
C   -0.00000085313587      2.83680140328112     -0.00913035594137
C   3.68182717731192      0.70931832800114     -0.00808954934571
C   2.45512052870677      2.83422403348893     -0.00819210630633
C   3.68182158506039     -0.70933346742900      0.00798293467272
C   -1.22531311884624     -0.70752714354401     -0.00512042085974
C   1.22670006104402      3.54346985599427      0.00816696660346
C   0.00000526469929     -2.83678176723568      0.00832091913869
C   -2.45643555300670      1.41831729028492      0.00842454345199
C   2.45512389762097     -2.83422965658853      0.00783102630520
C   -1.22671388474763      3.54346943575023      0.00827029982280
C   4.91451777504333      1.42717324448953     -0.00160886631602
C   3.69315067131765      3.54279566454522     -0.00155906667985
C   -2.45643712022637     -1.41831290883911     -0.00846337726810
C   1.22670532178455     -3.54347386990643     -0.00780316414624
C   -2.45512491866593      2.83421703463423     -0.00818572995999
C   4.91452486062398     -1.42718653794377      0.00136387641845
C   1.22142509354026      4.97013443726031      0.00150231067809
C   4.89300870916237      2.82518837202648     -0.00039219795739
C   -1.22669652864725     -3.54347062507680     -0.00753595973677
C   -3.68181849668397      0.70932533873199     -0.00807686886569
C   3.69314758099218     -3.54280096939050      0.00148176697923
C   -1.22143177215231      4.97012866986289      0.00168580605083
C   6.13477145276790      0.68054831910577     -0.00083909176631
C   3.65678936045204      4.97295361556775     -0.00065042889723
C   -2.45512642789169     -2.83421472106065      0.00758666850712
C   -3.68181869921921     -0.70932533146830      0.00810055625144
C   4.89301309775526     -2.82519973363176      0.00021895393805
C   -0.00000059327114      5.65044773803267      0.00045449734393
C   6.13477559217374     -0.68055448207492      0.00042622874941
C   2.47813196269732      5.65357712333155      0.00063835075260
C   1.22142288457925     -4.97012668293268     -0.00129718634452
C   -3.69316190412301      3.54279732619245     -0.00139355922051
C   -1.22142804110313     -4.97011793159564     -0.00140994817719
C   -4.91452132810043      1.42717581899491     -0.00153192130862
C   3.65678749952045     -4.97295485423912      0.00080007163680
C   -2.47813805026426      5.65357479452875      0.00092287576113
C   -3.69314125872231     -3.54278984697859      0.00136564082345
C   -4.91451200321153     -1.42718062802730      0.00139857359209
C   -0.00000552908399     -5.65043791501335      0.00005899322272
C   -4.89302000425900      2.82518897091939     -0.00040227981744
C   2.47812647313991     -5.65357317188818     -0.00029052915548
C   -3.65679823041642      4.97295655404175     -0.00047374852278
C   -4.89299899901461     -2.82519139505969      0.00006491824035
C   -2.47812801824129     -5.65356579800621     -0.00056571680280
C   -6.13477002348955      0.68054913825639     -0.00086464346868
C   -3.65678835334731     -4.97294365097028      0.00058578382008
C   -6.13476456307132     -0.68055354348201      0.00040575295444
H   5.83528897565761      3.36927626695423      0.00396712770529
H   7.07385965258860      1.22821762089947     -0.00037744837300
H   4.60066374401555      5.51238117445323     -0.00014522814529
H   5.83528386714679     -3.36930568472863     -0.00423551337640
H   -0.00001167146422      6.73853104613662     -0.00389474766392
H   7.07386165167227     -1.22822657074368     -0.00008250934481
H   2.47331421164041      6.74068466339473      0.00017162982210
H   4.60066897122302     -5.51237575717576      0.00039007446835
H   -2.47331820069565      6.74068209160650      0.00047297644710
H   -0.00000978838621     -6.73852780445195      0.00458867820736
H   -5.83530143450167      3.36927132229595      0.00410314985360
H   2.47330840367253     -6.74068500242887      0.00027980126949
H   -4.60067436136587      5.51237839860371      0.00002010017831
H   -5.83527902699321     -3.36928859177951     -0.00451481925734
H   -2.47329986759855     -6.74067870613986     -0.00016951527498
H   -7.07385728692578      1.22822084484047     -0.00046143985387
H   -4.60067330624313     -5.51236229778631      0.00021776644566
H   -7.07385645456741     -1.22822025997701     -0.00017736581114

    units angstrom      # Angstroms are the default
    no_reorient         # Geometry fixed, default
    symmetry c1         # C1 symmetry, default
}

set {
    scf_type DF         # Density fitting, faster than exact integrals
    freeze_core True    # Freeze core electrons
    basis jun-cc-pVDZ   # Jun-cc-pVDZ basis set, recommended for sSAPT0 in https://doi.org/10.1063/1.4867135
}

energy('ssapt0')        # Compute sSAPT0 energy, includes also SAPT0
--------------------------------------------------------------------------

  //              Dimer HF             //
    Molecular point group: c1
  Charge       = 1
  Multiplicity = 1
  Basis Set: JUN-CC-PVDZ
    Blend: JUN-CC-PVDZ
  Basis Set: (JUN-CC-PVDZ AUX)
    Blend: JUN-CC-PVDZ-JKFIT
  @DF-RHF Final Energy: -2359.20133325467941
    Total Energy =                      -2359.2013332546794118
 Dipole X            :          0.0033317            0.0006313            0.0039630
 Dipole Y            :         -1.6139103            1.8864948            0.2725845
 Dipole Z            :        -13.3673979           17.1459377            3.7785398
 Magnitude           :                                                    3.7883613
  //            Monomer A HF           //
    Molecular point group: c1
  Multiplicity = 1
  Basis Set: JUN-CC-PVDZ
    Blend: JUN-CC-PVDZ
  Basis Set: (JUN-CC-PVDZ AUX)
    Blend: JUN-CC-PVDZ-JKFIT
  @DF-RHF Final Energy:  -303.29922303103785
    Total Energy =                       -303.2992230310378545
  //            Monomer B HF           //
    Molecular point group: c1

    Geometry (in Angstrom), charge = 0, multiplicity = 1:

       Center              X                  Y                   Z               Mass
    ------------   -----------------  -----------------  -----------------  -----------------
      Gh(C)           0.680066520158    -1.215933861162     2.888304428043    12.000000000000
      Gh(C)          -0.680504479842    -1.215549861162     2.886276428043    12.000000000000
      Gh(N)          -1.085635479842     0.102774138838     2.885278428043    14.003074004430
      Gh(C)           0.000107520158     0.884175138838     2.882002428043    12.000000000000
      Gh(C)          -2.477365479842     0.570753138838     2.835872428043    12.000000000000
      Gh(N)           1.085221520158     0.102774138838     2.885278428043    14.003074004430
      Gh(H)           1.385145520158    -2.033372861162     2.896132428043     1.007825032230
      Gh(H)          -1.385302479842    -2.033218861162     2.886466428043     1.007825032230
      Gh(H)          -0.000009479842     1.965264138838     2.880255428043     1.007825032230
      Gh(C)           2.478116520158     0.567872138838     2.902170428043    12.000000000000
      Gh(H)           2.490591520158     1.658125138838     2.874825428043     1.007825032230
      Gh(H)           2.967027520158     0.220696138838     3.815616428043     1.007825032230
      Gh(H)           3.001427520158     0.176400138838     2.026687428043     1.007825032230
      Gh(H)          -2.857359479842     0.490794138838     1.813801428043     1.007825032230
      Gh(H)          -3.082679479842    -0.042310861162     3.505956428043     1.007825032230
      Gh(H)          -2.518128479842     1.610701138838     3.162856428043     1.007825032230
         C            1.225311895423     0.707533799757    -0.413599944673    12.000000000000
         C            1.225323856051    -0.707543383733    -0.425930754244    12.000000000000
         C           -0.000006153932     1.414961424928    -0.426464377765    12.000000000000
         C            2.456448753949     1.418323398016    -0.410713087274    12.000000000000
         C            0.000010827279    -1.414980987797    -0.416264820440    12.000000000000
         C           -1.225300948908     0.707540884822    -0.411348424351    12.000000000000
         C            2.456437755320    -1.418327793043    -0.428175911101    12.000000000000
         C           -0.000001332978     2.836796542119    -0.428867927899    12.000000000000
         C            3.681826697470     0.709313466839    -0.427827121303    12.000000000000
         C            2.455120048865     2.834219172327    -0.427929678264    12.000000000000
         C            3.681821105219    -0.709338328591    -0.411754637284    12.000000000000
         C           -1.225313598688    -0.707532004706    -0.424857992817    12.000000000000
         C            1.226699581202     3.543464994832    -0.411570605354    12.000000000000
         C            0.000004784858    -2.836786628398    -0.411416652818    12.000000000000
         C           -2.456436032848     1.418312429123    -0.411313028505    12.000000000000
         C            2.455123417779    -2.834234517751    -0.411906545652    12.000000000000
         C           -1.226714364589     3.543464574588    -0.411467272134    12.000000000000
         C            4.914517295202     1.427168383327    -0.421346438273    12.000000000000
         C            3.693150191476     3.542790803383    -0.421296638637    12.000000000000
         C           -2.456437600068    -1.418317770001    -0.428200949225    12.000000000000
         C            1.226704841943    -3.543478731069    -0.427540736103    12.000000000000
         C           -2.455125398508     2.834212173472    -0.427923301917    12.000000000000
         C            4.914524380782    -1.427191399106    -0.418373695539    12.000000000000
         C            1.221424613699     4.970129576098    -0.418235261279    12.000000000000
         C            4.893008229321     2.825183510864    -0.420129769915    12.000000000000
         C           -1.226697008489    -3.543475486239    -0.427273531694    12.000000000000
         C           -3.681818976526     0.709320477570    -0.427814440823    12.000000000000
         C            3.693147101150    -3.542805830553    -0.418255804978    12.000000000000
         C           -1.221432251994     4.970123808701    -0.418051765906    12.000000000000
         C            6.134770972926     0.680543457943    -0.420576663723    12.000000000000
         C            3.656788880610     4.972948754405    -0.420388000854    12.000000000000
         C           -2.455126907733    -2.834219582223    -0.412150903450    12.000000000000
         C           -3.681819179061    -0.709330192631    -0.411637015706    12.000000000000
         C            4.893012617914    -2.825204594794    -0.419518618019    12.000000000000
         C           -0.000001073113     5.650442876870    -0.419283074613    12.000000000000
         C            6.134775112332    -0.680559343237    -0.419311343208    12.000000000000
         C            2.478131482856     5.653572262169    -0.419099221205    12.000000000000
         C            1.221422404738    -4.970131544095    -0.421034758302    12.000000000000
         C           -3.693162383965     3.542792465030    -0.421131131178    12.000000000000
         C           -1.221428520945    -4.970122792758    -0.421147520134    12.000000000000
         C           -4.914521807942     1.427170957833    -0.421269493266    12.000000000000
         C            3.656787019679    -4.972959715401    -0.418937500320    12.000000000000
         C           -2.478138530106     5.653569933366    -0.418814696196    12.000000000000
         C           -3.693141738564    -3.542794708141    -0.418371931134    12.000000000000
         C           -4.914512483053    -1.427185489190    -0.418338998365    12.000000000000
         C           -0.000006008926    -5.650442776176    -0.419678578734    12.000000000000
         C           -4.893020484101     2.825184109757    -0.420139851775    12.000000000000
         C            2.478125993298    -5.653578033051    -0.420028101113    12.000000000000
         C           -3.656798710258     4.972951692879    -0.420211320480    12.000000000000
         C           -4.892999478856    -2.825196256222    -0.419672653717    12.000000000000
         C           -2.478128498083    -5.653570659169    -0.420303288760    12.000000000000
         C           -6.134770503331     0.680544277094    -0.420602215426    12.000000000000
         C           -3.656788833189    -4.972948512133    -0.419151788137    12.000000000000
         C           -6.134765042913    -0.680558404644    -0.419331819003    12.000000000000
         H            5.835288495816     3.369271405792    -0.415770444252     1.007825032230
         H            7.073859172747     1.228212759737    -0.420115020330     1.007825032230
         H            4.600663264174     5.512376313291    -0.419882800102     1.007825032230
         H            5.835283387305    -3.369310545891    -0.423973085334     1.007825032230
         H           -0.000012151306     6.738526184974    -0.423632319621     1.007825032230
         H            7.073861171831    -1.228231431906    -0.419820081302     1.007825032230
         H            2.473313731799     6.740679802232    -0.419565942135     1.007825032230
         H            4.600668491381    -5.512380618338    -0.419347497489     1.007825032230
         H           -2.473318680537     6.740677230444    -0.419264595510     1.007825032230
         H           -0.000010268228    -6.738532665614    -0.415148893750     1.007825032230
         H           -5.835301914343     3.369266461134    -0.415634422104     1.007825032230
         H            2.473307923831    -6.740689863591    -0.419457770688     1.007825032230
         H           -4.600674841208     5.512373537441    -0.419717471779     1.007825032230
         H           -5.835279506835    -3.369293452942    -0.424252391215     1.007825032230
         H           -2.473300347440    -6.740683567302    -0.419907087232     1.007825032230
         H           -7.073857766768     1.228215983678    -0.420199011811     1.007825032230
         H           -4.600673786085    -5.512367158949    -0.419519805512     1.007825032230
         H           -7.073856934409    -1.228225121139    -0.419914937768     1.007825032230

  Charge       = 0
  Multiplicity = 1
  Basis Set: JUN-CC-PVDZ
    Blend: JUN-CC-PVDZ
  Basis Set: (JUN-CC-PVDZ AUX)
    Blend: JUN-CC-PVDZ-JKFIT

    Orbital Energies [Eh]
    ---------------------

    Doubly Occupied:

       1A    -11.260656     2A    -11.260224     3A    -11.260182
       4A    -11.259466     5A    -11.259421     6A    -11.259253
       7A    -11.258992     8A    -11.258941     9A    -11.258895
      10A    -11.258583    11A    -11.258567    12A    -11.258418
      13A    -11.258366    14A    -11.258363    15A    -11.258355
      16A    -11.258328    17A    -11.258311    18A    -11.258301
      19A    -11.258294    20A    -11.258286    21A    -11.258278
      22A    -11.258253    23A    -11.258243    24A    -11.258058
      25A    -11.257244    26A    -11.257208    27A    -11.257158
      28A    -11.257072    29A    -11.257031    30A    -11.256970
      31A    -11.256349    32A    -11.256304    33A    -11.256246
      34A    -11.256185    35A    -11.256139    36A    -11.256108
      37A    -11.252163    38A    -11.252160    39A    -11.252158
      40A    -11.252152    41A    -11.252134    42A    -11.252116
      43A    -11.251250    44A    -11.251241    45A    -11.251233
      46A    -11.251227    47A    -11.251225    48A    -11.251209
      49A    -11.250725    50A    -11.250721    51A    -11.250719
      52A    -11.250712    53A    -11.250695    54A    -11.250678
      55A     -1.243825    56A     -1.219598    57A     -1.219573
      58A     -1.189331    59A     -1.189315    60A     -1.180722
      61A     -1.157362    62A     -1.148763    63A     -1.135278
      64A     -1.135251    65A     -1.112994    66A     -1.112990
      67A     -1.082208    68A     -1.082195    69A     -1.078379
      70A     -1.065790    71A     -1.065780    72A     -1.039189
      73A     -1.024027    74A     -1.021540    75A     -1.021480
      76A     -1.017528    77A     -1.012610    78A     -0.986802
      79A     -0.986740    80A     -0.961682    81A     -0.961625
      82A     -0.894079    83A     -0.894058    84A     -0.887680
      85A     -0.885925    86A     -0.885884    87A     -0.881151
      88A     -0.881107    89A     -0.861694    90A     -0.837230
      91A     -0.817982    92A     -0.816364    93A     -0.811898
      94A     -0.811894    95A     -0.794490    96A     -0.794478
      97A     -0.746362    98A     -0.744620    99A     -0.733175
     100A     -0.733161   101A     -0.731971   102A     -0.731954
     103A     -0.716271   104A     -0.698770   105A     -0.698733
     106A     -0.693367   107A     -0.693321   108A     -0.661022
     109A     -0.652877   110A     -0.650899   111A     -0.650057
     112A     -0.650049   113A     -0.639153   114A     -0.639131
     115A     -0.629477   116A     -0.627281   117A     -0.627271
     118A     -0.606439   119A     -0.605650   120A     -0.601412
     121A     -0.599532   122A     -0.599463   123A     -0.593390
     124A     -0.590961   125A     -0.590928   126A     -0.585096
     127A     -0.576395   128A     -0.576327   129A     -0.567133
     130A     -0.567111   131A     -0.565713   132A     -0.565707
     133A     -0.558478   134A     -0.554645   135A     -0.554633
     136A     -0.538390   137A     -0.538386   138A     -0.538148
     139A     -0.538141   140A     -0.529492   141A     -0.528107
     142A     -0.522664   143A     -0.522627   144A     -0.500299
     145A     -0.495518   146A     -0.493021   147A     -0.487743
     148A     -0.484825   149A     -0.481519   150A     -0.481519
     151A     -0.470260   152A     -0.470255   153A     -0.450748
     154A     -0.450684   155A     -0.438957   156A     -0.438951
     157A     -0.404639   158A     -0.404620   159A     -0.403265
     160A     -0.375298   161A     -0.375292   162A     -0.349006
     163A     -0.337526   164A     -0.336473   165A     -0.336430
     166A     -0.310952   167A     -0.297972   168A     -0.284220
     169A     -0.284176   170A     -0.224781   171A     -0.224729

  @DF-RHF Final Energy: -2055.89621327229406

   => Energetics <=

    Nuclear Repulsion Energy =           6452.5568002797781446
    One-Electron Energy =              -15636.5427362781974807
    Two-Electron Energy =                7128.0897227261248190
    Total Energy =                      -2055.8962132722936076
 Dipole X            :          0.0001212           -0.0000085            0.0001127
 Dipole Y            :          0.0024205           -0.0028843           -0.0004637
 Dipole Z            :        271.2701330         -271.2721000           -0.0019670
 Magnitude           :                                                    0.0020240

    SAPT Results
  --------------------------------------------------------------------------------------------------------
    Electrostatics                -26.22425211 [mEh]     -16.45596664 [kcal/mol]     -68.85176442 [kJ/mol]
      Elst10,r                    -26.22425211 [mEh]     -16.45596664 [kcal/mol]     -68.85176442 [kJ/mol]

    Exchange                       36.52009444 [mEh]      22.91670525 [kcal/mol]      95.88349475 [kJ/mol]
      Exch10                       36.52009444 [mEh]      22.91670525 [kcal/mol]      95.88349475 [kJ/mol]
      Exch10(S^2)                  36.36600767 [mEh]      22.82001434 [kcal/mol]      95.47893999 [kJ/mol]

    Induction                     -16.19279368 [mEh]     -10.16113144 [kcal/mol]     -42.51417396 [kJ/mol]
      Ind20,r                     -24.70906826 [mEh]     -15.50517442 [kcal/mol]     -64.87364978 [kJ/mol]
      Exch-Ind20,r                 11.95013328 [mEh]       7.49882185 [kcal/mol]      31.37507061 [kJ/mol]
      delta HF,r (2)               -3.43385870 [mEh]      -2.15477887 [kcal/mol]      -9.01559479 [kJ/mol]

    Dispersion                    -41.11663657 [mEh]     -25.80107898 [kcal/mol]    -107.95171445 [kJ/mol]
      Disp20                      -45.07800592 [mEh]     -28.28687577 [kcal/mol]    -118.35228824 [kJ/mol]
      Exch-Disp20                   3.96136935 [mEh]       2.48579679 [kcal/mol]      10.40057378 [kJ/mol]
      Disp20 (SS)                 -22.53900296 [mEh]     -14.14343789 [kcal/mol]     -59.17614412 [kJ/mol]
      Disp20 (OS)                 -22.53900296 [mEh]     -14.14343789 [kcal/mol]     -59.17614412 [kJ/mol]
      Exch-Disp20 (SS)              2.39240691 [mEh]       1.50125800 [kcal/mol]       6.28126348 [kJ/mol]
      Exch-Disp20 (OS)              1.56896243 [mEh]       0.98453879 [kcal/mol]       4.11931030 [kJ/mol]

  Total HF                         -5.89695135 [mEh]      -3.70039284 [kcal/mol]     -15.48244363 [kJ/mol]
  Total SAPT0                     -47.01358792 [mEh]     -29.50147182 [kcal/mol]    -123.43415808 [kJ/mol]

  Special recipe for scaled SAPT0 (see Manual):
    Electrostatics sSAPT0         -26.22425211 [mEh]     -16.45596664 [kcal/mol]     -68.85176442 [kJ/mol]
    Exchange sSAPT0                36.52009444 [mEh]      22.91670525 [kcal/mol]      95.88349475 [kJ/mol]
    Induction sSAPT0              -16.04024707 [mEh]     -10.06540700 [kcal/mol]     -42.11366287 [kJ/mol]
    Dispersion sSAPT0             -41.06606865 [mEh]     -25.76934713 [kcal/mol]    -107.81894838 [kJ/mol]
  Total sSAPT0                    -46.81047338 [mEh]     -29.37401552 [kcal/mol]    -122.90088092 [kJ/mol]
  --------------------------------------------------------------------------------------------------------

*** Psi4 exiting successfully. Buy a developer a beer!
