                               Psi4 1.9 release

  ==> Input File <==

--------------------------------------------------------------------------
memory 48 GB # how much memory is available ! Depends on the nodes/cores !

molecule dimer {
# monomer A
-1 1    # Charge and multiplicity
B -0.000046  0.000337 3.299994
F -1.153597  0.000048 4.115641
F  1.153661 -0.000581 4.115641
F -0.000019 -1.153637 2.484360
F -0.000019  1.153978 2.484360
--
# monomer B
0 1     # Charge and multiplicity
C   1.22531237526482      0.70753866091955      0.00613762728373
C   1.22532433589282     -0.70753852257020     -0.00619318228664
C   -0.00000567409046      1.41496628609039     -0.00672680580738
C   2.45644923379077      1.41832825917820      0.00902448468363
C   0.00001130712078     -1.41497612663474      0.00347275151708
C   -1.22530046906674      0.70754574598412      0.00838914760619
C   2.45643823516184     -1.41832293188077     -0.00843833914343
C   -0.00000085313587      2.83680140328112     -0.00913035594137
C   3.68182717731192      0.70931832800114     -0.00808954934571
C   2.45512052870677      2.83422403348893     -0.00819210630633
C   3.68182158506039     -0.70933346742900      0.00798293467272
C   -1.22531311884624     -0.70752714354401     -0.00512042085974
C   1.22670006104402      3.54346985599427      0.00816696660346
C   0.00000526469929     -2.83678176723568      0.00832091913869
C   -2.45643555300670      1.41831729028492      0.00842454345199
C   2.45512389762097     -2.83422965658853      0.00783102630520
C   -1.22671388474763      3.54346943575023      0.00827029982280
C   4.91451777504333      1.42717324448953     -0.00160886631602
C   3.69315067131765      3.54279566454522     -0.00155906667985
C   -2.45643712022637     -1.41831290883911     -0.00846337726810
C   1.22670532178455     -3.54347386990643     -0.00780316414624
C   -2.45512491866593      2.83421703463423     -0.00818572995999
C   4.91452486062398     -1.42718653794377      0.00136387641845
C   1.22142509354026      4.97013443726031      0.00150231067809
C   4.89300870916237      2.82518837202648     -0.00039219795739
C   -1.22669652864725     -3.54347062507680     -0.00753595973677
C   -3.68181849668397      0.70932533873199     -0.00807686886569
C   3.69314758099218     -3.54280096939050      0.00148176697923
C   -1.22143177215231      4.97012866986289      0.00168580605083
C   6.13477145276790      0.68054831910577     -0.00083909176631
C   3.65678936045204      4.97295361556775     -0.00065042889723
C   -2.45512642789169     -2.83421472106065      0.00758666850712
C   -3.68181869921921     -0.70932533146830      0.00810055625144
C   4.89301309775526     -2.82519973363176      0.00021895393805
C   -0.00000059327114      5.65044773803267      0.00045449734393
C   6.13477559217374     -0.68055448207492      0.00042622874941
C   2.47813196269732      5.65357712333155      0.00063835075260
C   1.22142288457925     -4.97012668293268     -0.00129718634452
C   -3.69316190412301      3.54279732619245     -0.00139355922051
C   -1.22142804110313     -4.97011793159564     -0.00140994817719
C   -4.91452132810043      1.42717581899491     -0.00153192130862
C   3.65678749952045     -4.97295485423912      0.00080007163680
C   -2.47813805026426      5.65357479452875      0.00092287576113
C   -3.69314125872231     -3.54278984697859      0.00136564082345
C   -4.91451200321153     -1.42718062802730      0.00139857359209
C   -0.00000552908399     -5.65043791501335      0.00005899322272
C   -4.89302000425900      2.82518897091939     -0.00040227981744
C   2.47812647313991     -5.65357317188818     -0.00029052915548
C   -3.65679823041642      4.97295655404175     -0.00047374852278
C   -4.89299899901461     -2.82519139505969      0.00006491824035
C   -2.47812801824129     -5.65356579800621     -0.00056571680280
C   -6.13477002348955      0.68054913825639     -0.00086464346868
C   -3.65678835334731     -4.97294365097028      0.00058578382008
C   -6.13476456307132     -0.68055354348201      0.00040575295444
H   5.83528897565761      3.36927626695423      0.00396712770529
H   7.07385965258860      1.22821762089947     -0.00037744837300
H   4.60066374401555      5.51238117445323     -0.00014522814529
H   5.83528386714679     -3.36930568472863     -0.00423551337640
H   -0.00001167146422      6.73853104613662     -0.00389474766392
H   7.07386165167227     -1.22822657074368     -0.00008250934481
H   2.47331421164041      6.74068466339473      0.00017162982210
H   4.60066897122302     -5.51237575717576      0.00039007446835
H   -2.47331820069565      6.74068209160650      0.00047297644710
H   -0.00000978838621     -6.73852780445195      0.00458867820736
H   -5.83530143450167      3.36927132229595      0.00410314985360
H   2.47330840367253     -6.74068500242887      0.00027980126949
H   -4.60067436136587      5.51237839860371      0.00002010017831
H   -5.83527902699321     -3.36928859177951     -0.00451481925734
H   -2.47329986759855     -6.74067870613986     -0.00016951527498
H   -7.07385728692578      1.22822084484047     -0.00046143985387
H   -4.60067330624313     -5.51236229778631      0.00021776644566
H   -7.07385645456741     -1.22822025997701     -0.00017736581114

    units angstrom      # Angstroms are the default
    no_reorient         # Geometry fixed, default
    symmetry c1         # C1 symmetry, default
}

set {
    scf_type DF         # Density fitting, faster than exact integrals
    freeze_core True    # Freeze core electrons
    basis jun-cc-pVDZ   # Jun-cc-pVDZ basis set, recommended for sSAPT0 in https://doi.org/10.1063/1.4867135
}

energy('ssapt0')        # Compute sSAPT0 energy, includes also SAPT0
--------------------------------------------------------------------------

  //              Dimer HF             //
    Molecular point group: c1
  Charge       = -1
  Multiplicity = 1
  Basis Set: JUN-CC-PVDZ
    Blend: JUN-CC-PVDZ
  Basis Set: (JUN-CC-PVDZ AUX)
    Blend: JUN-CC-PVDZ-JKFIT
  @DF-RHF Final Energy: -2478.64782172755577
    Total Energy =                      -2478.6478217275562201
 Dipole X            :         -0.0001956           -0.0000160           -0.0002116
 Dipole Y            :          0.0003131           -0.0001716            0.0001415
 Dipole Z            :         16.2513258          -20.2299261           -3.9786003
 Magnitude           :                                                    3.9786003
  //            Monomer A HF           //
    Molecular point group: c1
  Multiplicity = 1
  Basis Set: JUN-CC-PVDZ
    Blend: JUN-CC-PVDZ
  Basis Set: (JUN-CC-PVDZ AUX)
    Blend: JUN-CC-PVDZ-JKFIT
  @DF-RHF Final Energy:  -422.77417453235262
    Total Energy =                       -422.7741745323526175
  //            Monomer B HF           //
    Molecular point group: c1

    Geometry (in Angstrom), charge = 0, multiplicity = 1:

       Center              X                  Y                   Z               Mass
    ------------   -----------------  -----------------  -----------------  -----------------
      Gh(B)          -0.000046449334     0.000336519434     2.918781362181    11.009305360000
      Gh(F)          -1.153597449334     0.000047519434     3.734428362181    18.998403162730
      Gh(F)           1.153660550666    -0.000581480566     3.734428362181    18.998403162730
      Gh(F)          -0.000019449334    -1.153637480566     2.103147362181    18.998403162730
      Gh(F)          -0.000019449334     1.153977519434     2.103147362181    18.998403162730
         C            1.225311925931     0.707538180353    -0.375075010536    12.000000000000
         C            1.225323886559    -0.707539003137    -0.387405820106    12.000000000000
         C           -0.000006123424     1.414965805524    -0.387939443627    12.000000000000
         C            2.456448784457     1.418327778612    -0.372188153136    12.000000000000
         C            0.000010857787    -1.414976607201    -0.377739886302    12.000000000000
         C           -1.225300918401     0.707545265418    -0.372823490213    12.000000000000
         C            2.456437785828    -1.418323412447    -0.389650976963    12.000000000000
         C           -0.000001302470     2.836800922715    -0.390342993761    12.000000000000
         C            3.681826727978     0.709317847435    -0.389302187165    12.000000000000
         C            2.455120079373     2.834223552923    -0.389404744126    12.000000000000
         C            3.681821135726    -0.709333947995    -0.373229703147    12.000000000000
         C           -1.225313568180    -0.707527624110    -0.386333058679    12.000000000000
         C            1.226699611710     3.543469375428    -0.373045671216    12.000000000000
         C            0.000004815365    -2.836782247802    -0.372891718681    12.000000000000
         C           -2.456436002341     1.418316809719    -0.372788094367    12.000000000000
         C            2.455123448287    -2.834230137155    -0.373381611514    12.000000000000
         C           -1.226714334082     3.543468955184    -0.372942337996    12.000000000000
         C            4.914517325709     1.427172763923    -0.382821504135    12.000000000000
         C            3.693150221984     3.542795183979    -0.382771704499    12.000000000000
         C           -2.456437569560    -1.418313389406    -0.389676015087    12.000000000000
         C            1.226704872451    -3.543474350473    -0.389015801966    12.000000000000
         C           -2.455125368000     2.834216554068    -0.389398367779    12.000000000000
         C            4.914524411290    -1.427187018510    -0.379848761401    12.000000000000
         C            1.221424644206     4.970133956694    -0.379710327141    12.000000000000
         C            4.893008259828     2.825187891460    -0.381604835777    12.000000000000
         C           -1.226696977981    -3.543471105643    -0.388748597556    12.000000000000
         C           -3.681818946018     0.709324858166    -0.389289506685    12.000000000000
         C            3.693147131658    -3.542801449957    -0.379730870840    12.000000000000
         C           -1.221432221486     4.970128189296    -0.379526831768    12.000000000000
         C            6.134771003434     0.680547838539    -0.382051729586    12.000000000000
         C            3.656788911118     4.972953135001    -0.381863066717    12.000000000000
         C           -2.455126877226    -2.834215201627    -0.373625969312    12.000000000000
         C           -3.681819148553    -0.709325812035    -0.373112081568    12.000000000000
         C            4.893012648421    -2.825200214198    -0.380993683881    12.000000000000
         C           -0.000001042605     5.650447257466    -0.380758140475    12.000000000000
         C            6.134775142840    -0.680554962641    -0.380786409070    12.000000000000
         C            2.478131513363     5.653576642765    -0.380574287067    12.000000000000
         C            1.221422435245    -4.970127163499    -0.382509824164    12.000000000000
         C           -3.693162353457     3.542796845626    -0.382606197040    12.000000000000
         C           -1.221428490437    -4.970118412162    -0.382622585996    12.000000000000
         C           -4.914521777434     1.427175338429    -0.382744559128    12.000000000000
         C            3.656787050187    -4.972955334806    -0.380412566182    12.000000000000
         C           -2.478138499598     5.653574313962    -0.380289762058    12.000000000000
         C           -3.693141708056    -3.542790327545    -0.379846996996    12.000000000000
         C           -4.914512452545    -1.427181108594    -0.379814064227    12.000000000000
         C           -0.000005978418    -5.650438395580    -0.381153644597    12.000000000000
         C           -4.893020453593     2.825188490353    -0.381614917637    12.000000000000
         C            2.478126023806    -5.653573652455    -0.381503166975    12.000000000000
         C           -3.656798679750     4.972956073475    -0.381686386342    12.000000000000
         C           -4.892999448349    -2.825191875626    -0.381147719579    12.000000000000
         C           -2.478128467575    -5.653566278573    -0.381778354622    12.000000000000
         C           -6.134770472823     0.680548657690    -0.382077281288    12.000000000000
         C           -3.656788802681    -4.972944131537    -0.380626853999    12.000000000000
         C           -6.134765012405    -0.680554024048    -0.380806884865    12.000000000000
         H            5.835288526324     3.369275786388    -0.377245510114     1.007825032230
         H            7.073859203255     1.228217140333    -0.381590086192     1.007825032230
         H            4.600663294682     5.512380693887    -0.381357865965     1.007825032230
         H            5.835283417813    -3.369306165295    -0.385448151196     1.007825032230
         H           -0.000012120798     6.738530565570    -0.385107385483     1.007825032230
         H            7.073861202338    -1.228227051310    -0.381295147164     1.007825032230
         H            2.473313762307     6.740684182828    -0.381041007997     1.007825032230
         H            4.600668521889    -5.512376237742    -0.380822563351     1.007825032230
         H           -2.473318650030     6.740681611040    -0.380739661372     1.007825032230
         H           -0.000010237720    -6.738528285018    -0.376623959612     1.007825032230
         H           -5.835301883836     3.369270841730    -0.377109487966     1.007825032230
         H            2.473307954339    -6.740685482995    -0.380932836550     1.007825032230
         H           -4.600674810700     5.512377918037    -0.381192537641     1.007825032230
         H           -5.835279476327    -3.369289072346    -0.385727457077     1.007825032230
         H           -2.473300316932    -6.740679186706    -0.381382153094     1.007825032230
         H           -7.073857736260     1.228220364274    -0.381674077673     1.007825032230
         H           -4.600673755577    -5.512362778353    -0.380994871374     1.007825032230
         H           -7.073856903901    -1.228220740543    -0.381390003630     1.007825032230

  Charge       = 0
  Multiplicity = 1
  Basis Set: JUN-CC-PVDZ
    Blend: JUN-CC-PVDZ
  Basis Set: (JUN-CC-PVDZ AUX)
    Blend: JUN-CC-PVDZ-JKFIT

    Orbital Energies [Eh]
    ---------------------

    Doubly Occupied:

       1A    -11.260689     2A    -11.260286     3A    -11.260180
       4A    -11.259502     5A    -11.259429     6A    -11.259269
       7A    -11.259031     8A    -11.258978     9A    -11.258935
      10A    -11.258660    11A    -11.258621    12A    -11.258525
      13A    -11.258469    14A    -11.258468    15A    -11.258466
      16A    -11.258428    17A    -11.258427    18A    -11.258407
      19A    -11.258406    20A    -11.258403    21A    -11.258387
      22A    -11.258346    23A    -11.258311    24A    -11.258093
      25A    -11.257311    26A    -11.257253    27A    -11.257247
      28A    -11.257125    29A    -11.257110    30A    -11.257034
      31A    -11.256403    32A    -11.256337    33A    -11.256330
      34A    -11.256233    35A    -11.256219    36A    -11.256179
      37A    -11.252288    38A    -11.252287    39A    -11.252286
      40A    -11.252283    41A    -11.252283    42A    -11.252280
      43A    -11.251384    44A    -11.251382    45A    -11.251377
      46A    -11.251374    47A    -11.251365    48A    -11.251363
      49A    -11.250850    50A    -11.250848    51A    -11.250847
      52A    -11.250844    53A    -11.250844    54A    -11.250841
      55A     -1.244010    56A     -1.219792    57A     -1.219780
      58A     -1.189526    59A     -1.189519    60A     -1.180898
      61A     -1.157556    62A     -1.148964    63A     -1.135449
      64A     -1.135443    65A     -1.113188    66A     -1.113180
      67A     -1.082400    68A     -1.082397    69A     -1.078566
      70A     -1.065977    71A     -1.065975    72A     -1.039388
      73A     -1.024233    74A     -1.021713    75A     -1.021681
      76A     -1.017727    77A     -1.012794    78A     -0.986994
      79A     -0.986945    80A     -0.961869    81A     -0.961821
      82A     -0.894283    83A     -0.894257    84A     -0.887889
      85A     -0.886138    86A     -0.886077    87A     -0.881367
      88A     -0.881324    89A     -0.861889    90A     -0.837418
      91A     -0.818195    92A     -0.816570    93A     -0.812109
      94A     -0.812099    95A     -0.794681    96A     -0.794672
      97A     -0.746593    98A     -0.744827    99A     -0.733372
     100A     -0.733366   101A     -0.732173   102A     -0.732150
     103A     -0.716467   104A     -0.698962   105A     -0.698954
     106A     -0.693561   107A     -0.693549   108A     -0.661219
     109A     -0.653056   110A     -0.651110   111A     -0.650246
     112A     -0.650243   113A     -0.639353   114A     -0.639351
     115A     -0.629687   116A     -0.627498   117A     -0.627474
     118A     -0.606466   119A     -0.605818   120A     -0.601632
     121A     -0.599718   122A     -0.599694   123A     -0.593619
     124A     -0.591162   125A     -0.591159   126A     -0.585282
     127A     -0.576402   128A     -0.576360   129A     -0.567322
     130A     -0.567309   131A     -0.565918   132A     -0.565898
     133A     -0.558681   134A     -0.554830   135A     -0.554825
     136A     -0.538587   137A     -0.538583   138A     -0.538180
     139A     -0.538177   140A     -0.529704   141A     -0.528188
     142A     -0.522855   143A     -0.522850   144A     -0.500496
     145A     -0.495597   146A     -0.493225   147A     -0.487831
     148A     -0.485051   149A     -0.481735   150A     -0.481727
     151A     -0.470374   152A     -0.470315   153A     -0.450974
     154A     -0.450893   155A     -0.439074   156A     -0.439058
     157A     -0.404734   158A     -0.404695   159A     -0.403364
     160A     -0.375426   161A     -0.375419   162A     -0.349134
     163A     -0.337561   164A     -0.336546   165A     -0.336486
     166A     -0.311066   167A     -0.298118   168A     -0.284312
     169A     -0.284257   170A     -0.224897   171A     -0.224832

  @DF-RHF Final Energy: -2055.89397740938603

   => Energetics <=

    Nuclear Repulsion Energy =           6452.5568002797781446
    One-Electron Energy =              -15636.4876962422968063
    Two-Electron Energy =                7128.0369185531335461
    Total Energy =                      -2055.8939774093860251
 Dipole X            :          0.0000593            0.0000112            0.0000705
 Dipole Y            :          0.0002678           -0.0000531            0.0002147
 Dipole Z            :        246.3741851         -246.3739615            0.0002236
 Magnitude           :                                                    0.0003179

    SAPT Results
  --------------------------------------------------------------------------------------------------------
    Electrostatics                 -7.61680385 [mEh]      -4.77961658 [kcal/mol]     -19.99791576 [kJ/mol]
      Elst10,r                     -7.61680385 [mEh]      -4.77961658 [kcal/mol]     -19.99791576 [kJ/mol]

    Exchange                       50.70130054 [mEh]      31.81554642 [kcal/mol]     133.11624624 [kJ/mol]
      Exch10                       50.70130054 [mEh]      31.81554642 [kcal/mol]     133.11624624 [kJ/mol]
      Exch10(S^2)                  50.29048064 [mEh]      31.55775304 [kcal/mol]     132.03763873 [kJ/mol]

    Induction                     -22.75428251 [mEh]     -14.27852784 [kcal/mol]     -59.74136049 [kJ/mol]
      Ind20,r                     -39.32206108 [mEh]     -24.67496586 [kcal/mol]    -103.24005714 [kJ/mol]
      Exch-Ind20,r                 20.46783293 [mEh]      12.84375907 [kcal/mol]      53.73828796 [kJ/mol]
      delta HF,r (2)               -3.90005436 [mEh]      -2.44732106 [kcal/mol]     -10.23959130 [kJ/mol]

    Dispersion                    -18.03145538 [mEh]     -11.31490908 [kcal/mol]     -47.34157958 [kJ/mol]
      Disp20                      -23.08424950 [mEh]     -14.48558526 [kcal/mol]     -60.60768872 [kJ/mol]
      Exch-Disp20                   5.05279412 [mEh]       3.17067618 [kcal/mol]      13.26610914 [kJ/mol]
      Disp20 (SS)                 -11.54212475 [mEh]      -7.24279263 [kcal/mol]     -30.30384436 [kJ/mol]
      Disp20 (OS)                 -11.54212475 [mEh]      -7.24279263 [kcal/mol]     -30.30384436 [kJ/mol]
      Exch-Disp20 (SS)              2.76867620 [mEh]       1.73737055 [kcal/mol]       7.26915837 [kJ/mol]
      Exch-Disp20 (OS)              2.28411792 [mEh]       1.43330563 [kcal/mol]       5.99695077 [kJ/mol]

  Total HF                         20.33021418 [mEh]      12.75740200 [kcal/mol]      53.37696998 [kJ/mol]
  Total SAPT0                       2.29875880 [mEh]       1.44249293 [kcal/mol]       6.03539040 [kJ/mol]

  Special recipe for scaled SAPT0 (see Manual):
    Electrostatics sSAPT0          -7.61680385 [mEh]      -4.77961658 [kcal/mol]     -19.99791576 [kJ/mol]
    Exchange sSAPT0                50.70130054 [mEh]      31.81554642 [kcal/mol]     133.11624624 [kJ/mol]
    Induction sSAPT0              -22.24857232 [mEh]     -13.96118991 [kcal/mol]     -58.41361858 [kJ/mol]
    Dispersion sSAPT0             -17.90661317 [mEh]     -11.23656941 [kcal/mol]     -47.01380641 [kJ/mol]
  Total sSAPT0                      2.92931120 [mEh]       1.83817053 [kcal/mol]       7.69090549 [kJ/mol]
  --------------------------------------------------------------------------------------------------------

*** Psi4 exiting successfully. Buy a developer a beer!
