                               Psi4 1.9 release

  ==> Input File <==

--------------------------------------------------------------------------
memory 47 GB # how much memory is available ! Depends on the nodes/cores !

molecule dimer {
# monomer A
-1 1    # Charge and multiplicity
B -1.977592e-04  2.742729e-04 -6.799966
F  1.123153e-16  1.430594e-17 -5.387181
F  1.147860e+00  6.757812e-01 -7.271107
F  1.191806e-02 -1.332011e+00 -7.270905
F -1.159666e+00  6.560735e-01 -7.270826
--
# monomer B
0 1     # Charge and multiplicity
C   -3.66844126402057      7.80375217008252      0.00190004133558
C   -4.84759871934653      7.13124183134024     -0.00046653359696
C   -4.89495929917518      5.69633040353158     -0.00103944469517
C   -3.65374067877320      4.98073034095895      0.00662099703436
C   -2.40942512149445      7.11398103667468      0.00209438359570
C   -2.42547734410473      5.68112195090346     -0.00491050527438
C   -1.19474401643570      7.78614419430947      0.00356656413763
C   0.03795902893699      7.09942164575698      0.00139585983271
C   0.03033258741920      5.66948955970466     -0.00408752508301
C   -1.20098450790502      4.96927034791531      0.00488220885047
C   1.27795782581485      7.77285944319479      0.00277170839332
C   2.48535808472416      7.08769688523756      0.00049722048857
C   2.48612868491717      5.65477081024076     -0.00644052849921
C   1.25408291964399      4.95607811366431      0.00518741308898
C   3.75171459140595      7.76391215098033      0.00062407186893
C   4.92356605618520      7.07878077698995     -0.00143240883900
C   4.95560727132542      5.64344746336949     -0.00159282164606
C   3.70680153420475      4.94121020833308      0.00349873852374
H   -3.65852113775815      8.89082741913536      0.00358502958574
H   -1.18921332975660      8.87412108735996      0.00753844057883
H   1.28429423888630      8.86083343548850      0.00693053253426
H   3.75354208679975      8.85103527897216      0.00214659618464
H   5.86995870320703      7.61379483465560     -0.00235777588134
H   -5.78823170750226      7.67630221293400     -0.00202638095293
C   -6.09197395869619      4.99326001364347     -0.00291168518608
C   -6.12866148031747      3.58258016879823     -0.00171050815740
C   -3.66457974004527      3.56418217974434     -0.00463560277484
C   -4.89429820469869      2.86108077590057      0.00453338221034
C   -2.43733499489796      2.84761165708481      0.00719617576166
C   -1.20922785759670      3.54788693497833     -0.00648285103018
C   1.24714157216223      3.53468075142962     -0.00729145743546
C   0.01517603956900      2.83311183930540      0.00439272578912
C   2.46764517244071      2.82128997725533      0.00449278391269
C   3.70254947457969      3.52466015442405     -0.00899517692985
C   6.14498038638375      4.92757236613191     -0.00282626685777
C   6.16658835886151      3.51658447594213     -0.00065971342101
C   4.92460995845939      2.80840792535402      0.00587903281610
H   7.08990550964105      5.46688776622306     -0.00658814770723
H   -7.03104175110130      5.54268795285765     -0.00714490013730
C   -7.33969804112295      2.85841153457957     -0.00333767559888
C   -7.36488195805880      1.47032337158330     -0.00157213747140
C   -4.90350460894690      1.44442681216000     -0.00628840166334
C   -6.13225715261081      0.73993935705394      0.00600164231964
C   -3.67687480051673      0.72669714267312      0.00433931473643
C   -2.44565658606518      1.42964113326212     -0.00597039546461
C   -1.22360068130162      0.71532450163492      0.00545886906656
C   0.00763786931376      1.41738314923765      0.00392452278437
C   1.23121980774686      0.70211669058719     -0.01490206287210
C   2.46082110053113      1.40329203612573      0.00460244601878
C   3.68443025419614      0.68719842821222      0.00377365974158
C   4.91870890153864      1.39173456118907     -0.00862816189375
C   7.36980207796101      2.77948220318441     -0.00242013321349
C   7.38016266612146      1.39121750785509     -0.00087345036788
C   6.13979953912259      0.67411862320065      0.00545489144369
H   -8.27919079934664      3.40711804112415     -0.00763522772059
H   8.31511347147953      3.31811809662368     -0.00663070901292
C   -8.59175593758115      0.72483255304480     -0.00123170985383
C   -8.59902460370342     -0.63263980622873      0.00089141472904
C   -6.13981313911873     -0.67413663715361     -0.00609792660607
C   -7.38018411213749     -1.39126618958160      0.00131813493501
C   -4.91868448025621     -1.39175501803000      0.00624257154343
C   -3.68443829568458     -0.68723731573599     -0.00478966852105
C   -2.46081704024768     -1.40334517882457      0.00575341766833
C   -1.23116201232071     -0.70217386488055     -0.00636696112346
C   -0.00756962538737     -1.41741884941102      0.00108956317991
C   1.22364771588843     -0.71527537726392      0.01109518512883
C   2.44567064933149     -1.42964328900682     -0.00065482763106
C   3.67686670284649     -0.72670743155550     -0.00479541202602
C   6.13224884641929     -0.73997883984993     -0.00632338623858
C   4.90351914550401     -1.44445752054090      0.00751768830159
C   8.59901484869081      0.63260386666793     -0.00101133422380
C   8.59174548810050     -0.72485086719319      0.00072504603735
C   7.36486276438985     -1.47033266560598      0.00049486934466
H   -9.52830597181814      1.27684744919284     -0.00270163681798
H   9.54141097460619      1.17457248844457     -0.00206336648518
C   -7.36983790976868     -2.77954514593389      0.00312634335708
C   -4.92459910905015     -2.80843725734101     -0.00460528907921
C   -6.16662249566744     -3.51665219282533      0.00169655107992
C   -3.70251035970491     -3.52468154912026      0.00571878010666
C   -2.46764698511392     -2.82132596280400     -0.00632585824990
C   -0.01513347410770     -2.83314164539971     -0.00604426974092
C   -1.24712184122656     -3.53473217556300      0.00551968366725
C   1.20924506964357     -3.54791467864352      0.00805871345849
C   2.43733602215464     -2.84764173817541     -0.00608104485234
C   4.89430234377080     -2.86112296828604     -0.00526030478103
C   3.66461525504104     -3.56421984553201      0.00761911515957
C   6.12863901474565     -3.58258405771778      0.00096495711699
C   7.33967266469532     -2.85841330737039      0.00248018319869
H   -9.54144911125902     -1.17456346666430      0.00226083090216
H   9.52826186807155     -1.27691907390448      0.00197485379837
H   -8.31516504384864     -3.31814985321231      0.00729857188773
H   8.27915514249207     -3.40714078989363      0.00681973918158
C   -6.14499418870218     -4.92764727278338      0.00302254913999
C   -3.70678334799751     -4.94126171411716     -0.00679841894792
C   -4.95559005800169     -5.64349397349412      0.00116871569699
C   -2.48612132622665     -5.65478557440947      0.00614125209662
C   -1.25405833548005     -4.95612205000132     -0.00503435388927
C   1.20101257386816     -4.96928038819302     -0.00385322963129
C   -0.03033667441341     -5.66952030313900      0.00398997003238
C   3.65375010132847     -4.98074377541453     -0.00309522988330
C   2.42549269587528     -5.68117463552727      0.00628170066869
C   6.09196561781097     -4.99325796338655      0.00325918379042
C   4.89497644461045     -5.69634842095790      0.00202298796027
H   -7.08989238804069     -5.46699984223871      0.00742531082125
H   7.03105520920009     -5.54265853633254      0.00683896355417
C   -4.92354532219813     -7.07882109967734      0.00061394679214
C   -2.48534208823777     -7.08772807792913     -0.00189594564379
C   -3.75168589177895     -7.76394715763627     -0.00170126671874
C   -0.03794895698805     -7.09946487446944     -0.00168022049625
C   -1.27795610040136     -7.77290438466689     -0.00366491325785
C   2.40944432072629     -7.11402201200282     -0.00081701968533
C   1.19474993715296     -7.78618536556242     -0.00296931056689
C   4.84762105249800     -7.13126211057943      0.00168979497423
C   3.66847160587561     -7.80378799294376     -0.00065863938960
H   -5.86994035041618     -7.61383059804164      0.00215798365757
H   5.78824962538815     -7.67633218931421      0.00281691445618
H   -3.75352693944918     -8.85107156923607     -0.00353718114765
H   -1.28430440589466     -8.86087539249706     -0.00809229711623
H   1.18922157469537     -8.87416062058945     -0.00706194725726
H   3.65854661482387     -8.89086063405326     -0.00231318081200

    units angstrom      # Angstroms are the default
    no_reorient         # Geometry fixed, default
    symmetry c1         # C1 symmetry, default
}

set {
    scf_type DF         # Density fitting, faster than exact integrals
    freeze_core True    # Freeze core electrons
    basis jun-cc-pVDZ   # Jun-cc-pVDZ basis set, recommended for sSAPT0 in https://doi.org/10.1063/1.4867135
}

energy('ssapt0')        # Compute sSAPT0 energy, includes also SAPT0
--------------------------------------------------------------------------

  //              Dimer HF             //
    Molecular point group: c1
  Charge       = -1
  Multiplicity = 1
  Basis Set: JUN-CC-PVDZ
    Blend: JUN-CC-PVDZ
  Basis Set: (JUN-CC-PVDZ AUX)
    Blend: JUN-CC-PVDZ-JKFIT
  @DF-RHF Final Energy: -4073.10427536676025
    Total Energy =                      -4073.1042753667607030
 Dipole X            :         -0.0006716           -0.0000548           -0.0007264
 Dipole Y            :          0.0009286           -0.0002464            0.0006822
 Dipole Z            :        -29.4935048           40.4673562           10.9738515
 Magnitude           :                                                   10.9738515
  //            Monomer A HF           //
    Molecular point group: c1
  Multiplicity = 1
  Basis Set: JUN-CC-PVDZ
    Blend: JUN-CC-PVDZ
  Basis Set: (JUN-CC-PVDZ AUX)
    Blend: JUN-CC-PVDZ-JKFIT
  @DF-RHF Final Energy:  -422.77154620414325
    Total Energy =                       -422.7715462041432488
  //            Monomer B HF           //
    Molecular point group: c1

    Geometry (in Angstrom), charge = 0, multiplicity = 1:

       Center              X                  Y                   Z               Mass
    ------------   -----------------  -----------------  -----------------  -----------------
      Gh(B)          -0.000201921932     0.000288800891    -6.331615596284    11.009305360000
      Gh(F)          -0.000004162732     0.000014527991    -4.918830596284    18.998403162730
      Gh(F)           1.147855837268     0.675795727991    -6.802756596284    18.998403162730
      Gh(F)           0.011913897268    -1.331996472009    -6.802554596284    18.998403162730
      Gh(F)          -1.159670162732     0.656088027991    -6.802475596284    18.998403162730
         C           -3.668445426752     7.803766698073     0.470250445052    12.000000000000
         C           -4.847602882078     7.131256359331     0.467883870120    12.000000000000
         C           -4.894963461907     5.696344931522     0.467310959021    12.000000000000
         C           -3.653744841505     4.980744868950     0.474971400751    12.000000000000
         C           -2.409429284226     7.113995564665     0.470444787312    12.000000000000
         C           -2.425481506836     5.681136478894     0.463439898442    12.000000000000
         C           -1.194748179167     7.786158722300     0.471916967854    12.000000000000
         C            0.037954866205     7.099436173748     0.469746263549    12.000000000000
         C            0.030328424687     5.669504087695     0.464262878633    12.000000000000
         C           -1.200988670637     4.969284875906     0.473232612567    12.000000000000
         C            1.277953663083     7.772873971185     0.471122112110    12.000000000000
         C            2.485353921992     7.087711413228     0.468847624205    12.000000000000
         C            2.486124522185     5.654785338231     0.461909875217    12.000000000000
         C            1.254078756912     4.956092641655     0.473537816805    12.000000000000
         C            3.751710428674     7.763926678971     0.468974475585    12.000000000000
         C            4.923561893453     7.078795304981     0.466917994877    12.000000000000
         C            4.955603108594     5.643461991360     0.466757582070    12.000000000000
         C            3.706797371473     4.941224736324     0.471849142240    12.000000000000
         H           -3.658525300490     8.890841947126     0.471935433302     1.007825032230
         H           -1.189217492488     8.874135615351     0.475888844295     1.007825032230
         H            1.284290076155     8.860847963479     0.475280936251     1.007825032230
         H            3.753537924068     8.851049806963     0.470496999901     1.007825032230
         H            5.869954540475     7.613809362646     0.465992627835     1.007825032230
         H           -5.788235870234     7.676316740925     0.466324022764     1.007825032230
         C           -6.091978121428     4.993274541634     0.465438718530    12.000000000000
         C           -6.128665643049     3.582594696789     0.466639895559    12.000000000000
         C           -3.664583902777     3.564196707735     0.463714800942    12.000000000000
         C           -4.894302367430     2.861095303891     0.472883785927    12.000000000000
         C           -2.437339157630     2.847626185075     0.475546579478    12.000000000000
         C           -1.209232020328     3.547901462969     0.461867552686    12.000000000000
         C            1.247137409430     3.534695279420     0.461058946281    12.000000000000
         C            0.015171876837     2.833126367296     0.472743129506    12.000000000000
         C            2.467641009709     2.821304505246     0.472843187629    12.000000000000
         C            3.702545311848     3.524674682415     0.459355226787    12.000000000000
         C            6.144976223652     4.927586894122     0.465524136859    12.000000000000
         C            6.166584196130     3.516599003933     0.467690690295    12.000000000000
         C            4.924605795728     2.808422453345     0.474229436533    12.000000000000
         H            7.089901346909     5.466902294214     0.461762256009     1.007825032230
         H           -7.031045913833     5.542702480848     0.461205503579     1.007825032230
         C           -7.339702203855     2.858426062570     0.465012728118    12.000000000000
         C           -7.364886120791     1.470337899574     0.466778266245    12.000000000000
         C           -4.903508771679     1.444441340151     0.462062002053    12.000000000000
         C           -6.132261315343     0.739953885044     0.474352046036    12.000000000000
         C           -3.676878963248     0.726711670664     0.472689718453    12.000000000000
         C           -2.445660748797     1.429655661253     0.462380008252    12.000000000000
         C           -1.223604844033     0.715339029625     0.473809272783    12.000000000000
         C            0.007633706582     1.417397677228     0.472274926501    12.000000000000
         C            1.231215645015     0.702131218578     0.453448340844    12.000000000000
         C            2.460816937799     1.403306564116     0.472952849735    12.000000000000
         C            3.684426091464     0.687212956203     0.472124063458    12.000000000000
         C            4.918704738807     1.391749089180     0.459722241823    12.000000000000
         C            7.369797915229     2.779496731175     0.465930270503    12.000000000000
         C            7.380158503390     1.391232035846     0.467476953349    12.000000000000
         C            6.139795376391     0.674133151191     0.473805295160    12.000000000000
         H           -8.279194962078     3.407132569115     0.460715175996     1.007825032230
         H            8.315109308748     3.318132624614     0.461719694704     1.007825032230
         C           -8.591760100313     0.724847081035     0.467118693863    12.000000000000
         C           -8.599028766435    -0.632625278238     0.469241818446    12.000000000000
         C           -6.139817301850    -0.674122109163     0.462252477110    12.000000000000
         C           -7.380188274869    -1.391251661591     0.469668538652    12.000000000000
         C           -4.918688642988    -1.391740490039     0.474592975260    12.000000000000
         C           -3.684442458416    -0.687222787745     0.463560735195    12.000000000000
         C           -2.460821202979    -1.403330650834     0.474103821385    12.000000000000
         C           -1.231166175052    -0.702159336890     0.461983442593    12.000000000000
         C           -0.007573788119    -1.417404321420     0.469439966896    12.000000000000
         C            1.223643553157    -0.715260849273     0.479445588845    12.000000000000
         C            2.445666486600    -1.429628761016     0.467695576085    12.000000000000
         C            3.676862540115    -0.726692903565     0.463554991690    12.000000000000
         C            6.132244683688    -0.739964311859     0.462027017478    12.000000000000
         C            4.903514982772    -1.444442992550     0.475868092018    12.000000000000
         C            8.599010685959     0.632618394658     0.467339069493    12.000000000000
         C            8.591741325369    -0.724836339203     0.469075449754    12.000000000000
         C            7.364858601658    -1.470318137615     0.468845273061    12.000000000000
         H           -9.528310134550     1.276861977183     0.465648766899     1.007825032230
         H            9.541406811874     1.174587016435     0.466287037231     1.007825032230
         C           -7.369842072500    -2.779530617943     0.471476747074    12.000000000000
         C           -4.924603271782    -2.808422729350     0.463745114637    12.000000000000
         C           -6.166626658399    -3.516637664835     0.470046954796    12.000000000000
         C           -3.702514522437    -3.524667021130     0.474069183823    12.000000000000
         C           -2.467651147846    -2.821311434813     0.462024545467    12.000000000000
         C           -0.015137636839    -2.833127117409     0.462306133976    12.000000000000
         C           -1.247126003958    -3.534717647572     0.473870087384    12.000000000000
         C            1.209240906912    -3.547900150653     0.476409117175    12.000000000000
         C            2.437331859423    -2.847627210185     0.462269358864    12.000000000000
         C            4.894298181039    -2.861108440295     0.463090098935    12.000000000000
         C            3.664611092309    -3.564205317541     0.475969518876    12.000000000000
         C            6.128634852014    -3.582569529727     0.469315360833    12.000000000000
         C            7.339668501964    -2.858398779380     0.470830586915    12.000000000000
         H           -9.541453273991    -1.174548938674     0.470611234619     1.007825032230
         H            9.528257705340    -1.276904545914     0.470325257515     1.007825032230
         H           -8.315169206580    -3.318135325222     0.475648975604     1.007825032230
         H            8.279150979760    -3.407126261903     0.475170142898     1.007825032230
         C           -6.144998351434    -4.927632744793     0.471372952856    12.000000000000
         C           -3.706787510729    -4.941247186127     0.461551984769    12.000000000000
         C           -4.955594220733    -5.643479445504     0.469519119413    12.000000000000
         C           -2.486125488958    -5.654771046419     0.474491655813    12.000000000000
         C           -1.254062498212    -4.956107522011     0.463316049827    12.000000000000
         C            1.201008411136    -4.969265860202     0.464497174085    12.000000000000
         C           -0.030340837145    -5.669505775148     0.472340373749    12.000000000000
         C            3.653745938597    -4.980729247424     0.465255173833    12.000000000000
         C            2.425488533144    -5.681160107537     0.474632104385    12.000000000000
         C            6.091961455079    -4.993243435396     0.471609587507    12.000000000000
         C            4.894972281879    -5.696333892967     0.470373391677    12.000000000000
         H           -7.089896550772    -5.466985314248     0.475775714538     1.007825032230
         H            7.031051046468    -5.542644008342     0.475189367271     1.007825032230
         C           -4.923549484930    -7.078806571687     0.468964350509    12.000000000000
         C           -2.485346250970    -7.087713549939     0.466454458073    12.000000000000
         C           -3.751690054511    -7.763932629646     0.466649136998    12.000000000000
         C           -0.037953119720    -7.099450346479     0.466670183220    12.000000000000
         C           -1.277960263133    -7.772889856676     0.464685490459    12.000000000000
         C            2.409440157995    -7.114007484012     0.467533384031    12.000000000000
         C            1.194745774421    -7.786170837572     0.465381093150    12.000000000000
         C            4.847616889766    -7.131247582589     0.470040198691    12.000000000000
         C            3.668467443144    -7.803773464953     0.467691764327    12.000000000000
         H           -5.869944513148    -7.613816070051     0.470508387374     1.007825032230
         H            5.788245462656    -7.676317661324     0.471167318173     1.007825032230
         H           -3.753531102181    -8.851057041246     0.464813222569     1.007825032230
         H           -1.284308568626    -8.860860864507     0.460258106600     1.007825032230
         H            1.189217411964    -8.874146092599     0.461288456459     1.007825032230
         H            3.658542452092    -8.890846106063     0.466037222904     1.007825032230

  Charge       = 0
  Multiplicity = 1
  Basis Set: JUN-CC-PVDZ
    Blend: JUN-CC-PVDZ
  Basis Set: (JUN-CC-PVDZ AUX)
    Blend: JUN-CC-PVDZ-JKFIT

    Orbital Energies [Eh]
    ---------------------

    Doubly Occupied:

       1A    -11.264049     2A    -11.263733     3A    -11.263730
       4A    -11.263386     5A    -11.263383     6A    -11.263351
       7A    -11.263190     8A    -11.263169     9A    -11.263167
      10A    -11.263007    11A    -11.262848    12A    -11.262843
      13A    -11.262366    14A    -11.262363    15A    -11.262292
      16A    -11.262291    17A    -11.262239    18A    -11.262205
      19A    -11.262158    20A    -11.262121    21A    -11.262119
      22A    -11.261967    23A    -11.261963    24A    -11.261843
      25A    -11.261829    26A    -11.261815    27A    -11.261811
      28A    -11.261764    29A    -11.261756    30A    -11.261683
      31A    -11.261656    32A    -11.261653    33A    -11.261626
      34A    -11.261625    35A    -11.261604    36A    -11.261559
      37A    -11.261419    38A    -11.261408    39A    -11.261402
      40A    -11.261395    41A    -11.261390    42A    -11.261381
      43A    -11.261377    44A    -11.261362    45A    -11.261357
      46A    -11.261335    47A    -11.261331    48A    -11.261327
      49A    -11.261171    50A    -11.261139    51A    -11.261136
      52A    -11.261055    53A    -11.261054    54A    -11.260983
      55A    -11.260020    56A    -11.260007    57A    -11.260004
      58A    -11.259975    59A    -11.259973    60A    -11.259957
      61A    -11.259397    62A    -11.259372    63A    -11.259370
      64A    -11.259317    65A    -11.259315    66A    -11.259286
      67A    -11.259024    68A    -11.259007    69A    -11.259005
      70A    -11.258977    71A    -11.258975    72A    -11.258963
      73A    -11.254593    74A    -11.254592    75A    -11.254591
      76A    -11.254588    77A    -11.254583    78A    -11.254581
      79A    -11.253744    80A    -11.253742    81A    -11.253740
      82A    -11.253739    83A    -11.253736    84A    -11.253731
      85A    -11.253660    86A    -11.253658    87A    -11.253655
      88A    -11.253654    89A    -11.253652    90A    -11.253646
      91A    -11.253121    92A    -11.253120    93A    -11.253119
      94A    -11.253116    95A    -11.253110    96A    -11.253109
      97A     -1.254135    98A     -1.239146    99A     -1.239145
     100A     -1.220590   101A     -1.220585   102A     -1.215608
     103A     -1.201151   104A     -1.195721   105A     -1.188301
     106A     -1.188300   107A     -1.173871   108A     -1.173868
     109A     -1.155777   110A     -1.155774   111A     -1.152879
     112A     -1.144824   113A     -1.144821   114A     -1.128703
     115A     -1.114861   116A     -1.113266   117A     -1.112640
     118A     -1.112626   119A     -1.111715   120A     -1.088563
     121A     -1.088548   122A     -1.077061   123A     -1.077060
     124A     -1.067756   125A     -1.067726   126A     -1.065126
     127A     -1.046924   128A     -1.046916   129A     -1.040611
     130A     -1.038834   131A     -1.038833   132A     -1.025394
     133A     -1.021562   134A     -1.021512   135A     -1.007295
     136A     -1.006941   137A     -1.003913   138A     -1.000637
     139A     -1.000589   140A     -0.991170   141A     -0.971125
     142A     -0.971077   143A     -0.955994   144A     -0.955938
     145A     -0.905763   146A     -0.905721   147A     -0.905642
     148A     -0.905602   149A     -0.904518   150A     -0.892536
     151A     -0.892477   152A     -0.890519   153A     -0.890461
     154A     -0.889596   155A     -0.872323   156A     -0.869138
     157A     -0.851653   158A     -0.848016   159A     -0.847994
     160A     -0.845751   161A     -0.843159   162A     -0.834687
     163A     -0.834675   164A     -0.828216   165A     -0.828212
     166A     -0.784676   167A     -0.784665   168A     -0.783801
     169A     -0.783774   170A     -0.782423   171A     -0.782403
     172A     -0.782185   173A     -0.767113   174A     -0.760957
     175A     -0.750730   176A     -0.733589   177A     -0.727195
     178A     -0.727182   179A     -0.725220   180A     -0.724662
     181A     -0.724643   182A     -0.718658   183A     -0.713923
     184A     -0.713917   185A     -0.699697   186A     -0.699685
     187A     -0.686292   188A     -0.686064   189A     -0.686062
     190A     -0.682287   191A     -0.682276   192A     -0.678914
     193A     -0.653747   194A     -0.650996   195A     -0.650967
     196A     -0.649968   197A     -0.649953   198A     -0.649671
     199A     -0.641088   200A     -0.641062   201A     -0.640197
     202A     -0.639261   203A     -0.636162   204A     -0.636135
     205A     -0.629266   206A     -0.617679   207A     -0.615405
     208A     -0.615385   209A     -0.608917   210A     -0.608910
     211A     -0.599180   212A     -0.599142   213A     -0.598873
     214A     -0.598749   215A     -0.598723   216A     -0.598194
     217A     -0.595172   218A     -0.595160   219A     -0.594844
     220A     -0.594401   221A     -0.592090   222A     -0.592087
     223A     -0.587559   224A     -0.577879   225A     -0.577869
     226A     -0.575731   227A     -0.575727   228A     -0.573493
     229A     -0.569589   230A     -0.568294   231A     -0.568270
     232A     -0.566880   233A     -0.566870   234A     -0.560998
     235A     -0.558857   236A     -0.558839   237A     -0.558515
     238A     -0.554492   239A     -0.550628   240A     -0.547558
     241A     -0.544338   242A     -0.535033   243A     -0.534994
     244A     -0.533652   245A     -0.533630   246A     -0.528181
     247A     -0.528166   248A     -0.527956   249A     -0.517313
     250A     -0.517279   251A     -0.515423   252A     -0.515418
     253A     -0.509745   254A     -0.509729   255A     -0.498140
     256A     -0.496569   257A     -0.496544   258A     -0.493839
     259A     -0.493828   260A     -0.489488   261A     -0.481554
     262A     -0.477487   263A     -0.477484   264A     -0.474105
     265A     -0.469574   266A     -0.466651   267A     -0.466646
     268A     -0.458875   269A     -0.446858   270A     -0.446797
     271A     -0.441097   272A     -0.440824   273A     -0.440801
     274A     -0.434755   275A     -0.433973   276A     -0.407446
     277A     -0.407422   278A     -0.386483   279A     -0.386435
     280A     -0.385797   281A     -0.385795   282A     -0.383829
     283A     -0.354399   284A     -0.354382   285A     -0.350736
     286A     -0.338162   287A     -0.335669   288A     -0.335599
     289A     -0.332779   290A     -0.332772   291A     -0.307163
     292A     -0.302023   293A     -0.301960   294A     -0.300912
     295A     -0.286240   296A     -0.256526   297A     -0.253578
     298A     -0.253525   299A     -0.204333   300A     -0.204244

  @DF-RHF Final Energy: -3650.33769845002780

   => Energetics <=

    Nuclear Repulsion Energy =          15611.4211649754324753
    One-Electron Energy =              -36072.0792166196333710
    Two-Electron Energy =               16810.3203531941726396
    Total Energy =                      -3650.3376984500282560
 Dipole X            :         -0.0009006            0.0002304           -0.0006702
 Dipole Y            :          0.0010839           -0.0013052           -0.0002214
 Dipole Z            :       -531.0331006          531.0357882            0.0026876
 Magnitude           :                                                    0.0027787

    SAPT Results
  --------------------------------------------------------------------------------------------------------
    Electrostatics                  8.59366946 [mEh]       5.39260900 [kcal/mol]      22.56267606 [kJ/mol]
      Elst10,r                      8.59366946 [mEh]       5.39260900 [kcal/mol]      22.56267606 [kJ/mol]

    Exchange                       -0.00019377 [mEh]      -0.00012159 [kcal/mol]      -0.00050874 [kJ/mol]
      Exch10                       -0.00019377 [mEh]      -0.00012159 [kcal/mol]      -0.00050874 [kJ/mol]
      Exch10(S^2)                  -0.00019377 [mEh]      -0.00012159 [kcal/mol]      -0.00050874 [kJ/mol]

    Induction                      -3.62418828 [mEh]      -2.27421248 [kcal/mol]      -9.51530502 [kJ/mol]
      Ind20,r                      -3.64583693 [mEh]      -2.28779721 [kcal/mol]      -9.57214353 [kJ/mol]
      Exch-Ind20,r                  0.00115124 [mEh]       0.00072242 [kcal/mol]       0.00302259 [kJ/mol]
      delta HF,r (2)                0.02049740 [mEh]       0.01286231 [kcal/mol]       0.05381592 [kJ/mol]

    Dispersion                     -0.58687490 [mEh]      -0.36826956 [kcal/mol]      -1.54083983 [kJ/mol]
      Disp20                       -0.58741541 [mEh]      -0.36860874 [kcal/mol]      -1.54225895 [kJ/mol]
      Exch-Disp20                   0.00054051 [mEh]       0.00033918 [kcal/mol]       0.00141912 [kJ/mol]
      Disp20 (SS)                  -0.29370771 [mEh]      -0.18430437 [kcal/mol]      -0.77112948 [kJ/mol]
      Disp20 (OS)                  -0.29370771 [mEh]      -0.18430437 [kcal/mol]      -0.77112948 [kJ/mol]
      Exch-Disp20 (SS)              0.00041556 [mEh]       0.00026077 [kcal/mol]       0.00109105 [kJ/mol]
      Exch-Disp20 (OS)              0.00012496 [mEh]       0.00007841 [kcal/mol]       0.00032807 [kJ/mol]

  Total HF                          4.96928741 [mEh]       3.11827493 [kcal/mol]      13.04686230 [kJ/mol]
  Total SAPT0                       4.38241251 [mEh]       2.75000537 [kcal/mol]      11.50602247 [kJ/mol]

  Special recipe for scaled SAPT0 (see Manual):
    Electrostatics sSAPT0           8.59366946 [mEh]       5.39260900 [kcal/mol]      22.56267606 [kJ/mol]
    Exchange sSAPT0                -0.00019377 [mEh]      -0.00012159 [kcal/mol]      -0.00050874 [kJ/mol]
    Induction sSAPT0               -3.62418828 [mEh]      -2.27421248 [kcal/mol]      -9.51530502 [kJ/mol]
    Dispersion sSAPT0              -0.58687490 [mEh]      -0.36826956 [kcal/mol]      -1.54083983 [kJ/mol]
  Total sSAPT0                      4.38241251 [mEh]       2.75000537 [kcal/mol]      11.50602247 [kJ/mol]
  --------------------------------------------------------------------------------------------------------

*** Psi4 exiting successfully. Buy a developer a beer!
