                               Psi4 1.9 release

  ==> Input File <==

--------------------------------------------------------------------------
memory 32 GB # how much memory is available ! Depends on the nodes/cores !

molecule dimer {
# monomer A
-1 1    # Charge and multiplicity
B -1.977592e-04  2.742729e-04 -3.799966
F  1.123153e-16  1.430594e-17 -2.387181
F  1.147860e+00  6.757812e-01 -4.271107
F  1.191806e-02 -1.332011e+00 -4.270905
F -1.159666e+00  6.560735e-01 -4.270826
--
# monomer B
0 1     # Charge and multiplicity
C   1.22531237526482      0.70753866091955      0.00613762728373
C   1.22532433589282     -0.70753852257020     -0.00619318228664
C   -0.00000567409046      1.41496628609039     -0.00672680580738
C   2.45644923379077      1.41832825917820      0.00902448468363
C   0.00001130712078     -1.41497612663474      0.00347275151708
C   -1.22530046906674      0.70754574598412      0.00838914760619
C   2.45643823516184     -1.41832293188077     -0.00843833914343
C   -0.00000085313587      2.83680140328112     -0.00913035594137
C   3.68182717731192      0.70931832800114     -0.00808954934571
C   2.45512052870677      2.83422403348893     -0.00819210630633
C   3.68182158506039     -0.70933346742900      0.00798293467272
C   -1.22531311884624     -0.70752714354401     -0.00512042085974
C   1.22670006104402      3.54346985599427      0.00816696660346
C   0.00000526469929     -2.83678176723568      0.00832091913869
C   -2.45643555300670      1.41831729028492      0.00842454345199
C   2.45512389762097     -2.83422965658853      0.00783102630520
C   -1.22671388474763      3.54346943575023      0.00827029982280
C   4.91451777504333      1.42717324448953     -0.00160886631602
C   3.69315067131765      3.54279566454522     -0.00155906667985
C   -2.45643712022637     -1.41831290883911     -0.00846337726810
C   1.22670532178455     -3.54347386990643     -0.00780316414624
C   -2.45512491866593      2.83421703463423     -0.00818572995999
C   4.91452486062398     -1.42718653794377      0.00136387641845
C   1.22142509354026      4.97013443726031      0.00150231067809
C   4.89300870916237      2.82518837202648     -0.00039219795739
C   -1.22669652864725     -3.54347062507680     -0.00753595973677
C   -3.68181849668397      0.70932533873199     -0.00807686886569
C   3.69314758099218     -3.54280096939050      0.00148176697923
C   -1.22143177215231      4.97012866986289      0.00168580605083
C   6.13477145276790      0.68054831910577     -0.00083909176631
C   3.65678936045204      4.97295361556775     -0.00065042889723
C   -2.45512642789169     -2.83421472106065      0.00758666850712
C   -3.68181869921921     -0.70932533146830      0.00810055625144
C   4.89301309775526     -2.82519973363176      0.00021895393805
C   -0.00000059327114      5.65044773803267      0.00045449734393
C   6.13477559217374     -0.68055448207492      0.00042622874941
C   2.47813196269732      5.65357712333155      0.00063835075260
C   1.22142288457925     -4.97012668293268     -0.00129718634452
C   -3.69316190412301      3.54279732619245     -0.00139355922051
C   -1.22142804110313     -4.97011793159564     -0.00140994817719
C   -4.91452132810043      1.42717581899491     -0.00153192130862
C   3.65678749952045     -4.97295485423912      0.00080007163680
C   -2.47813805026426      5.65357479452875      0.00092287576113
C   -3.69314125872231     -3.54278984697859      0.00136564082345
C   -4.91451200321153     -1.42718062802730      0.00139857359209
C   -0.00000552908399     -5.65043791501335      0.00005899322272
C   -4.89302000425900      2.82518897091939     -0.00040227981744
C   2.47812647313991     -5.65357317188818     -0.00029052915548
C   -3.65679823041642      4.97295655404175     -0.00047374852278
C   -4.89299899901461     -2.82519139505969      0.00006491824035
C   -2.47812801824129     -5.65356579800621     -0.00056571680280
C   -6.13477002348955      0.68054913825639     -0.00086464346868
C   -3.65678835334731     -4.97294365097028      0.00058578382008
C   -6.13476456307132     -0.68055354348201      0.00040575295444
H   5.83528897565761      3.36927626695423      0.00396712770529
H   7.07385965258860      1.22821762089947     -0.00037744837300
H   4.60066374401555      5.51238117445323     -0.00014522814529
H   5.83528386714679     -3.36930568472863     -0.00423551337640
H   -0.00001167146422      6.73853104613662     -0.00389474766392
H   7.07386165167227     -1.22822657074368     -0.00008250934481
H   2.47331421164041      6.74068466339473      0.00017162982210
H   4.60066897122302     -5.51237575717576      0.00039007446835
H   -2.47331820069565      6.74068209160650      0.00047297644710
H   -0.00000978838621     -6.73852780445195      0.00458867820736
H   -5.83530143450167      3.36927132229595      0.00410314985360
H   2.47330840367253     -6.74068500242887      0.00027980126949
H   -4.60067436136587      5.51237839860371      0.00002010017831
H   -5.83527902699321     -3.36928859177951     -0.00451481925734
H   -2.47329986759855     -6.74067870613986     -0.00016951527498
H   -7.07385728692578      1.22822084484047     -0.00046143985387
H   -4.60067330624313     -5.51236229778631      0.00021776644566
H   -7.07385645456741     -1.22822025997701     -0.00017736581114

    units angstrom      # Angstroms are the default
    no_reorient         # Geometry fixed, default
    symmetry c1         # C1 symmetry, default
}

set {
    scf_type DF         # Density fitting, faster than exact integrals
    freeze_core True    # Freeze core electrons
    basis jun-cc-pVDZ   # Jun-cc-pVDZ basis set, recommended for sSAPT0 in https://doi.org/10.1063/1.4867135
}

energy('ssapt0')        # Compute sSAPT0 energy, includes also SAPT0
--------------------------------------------------------------------------

  //              Dimer HF             //
    Molecular point group: c1
  Charge       = -1
  Multiplicity = 1
  Basis Set: JUN-CC-PVDZ
    Blend: JUN-CC-PVDZ
  Basis Set: (JUN-CC-PVDZ AUX)
    Blend: JUN-CC-PVDZ-JKFIT
  @DF-RHF Final Energy: -2478.65486516836154
    Total Energy =                      -2478.6548651683606295
 Dipole X            :         -0.0004289            0.0000481           -0.0003809
 Dipole Y            :          0.0008558           -0.0001453            0.0007105
 Dipole Z            :        -18.3218932           23.2954229            4.9735297
 Magnitude           :                                                    4.9735298
  //            Monomer A HF           //
    Molecular point group: c1
  Multiplicity = 1
  Basis Set: JUN-CC-PVDZ
    Blend: JUN-CC-PVDZ
  Basis Set: (JUN-CC-PVDZ AUX)
    Blend: JUN-CC-PVDZ-JKFIT
  @DF-RHF Final Energy:  -422.77320125126215
    Total Energy =                       -422.7732012512621509
  //            Monomer B HF           //
    Molecular point group: c1

    Geometry (in Angstrom), charge = 0, multiplicity = 1:

       Center              X                  Y                   Z               Mass
    ------------   -----------------  -----------------  -----------------  -----------------
      Gh(B)          -0.000198161052     0.000273808717    -3.360989050873    11.009305360000
      Gh(F)          -0.000000401852    -0.000000464183    -1.948204050873    18.998403162730
      Gh(F)           1.147859598148     0.675780735817    -3.832130050873    18.998403162730
      Gh(F)           0.011917658148    -1.332011464183    -3.831928050873    18.998403162730
      Gh(F)          -1.159666401852     0.656073035817    -3.831849050873    18.998403162730
         C            1.225311973413     0.707538196736     0.445114576411    12.000000000000
         C            1.225323934041    -0.707538986754     0.432783766840    12.000000000000
         C           -0.000006075942     1.414965821907     0.432250143319    12.000000000000
         C            2.456448831939     1.418327794995     0.448001433811    12.000000000000
         C            0.000010905269    -1.414976590818     0.442449700644    12.000000000000
         C           -1.225300870919     0.707545281801     0.447366096733    12.000000000000
         C            2.456437833310    -1.418323396064     0.430538609983    12.000000000000
         C           -0.000001254988     2.836800939098     0.429846593186    12.000000000000
         C            3.681826775460     0.709317863818     0.430887399781    12.000000000000
         C            2.455120126855     2.834223569306     0.430784842821    12.000000000000
         C            3.681821183209    -0.709333931612     0.446959883800    12.000000000000
         C           -1.225313520698    -0.707527607727     0.433856528267    12.000000000000
         C            1.226699659192     3.543469391811     0.447143915730    12.000000000000
         C            0.000004862847    -2.836782231419     0.447297868266    12.000000000000
         C           -2.456435954859     1.418316826102     0.447401492579    12.000000000000
         C            2.455123495769    -2.834230120772     0.446807975432    12.000000000000
         C           -1.226714286599     3.543468971567     0.447247248950    12.000000000000
         C            4.914517373191     1.427172780306     0.437368082811    12.000000000000
         C            3.693150269466     3.542795200362     0.437417882447    12.000000000000
         C           -2.456437522078    -1.418313373022     0.430513571859    12.000000000000
         C            1.226704919933    -3.543474334090     0.431173784981    12.000000000000
         C           -2.455125320518     2.834216570451     0.430791219167    12.000000000000
         C            4.914524458772    -1.427187002127     0.440340825545    12.000000000000
         C            1.221424691688     4.970133973077     0.440479259805    12.000000000000
         C            4.893008307311     2.825187907843     0.438584751169    12.000000000000
         C           -1.226696930499    -3.543471089260     0.431440989390    12.000000000000
         C           -3.681818898536     0.709324874549     0.430900080261    12.000000000000
         C            3.693147179140    -3.542801433574     0.440458716106    12.000000000000
         C           -1.221432174004     4.970128205680     0.440662755178    12.000000000000
         C            6.134771050916     0.680547854922     0.438137857361    12.000000000000
         C            3.656788958600     4.972953151384     0.438326520230    12.000000000000
         C           -2.455126829744    -2.834215185244     0.446563617634    12.000000000000
         C           -3.681819101071    -0.709325795652     0.447077505378    12.000000000000
         C            4.893012695903    -2.825200197815     0.439195903065    12.000000000000
         C           -0.000000995123     5.650447273849     0.439431446471    12.000000000000
         C            6.134775190322    -0.680554946258     0.439403177876    12.000000000000
         C            2.478131560845     5.653576659148     0.439615299879    12.000000000000
         C            1.221422482727    -4.970127147116     0.437679762782    12.000000000000
         C           -3.693162305975     3.542796862009     0.437583389906    12.000000000000
         C           -1.221428442955    -4.970118395779     0.437567000950    12.000000000000
         C           -4.914521729952     1.427175354812     0.437445027818    12.000000000000
         C            3.656787097669    -4.972955318422     0.439777020764    12.000000000000
         C           -2.478138452116     5.653574330345     0.439899824888    12.000000000000
         C           -3.693141660574    -3.542790311162     0.440342589950    12.000000000000
         C           -4.914512405063    -1.427181092211     0.440375522719    12.000000000000
         C           -0.000005930936    -5.650438379197     0.439035942350    12.000000000000
         C           -4.893020406111     2.825188506736     0.438574669309    12.000000000000
         C            2.478126071288    -5.653573636072     0.438686419971    12.000000000000
         C           -3.656798632268     4.972956089858     0.438503200604    12.000000000000
         C           -4.892999400866    -2.825191859243     0.439041867367    12.000000000000
         C           -2.478128420093    -5.653566262190     0.438411232324    12.000000000000
         C           -6.134770425341     0.680548674073     0.438112305658    12.000000000000
         C           -3.656788755199    -4.972944115154     0.439562732947    12.000000000000
         C           -6.134764964923    -0.680554007665     0.439382702081    12.000000000000
         H            5.835288573806     3.369275802771     0.442944076832     1.007825032230
         H            7.073859250737     1.228217156716     0.438599500754     1.007825032230
         H            4.600663342164     5.512380710270     0.438831720982     1.007825032230
         H            5.835283465295    -3.369306148912     0.434741435750     1.007825032230
         H           -0.000012073316     6.738530581953     0.435082201463     1.007825032230
         H            7.073861249820    -1.228227034927     0.438894439782     1.007825032230
         H            2.473313809789     6.740684199211     0.439148578949     1.007825032230
         H            4.600668569371    -5.512376221359     0.439367023595     1.007825032230
         H           -2.473318602548     6.740681627423     0.439449925574     1.007825032230
         H           -0.000010190238    -6.738528268635     0.443565627334     1.007825032230
         H           -5.835301836354     3.369270858113     0.443080098980     1.007825032230
         H            2.473308001821    -6.740685466612     0.439256750396     1.007825032230
         H           -4.600674763218     5.512377934420     0.438997049305     1.007825032230
         H           -5.835279428845    -3.369289055963     0.434462129870     1.007825032230
         H           -2.473300269450    -6.740679170323     0.438807433852     1.007825032230
         H           -7.073857688778     1.228220380657     0.438515509273     1.007825032230
         H           -4.600673708095    -5.512362761970     0.439194715573     1.007825032230
         H           -7.073856856419    -1.228220724160     0.438799583316     1.007825032230

  Charge       = 0
  Multiplicity = 1
  Basis Set: JUN-CC-PVDZ
    Blend: JUN-CC-PVDZ
  Basis Set: (JUN-CC-PVDZ AUX)
    Blend: JUN-CC-PVDZ-JKFIT

    Orbital Energies [Eh]
    ---------------------

    Doubly Occupied:

       1A    -11.260727     2A    -11.260270     3A    -11.260267
       4A    -11.259487     5A    -11.259486     6A    -11.259281
       7A    -11.259033     8A    -11.258964     9A    -11.258963
      10A    -11.258665    11A    -11.258661    12A    -11.258543
      13A    -11.258492    14A    -11.258490    15A    -11.258483
      16A    -11.258449    17A    -11.258443    18A    -11.258426
      19A    -11.258420    20A    -11.258415    21A    -11.258409
      22A    -11.258353    23A    -11.258348    24A    -11.258126
      25A    -11.257320    26A    -11.257260    27A    -11.257259
      28A    -11.257125    29A    -11.257125    30A    -11.257042
      31A    -11.256411    32A    -11.256341    33A    -11.256341
      34A    -11.256233    35A    -11.256233    36A    -11.256186
      37A    -11.252305    38A    -11.252305    39A    -11.252303
      40A    -11.252302    41A    -11.252300    42A    -11.252298
      43A    -11.251411    44A    -11.251408    45A    -11.251408
      46A    -11.251401    47A    -11.251400    48A    -11.251396
      49A    -11.250867    50A    -11.250866    51A    -11.250864
      52A    -11.250862    53A    -11.250860    54A    -11.250859
      55A     -1.244075    56A     -1.219826    57A     -1.219825
      58A     -1.189559    59A     -1.189552    60A     -1.180979
      61A     -1.157585    62A     -1.148998    63A     -1.135504
      64A     -1.135498    65A     -1.113216    66A     -1.113212
      67A     -1.082439    68A     -1.082432    69A     -1.078634
      70A     -1.066007    71A     -1.066003    72A     -1.039417
      73A     -1.024276    74A     -1.021788    75A     -1.021745
      76A     -1.017754    77A     -1.012824    78A     -0.987033
      79A     -0.986987    80A     -0.961905    81A     -0.961856
      82A     -0.894312    83A     -0.894285    84A     -0.887961
      85A     -0.886190    86A     -0.886132    87A     -0.881417
      88A     -0.881369    89A     -0.861918    90A     -0.837440
      91A     -0.818228    92A     -0.816615    93A     -0.812160
      94A     -0.812151    95A     -0.794712    96A     -0.794701
      97A     -0.746647    98A     -0.744868    99A     -0.733428
     100A     -0.733419   101A     -0.732206   102A     -0.732183
     103A     -0.716527   104A     -0.698994   105A     -0.698983
     106A     -0.693607   107A     -0.693591   108A     -0.661251
     109A     -0.653111   110A     -0.651156   111A     -0.650282
     112A     -0.650276   113A     -0.639383   114A     -0.639380
     115A     -0.629739   116A     -0.627544   117A     -0.627528
     118A     -0.606515   119A     -0.605839   120A     -0.601674
     121A     -0.599755   122A     -0.599724   123A     -0.593656
     124A     -0.591233   125A     -0.591223   126A     -0.585307
     127A     -0.576378   128A     -0.576372   129A     -0.567352
     130A     -0.567337   131A     -0.565969   132A     -0.565950
     133A     -0.558733   134A     -0.554868   135A     -0.554862
     136A     -0.538619   137A     -0.538617   138A     -0.538187
     139A     -0.538181   140A     -0.529742   141A     -0.528227
     142A     -0.522891   143A     -0.522885   144A     -0.500527
     145A     -0.495614   146A     -0.493257   147A     -0.487851
     148A     -0.485090   149A     -0.481778   150A     -0.481770
     151A     -0.470382   152A     -0.470364   153A     -0.451030
     154A     -0.450952   155A     -0.439089   156A     -0.439080
     157A     -0.404738   158A     -0.404715   159A     -0.403389
     160A     -0.375449   161A     -0.375446   162A     -0.349132
     163A     -0.337571   164A     -0.336614   165A     -0.336556
     166A     -0.311090   167A     -0.298135   168A     -0.284340
     169A     -0.284287   170A     -0.224926   171A     -0.224860

  @DF-RHF Final Energy: -2055.89344357829987

   => Energetics <=

    Nuclear Repulsion Energy =           6452.5568002797772351
    One-Electron Energy =              -15636.4759618364078051
    Two-Electron Energy =                7128.0257179783311585
    Total Energy =                      -2055.8934435782994115
 Dipole X            :          0.0000272            0.0000419            0.0000691
 Dipole Y            :          0.0000571           -0.0000426            0.0000146
 Dipole Z            :       -283.7011419          283.7033606            0.0022187
 Magnitude           :                                                    0.0022198

    SAPT Results
  --------------------------------------------------------------------------------------------------------
    Electrostatics                  2.91895150 [mEh]       1.83166972 [kcal/mol]       7.66370610 [kJ/mol]
      Elst10,r                      2.91895150 [mEh]       1.83166972 [kcal/mol]       7.66370610 [kJ/mol]

    Exchange                       25.38195186 [mEh]      15.92741525 [kcal/mol]      66.64030543 [kJ/mol]
      Exch10                       25.38195186 [mEh]      15.92741525 [kcal/mol]      66.64030543 [kJ/mol]
      Exch10(S^2)                  25.32585489 [mEh]      15.89221388 [kcal/mol]      66.49302286 [kJ/mol]

    Induction                     -16.52124216 [mEh]     -10.36723597 [kcal/mol]     -43.37651531 [kJ/mol]
      Ind20,r                     -22.69931083 [mEh]     -14.24403259 [kcal/mol]     -59.59703237 [kJ/mol]
      Exch-Ind20,r                  7.65403184 [mEh]       4.80297749 [kcal/mol]      20.09565782 [kJ/mol]
      delta HF,r (2)               -1.47596317 [mEh]      -0.92618087 [kcal/mol]      -3.87514076 [kJ/mol]

    Dispersion                    -11.37438705 [mEh]      -7.13753563 [kcal/mol]     -29.86344907 [kJ/mol]
      Disp20                      -13.95630254 [mEh]      -8.75771206 [kcal/mol]     -36.64226728 [kJ/mol]
      Exch-Disp20                   2.58191550 [mEh]       1.62017643 [kcal/mol]       6.77881820 [kJ/mol]
      Disp20 (SS)                  -6.97815127 [mEh]      -4.37885603 [kcal/mol]     -18.32113364 [kJ/mol]
      Disp20 (OS)                  -6.97815127 [mEh]      -4.37885603 [kcal/mol]     -18.32113364 [kJ/mol]
      Exch-Disp20 (SS)              1.43823064 [mEh]       0.90250335 [kcal/mol]       3.77607402 [kJ/mol]
      Exch-Disp20 (OS)              1.14368486 [mEh]       0.71767308 [kcal/mol]       3.00274418 [kJ/mol]

  Total HF                         11.77966120 [mEh]       7.39184900 [kcal/mol]      30.92749622 [kJ/mol]
  Total SAPT0                       0.40527415 [mEh]       0.25431337 [kcal/mol]       1.06404715 [kJ/mol]

  Special recipe for scaled SAPT0 (see Manual):
    Electrostatics sSAPT0           2.91895150 [mEh]       1.83166972 [kcal/mol]       7.66370610 [kJ/mol]
    Exchange sSAPT0                25.38195186 [mEh]      15.92741525 [kcal/mol]      66.64030543 [kJ/mol]
    Induction sSAPT0              -16.47026819 [mEh]     -10.33524933 [kcal/mol]     -43.24268319 [kJ/mol]
    Dispersion sSAPT0             -11.35719213 [mEh]      -7.12674565 [kcal/mol]     -29.81830382 [kJ/mol]
  Total sSAPT0                      0.47344304 [mEh]       0.29708999 [kcal/mol]       1.24302452 [kJ/mol]
  --------------------------------------------------------------------------------------------------------

*** Psi4 exiting successfully. Buy a developer a beer!
