                               Psi4 1.9 release

  ==> Input File <==

--------------------------------------------------------------------------
memory 32 GB # how much memory is available ! Depends on the nodes/cores !

molecule dimer {
# monomer A
-1 1    # Charge and multiplicity
B -1.977592e-04  2.742729e-04 -5.999966
F  1.123153e-16  1.430594e-17 -4.587181
F  1.147860e+00  6.757812e-01 -6.471107
F  1.191806e-02 -1.332011e+00 -6.470905
F -1.159666e+00  6.560735e-01 -6.470826
--
# monomer B
0 1     # Charge and multiplicity
C   1.22531237526482      0.70753866091955      0.00613762728373
C   1.22532433589282     -0.70753852257020     -0.00619318228664
C   -0.00000567409046      1.41496628609039     -0.00672680580738
C   2.45644923379077      1.41832825917820      0.00902448468363
C   0.00001130712078     -1.41497612663474      0.00347275151708
C   -1.22530046906674      0.70754574598412      0.00838914760619
C   2.45643823516184     -1.41832293188077     -0.00843833914343
C   -0.00000085313587      2.83680140328112     -0.00913035594137
C   3.68182717731192      0.70931832800114     -0.00808954934571
C   2.45512052870677      2.83422403348893     -0.00819210630633
C   3.68182158506039     -0.70933346742900      0.00798293467272
C   -1.22531311884624     -0.70752714354401     -0.00512042085974
C   1.22670006104402      3.54346985599427      0.00816696660346
C   0.00000526469929     -2.83678176723568      0.00832091913869
C   -2.45643555300670      1.41831729028492      0.00842454345199
C   2.45512389762097     -2.83422965658853      0.00783102630520
C   -1.22671388474763      3.54346943575023      0.00827029982280
C   4.91451777504333      1.42717324448953     -0.00160886631602
C   3.69315067131765      3.54279566454522     -0.00155906667985
C   -2.45643712022637     -1.41831290883911     -0.00846337726810
C   1.22670532178455     -3.54347386990643     -0.00780316414624
C   -2.45512491866593      2.83421703463423     -0.00818572995999
C   4.91452486062398     -1.42718653794377      0.00136387641845
C   1.22142509354026      4.97013443726031      0.00150231067809
C   4.89300870916237      2.82518837202648     -0.00039219795739
C   -1.22669652864725     -3.54347062507680     -0.00753595973677
C   -3.68181849668397      0.70932533873199     -0.00807686886569
C   3.69314758099218     -3.54280096939050      0.00148176697923
C   -1.22143177215231      4.97012866986289      0.00168580605083
C   6.13477145276790      0.68054831910577     -0.00083909176631
C   3.65678936045204      4.97295361556775     -0.00065042889723
C   -2.45512642789169     -2.83421472106065      0.00758666850712
C   -3.68181869921921     -0.70932533146830      0.00810055625144
C   4.89301309775526     -2.82519973363176      0.00021895393805
C   -0.00000059327114      5.65044773803267      0.00045449734393
C   6.13477559217374     -0.68055448207492      0.00042622874941
C   2.47813196269732      5.65357712333155      0.00063835075260
C   1.22142288457925     -4.97012668293268     -0.00129718634452
C   -3.69316190412301      3.54279732619245     -0.00139355922051
C   -1.22142804110313     -4.97011793159564     -0.00140994817719
C   -4.91452132810043      1.42717581899491     -0.00153192130862
C   3.65678749952045     -4.97295485423912      0.00080007163680
C   -2.47813805026426      5.65357479452875      0.00092287576113
C   -3.69314125872231     -3.54278984697859      0.00136564082345
C   -4.91451200321153     -1.42718062802730      0.00139857359209
C   -0.00000552908399     -5.65043791501335      0.00005899322272
C   -4.89302000425900      2.82518897091939     -0.00040227981744
C   2.47812647313991     -5.65357317188818     -0.00029052915548
C   -3.65679823041642      4.97295655404175     -0.00047374852278
C   -4.89299899901461     -2.82519139505969      0.00006491824035
C   -2.47812801824129     -5.65356579800621     -0.00056571680280
C   -6.13477002348955      0.68054913825639     -0.00086464346868
C   -3.65678835334731     -4.97294365097028      0.00058578382008
C   -6.13476456307132     -0.68055354348201      0.00040575295444
H   5.83528897565761      3.36927626695423      0.00396712770529
H   7.07385965258860      1.22821762089947     -0.00037744837300
H   4.60066374401555      5.51238117445323     -0.00014522814529
H   5.83528386714679     -3.36930568472863     -0.00423551337640
H   -0.00001167146422      6.73853104613662     -0.00389474766392
H   7.07386165167227     -1.22822657074368     -0.00008250934481
H   2.47331421164041      6.74068466339473      0.00017162982210
H   4.60066897122302     -5.51237575717576      0.00039007446835
H   -2.47331820069565      6.74068209160650      0.00047297644710
H   -0.00000978838621     -6.73852780445195      0.00458867820736
H   -5.83530143450167      3.36927132229595      0.00410314985360
H   2.47330840367253     -6.74068500242887      0.00027980126949
H   -4.60067436136587      5.51237839860371      0.00002010017831
H   -5.83527902699321     -3.36928859177951     -0.00451481925734
H   -2.47329986759855     -6.74067870613986     -0.00016951527498
H   -7.07385728692578      1.22822084484047     -0.00046143985387
H   -4.60067330624313     -5.51236229778631      0.00021776644566
H   -7.07385645456741     -1.22822025997701     -0.00017736581114

    units angstrom      # Angstroms are the default
    no_reorient         # Geometry fixed, default
    symmetry c1         # C1 symmetry, default
}

set {
    scf_type DF         # Density fitting, faster than exact integrals
    freeze_core True    # Freeze core electrons
    basis jun-cc-pVDZ   # Jun-cc-pVDZ basis set, recommended for sSAPT0 in https://doi.org/10.1063/1.4867135
}

energy('ssapt0')        # Compute sSAPT0 energy, includes also SAPT0
--------------------------------------------------------------------------

  //              Dimer HF             //
    Molecular point group: c1
  Charge       = -1
  Multiplicity = 1
  Basis Set: JUN-CC-PVDZ
    Blend: JUN-CC-PVDZ
  Basis Set: (JUN-CC-PVDZ AUX)
    Blend: JUN-CC-PVDZ-JKFIT
  @DF-RHF Final Energy: -2478.65876499882461
    Total Energy =                      -2478.6587649988250632
 Dipole X            :         -0.0004906            0.0000481           -0.0004425
 Dipole Y            :          0.0010030           -0.0001453            0.0008577
 Dipole Z            :        -27.6614954           36.7821567            9.1206613
 Magnitude           :                                                    9.1206614
  //            Monomer A HF           //
    Molecular point group: c1
  Multiplicity = 1
  Basis Set: JUN-CC-PVDZ
    Blend: JUN-CC-PVDZ
  Basis Set: (JUN-CC-PVDZ AUX)
    Blend: JUN-CC-PVDZ-JKFIT
  @DF-RHF Final Energy:  -422.77169947459015
    Total Energy =                       -422.7716994745901502
  //            Monomer B HF           //
    Molecular point group: c1

    Geometry (in Angstrom), charge = 0, multiplicity = 1:

       Center              X                  Y                   Z               Mass
    ------------   -----------------  -----------------  -----------------  -----------------
      Gh(B)          -0.000198161052     0.000273808717    -5.306845781545    11.009305360000
      Gh(F)          -0.000000401852    -0.000000464183    -3.894060781545    18.998403162730
      Gh(F)           1.147859598148     0.675780735817    -5.777986781545    18.998403162730
      Gh(F)           0.011917658148    -1.332011464183    -5.777784781545    18.998403162730
      Gh(F)          -1.159666401852     0.656073035817    -5.777705781545    18.998403162730
         C            1.225311973413     0.707538196736     0.699257845739    12.000000000000
         C            1.225323934041    -0.707538986754     0.686927036169    12.000000000000
         C           -0.000006075942     1.414965821907     0.686393412648    12.000000000000
         C            2.456448831939     1.418327794995     0.702144703139    12.000000000000
         C            0.000010905269    -1.414976590818     0.696592969972    12.000000000000
         C           -1.225300870919     0.707545281801     0.701509366061    12.000000000000
         C            2.456437833310    -1.418323396064     0.684681879312    12.000000000000
         C           -0.000001254988     2.836800939098     0.683989862514    12.000000000000
         C            3.681826775460     0.709317863818     0.685030669110    12.000000000000
         C            2.455120126855     2.834223569306     0.684928112149    12.000000000000
         C            3.681821183209    -0.709333931612     0.701103153128    12.000000000000
         C           -1.225313520698    -0.707527607727     0.687999797596    12.000000000000
         C            1.226699659192     3.543469391811     0.701287185059    12.000000000000
         C            0.000004862847    -2.836782231419     0.701441137594    12.000000000000
         C           -2.456435954859     1.418316826102     0.701544761907    12.000000000000
         C            2.455123495769    -2.834230120772     0.700951244760    12.000000000000
         C           -1.226714286599     3.543468971567     0.701390518278    12.000000000000
         C            4.914517373191     1.427172780306     0.691511352139    12.000000000000
         C            3.693150269466     3.542795200362     0.691561151775    12.000000000000
         C           -2.456437522078    -1.418313373022     0.684656841187    12.000000000000
         C            1.226704919933    -3.543474334090     0.685317054309    12.000000000000
         C           -2.455125320518     2.834216570451     0.684934488495    12.000000000000
         C            4.914524458772    -1.427187002127     0.694484094874    12.000000000000
         C            1.221424691688     4.970133973077     0.694622529133    12.000000000000
         C            4.893008307311     2.825187907843     0.692728020498    12.000000000000
         C           -1.226696930499    -3.543471089260     0.685584258718    12.000000000000
         C           -3.681818898536     0.709324874549     0.685043349590    12.000000000000
         C            3.693147179140    -3.542801433574     0.694601985434    12.000000000000
         C           -1.221432174004     4.970128205680     0.694806024506    12.000000000000
         C            6.134771050916     0.680547854922     0.692281126689    12.000000000000
         C            3.656788958600     4.972953151384     0.692469789558    12.000000000000
         C           -2.455126829744    -2.834215185244     0.700706886962    12.000000000000
         C           -3.681819101071    -0.709325795652     0.701220774707    12.000000000000
         C            4.893012695903    -2.825200197815     0.693339172393    12.000000000000
         C           -0.000000995123     5.650447273849     0.693574715799    12.000000000000
         C            6.134775190322    -0.680554946258     0.693546447205    12.000000000000
         C            2.478131560845     5.653576659148     0.693758569208    12.000000000000
         C            1.221422482727    -4.970127147116     0.691823032111    12.000000000000
         C           -3.693162305975     3.542796862009     0.691726659235    12.000000000000
         C           -1.221428442955    -4.970118395779     0.691710270278    12.000000000000
         C           -4.914521729952     1.427175354812     0.691588297147    12.000000000000
         C            3.656787097669    -4.972955318422     0.693920290092    12.000000000000
         C           -2.478138452116     5.653574330345     0.694043094216    12.000000000000
         C           -3.693141660574    -3.542790311162     0.694485859279    12.000000000000
         C           -4.914512405063    -1.427181092211     0.694518792047    12.000000000000
         C           -0.000005930936    -5.650438379197     0.693179211678    12.000000000000
         C           -4.893020406111     2.825188506736     0.692717938638    12.000000000000
         C            2.478126071288    -5.653573636072     0.692829689300    12.000000000000
         C           -3.656798632268     4.972956089858     0.692646469932    12.000000000000
         C           -4.892999400866    -2.825191859243     0.693185136696    12.000000000000
         C           -2.478128420093    -5.653566262190     0.692554501652    12.000000000000
         C           -6.134770425341     0.680548674073     0.692255574987    12.000000000000
         C           -3.656788755199    -4.972944115154     0.693706002275    12.000000000000
         C           -6.134764964923    -0.680554007665     0.693525971410    12.000000000000
         H            5.835288573806     3.369275802771     0.697087346161     1.007825032230
         H            7.073859250737     1.228217156716     0.692742770082     1.007825032230
         H            4.600663342164     5.512380710270     0.692974990310     1.007825032230
         H            5.835283465295    -3.369306148912     0.688884705079     1.007825032230
         H           -0.000012073316     6.738530581953     0.689225470791     1.007825032230
         H            7.073861249820    -1.228227034927     0.693037709110     1.007825032230
         H            2.473313809789     6.740684199211     0.693291848277     1.007825032230
         H            4.600668569371    -5.512376221359     0.693510292924     1.007825032230
         H           -2.473318602548     6.740681627423     0.693593194902     1.007825032230
         H           -0.000010190238    -6.738528268635     0.697708896663     1.007825032230
         H           -5.835301836354     3.369270858113     0.697223368309     1.007825032230
         H            2.473308001821    -6.740685466612     0.693400019725     1.007825032230
         H           -4.600674763218     5.512377934420     0.693140318634     1.007825032230
         H           -5.835279428845    -3.369289055963     0.688605399198     1.007825032230
         H           -2.473300269450    -6.740679170323     0.692950703180     1.007825032230
         H           -7.073857688778     1.228220380657     0.692658778601     1.007825032230
         H           -4.600673708095    -5.512362761970     0.693337984901     1.007825032230
         H           -7.073856856419    -1.228220724160     0.692942852644     1.007825032230

  Charge       = 0
  Multiplicity = 1
  Basis Set: JUN-CC-PVDZ
    Blend: JUN-CC-PVDZ
  Basis Set: (JUN-CC-PVDZ AUX)
    Blend: JUN-CC-PVDZ-JKFIT

    Orbital Energies [Eh]
    ---------------------

    Doubly Occupied:

       1A    -11.260663     2A    -11.260217     3A    -11.260214
       4A    -11.259482     5A    -11.259481     6A    -11.259302
       7A    -11.259088     8A    -11.259014     9A    -11.259012
      10A    -11.258702    11A    -11.258699    12A    -11.258622
      13A    -11.258562    14A    -11.258558    15A    -11.258556
      16A    -11.258524    17A    -11.258519    18A    -11.258503
      19A    -11.258487    20A    -11.258482    21A    -11.258477
      22A    -11.258385    23A    -11.258381    24A    -11.258098
      25A    -11.257410    26A    -11.257347    27A    -11.257346
      28A    -11.257210    29A    -11.257210    30A    -11.257124
      31A    -11.256503    32A    -11.256431    33A    -11.256431
      34A    -11.256321    35A    -11.256321    36A    -11.256273
      37A    -11.252368    38A    -11.252368    39A    -11.252366
      40A    -11.252365    41A    -11.252363    42A    -11.252361
      43A    -11.251492    44A    -11.251490    45A    -11.251489
      46A    -11.251483    47A    -11.251482    48A    -11.251478
      49A    -11.250930    50A    -11.250929    51A    -11.250928
      52A    -11.250926    53A    -11.250924    54A    -11.250923
      55A     -1.244202    56A     -1.219950    57A     -1.219949
      58A     -1.189671    59A     -1.189663    60A     -1.181076
      61A     -1.157680    62A     -1.149107    63A     -1.135622
      64A     -1.135615    65A     -1.113313    66A     -1.113308
      67A     -1.082561    68A     -1.082554    69A     -1.078734
      70A     -1.066098    71A     -1.066094    72A     -1.039527
      73A     -1.024416    74A     -1.021901    75A     -1.021858
      76A     -1.017848    77A     -1.012907    78A     -0.987156
      79A     -0.987110    80A     -0.961999    81A     -0.961949
      82A     -0.894415    83A     -0.894389    84A     -0.888075
      85A     -0.886322    86A     -0.886264    87A     -0.881537
      88A     -0.881489    89A     -0.862022    90A     -0.837517
      91A     -0.818342    92A     -0.816750    93A     -0.812270
      94A     -0.812261    95A     -0.794806    96A     -0.794796
      97A     -0.746769    98A     -0.744990    99A     -0.733549
     100A     -0.733540   101A     -0.732304   102A     -0.732281
     103A     -0.716626   104A     -0.699098   105A     -0.699087
     106A     -0.693716   107A     -0.693701   108A     -0.661352
     109A     -0.653233   110A     -0.651296   111A     -0.650368
     112A     -0.650362   113A     -0.639484   114A     -0.639482
     115A     -0.629847   116A     -0.627657   117A     -0.627641
     118A     -0.606516   119A     -0.605903   120A     -0.601798
     121A     -0.599865   122A     -0.599834   123A     -0.593770
     124A     -0.591363   125A     -0.591352   126A     -0.585384
     127A     -0.576394   128A     -0.576388   129A     -0.567437
     130A     -0.567422   131A     -0.566084   132A     -0.566064
     133A     -0.558856   134A     -0.554965   135A     -0.554959
     136A     -0.538712   137A     -0.538710   138A     -0.538252
     139A     -0.538246   140A     -0.529843   141A     -0.528256
     142A     -0.522996   143A     -0.522990   144A     -0.500624
     145A     -0.495686   146A     -0.493358   147A     -0.487912
     148A     -0.485209   149A     -0.481887   150A     -0.481879
     151A     -0.470408   152A     -0.470390   153A     -0.451163
     154A     -0.451085   155A     -0.439156   156A     -0.439147
     157A     -0.404824   158A     -0.404801   159A     -0.403470
     160A     -0.375510   161A     -0.375508   162A     -0.349212
     163A     -0.337658   164A     -0.336647   165A     -0.336589
     166A     -0.311189   167A     -0.298183   168A     -0.284431
     169A     -0.284377   170A     -0.225013   171A     -0.224947

  @DF-RHF Final Energy: -2055.89227133213353

   => Energetics <=

    Nuclear Repulsion Energy =           6452.5568002797772351
    One-Electron Energy =              -15636.4446036100980564
    Two-Electron Energy =                7127.9955319981872890
    Total Energy =                      -2055.8922713321335323
 Dipole X            :          0.0000415            0.0000419            0.0000834
 Dipole Y            :          0.0000380           -0.0000426           -0.0000045
 Dipole Z            :       -447.9496307          447.9526827            0.0030519
 Magnitude           :                                                    0.0030531

    SAPT Results
  --------------------------------------------------------------------------------------------------------
    Electrostatics                  9.16447155 [mEh]       5.75079272 [kcal/mol]      24.06131674 [kJ/mol]
      Elst10,r                      9.16447155 [mEh]       5.75079272 [kcal/mol]      24.06131674 [kJ/mol]

    Exchange                        0.00762897 [mEh]       0.00478725 [kcal/mol]       0.02002987 [kJ/mol]
      Exch10                        0.00762897 [mEh]       0.00478725 [kcal/mol]       0.02002987 [kJ/mol]
      Exch10(S^2)                   0.00762912 [mEh]       0.00478734 [kcal/mol]       0.02003025 [kJ/mol]

    Induction                      -3.96629262 [mEh]      -2.48888620 [kcal/mol]     -10.41349985 [kJ/mol]
      Ind20,r                      -4.00943305 [mEh]      -2.51595722 [kcal/mol]     -10.52676502 [kJ/mol]
      Exch-Ind20,r                  0.00384858 [mEh]       0.00241502 [kcal/mol]       0.01010445 [kJ/mol]
      delta HF,r (2)                0.03929184 [mEh]       0.02465600 [kcal/mol]       0.10316072 [kJ/mol]

    Dispersion                     -0.98585951 [mEh]      -0.61863618 [kcal/mol]      -2.58837378 [kJ/mol]
      Disp20                       -0.99037170 [mEh]      -0.62146763 [kcal/mol]      -2.60022054 [kJ/mol]
      Exch-Disp20                   0.00451220 [mEh]       0.00283145 [kcal/mol]       0.01184677 [kJ/mol]
      Disp20 (SS)                  -0.49518585 [mEh]      -0.31073381 [kcal/mol]      -1.30011027 [kJ/mol]
      Disp20 (OS)                  -0.49518585 [mEh]      -0.31073381 [kcal/mol]      -1.30011027 [kJ/mol]
      Exch-Disp20 (SS)              0.00332271 [mEh]       0.00208503 [kcal/mol]       0.00872378 [kJ/mol]
      Exch-Disp20 (OS)              0.00118948 [mEh]       0.00074641 [kcal/mol]       0.00312299 [kJ/mol]

  Total HF                          5.20580790 [mEh]       3.26669378 [kcal/mol]      13.66784676 [kJ/mol]
  Total SAPT0                       4.21994839 [mEh]       2.64805760 [kcal/mol]      11.07947298 [kJ/mol]

  Special recipe for scaled SAPT0 (see Manual):
    Electrostatics sSAPT0           9.16447155 [mEh]       5.75079272 [kcal/mol]      24.06131674 [kJ/mol]
    Exchange sSAPT0                 0.00762897 [mEh]       0.00478725 [kcal/mol]       0.02002987 [kJ/mol]
    Induction sSAPT0               -3.96629262 [mEh]      -2.48888620 [kcal/mol]     -10.41349985 [kJ/mol]
    Dispersion sSAPT0              -0.98585951 [mEh]      -0.61863618 [kcal/mol]      -2.58837378 [kJ/mol]
  Total sSAPT0                      4.21994839 [mEh]       2.64805760 [kcal/mol]      11.07947298 [kJ/mol]
  --------------------------------------------------------------------------------------------------------

*** Psi4 exiting successfully. Buy a developer a beer!
