                               Psi4 1.9 release

  ==> Input File <==

--------------------------------------------------------------------------
memory 32 GB # how much memory is available ! Depends on the nodes/cores !

molecule dimer {
# monomer A
+1 1    # Charge and multiplicity
C  0.680067 1.417258 -10.415929
C -0.680504 1.419286 -10.415545
N -1.085635 1.420284  -9.097221
C  0.000108 1.423560  -8.315820
C -2.477365 1.469690  -8.629242
N  1.085222 1.420284  -9.097221
H  1.385146 1.409430 -11.233368
H -1.385302 1.419096 -11.233214
H -0.000009 1.425307  -7.234731
C  2.478117 1.403392  -8.632123
H  2.490592 1.430737  -7.541870
H  2.967028 0.489946  -8.979299
H  3.001428 2.278875  -9.023595
H -2.857359 2.491761  -8.709201
H -3.082679 0.799606  -9.242306
H -2.518128 1.142706  -7.589294
--
# monomer B
0 1     # Charge and multiplicity
C   1.22531237526482      0.70753866091955      0.00613762728373
C   1.22532433589282     -0.70753852257020     -0.00619318228664
C   -0.00000567409046      1.41496628609039     -0.00672680580738
C   2.45644923379077      1.41832825917820      0.00902448468363
C   0.00001130712078     -1.41497612663474      0.00347275151708
C   -1.22530046906674      0.70754574598412      0.00838914760619
C   2.45643823516184     -1.41832293188077     -0.00843833914343
C   -0.00000085313587      2.83680140328112     -0.00913035594137
C   3.68182717731192      0.70931832800114     -0.00808954934571
C   2.45512052870677      2.83422403348893     -0.00819210630633
C   3.68182158506039     -0.70933346742900      0.00798293467272
C   -1.22531311884624     -0.70752714354401     -0.00512042085974
C   1.22670006104402      3.54346985599427      0.00816696660346
C   0.00000526469929     -2.83678176723568      0.00832091913869
C   -2.45643555300670      1.41831729028492      0.00842454345199
C   2.45512389762097     -2.83422965658853      0.00783102630520
C   -1.22671388474763      3.54346943575023      0.00827029982280
C   4.91451777504333      1.42717324448953     -0.00160886631602
C   3.69315067131765      3.54279566454522     -0.00155906667985
C   -2.45643712022637     -1.41831290883911     -0.00846337726810
C   1.22670532178455     -3.54347386990643     -0.00780316414624
C   -2.45512491866593      2.83421703463423     -0.00818572995999
C   4.91452486062398     -1.42718653794377      0.00136387641845
C   1.22142509354026      4.97013443726031      0.00150231067809
C   4.89300870916237      2.82518837202648     -0.00039219795739
C   -1.22669652864725     -3.54347062507680     -0.00753595973677
C   -3.68181849668397      0.70932533873199     -0.00807686886569
C   3.69314758099218     -3.54280096939050      0.00148176697923
C   -1.22143177215231      4.97012866986289      0.00168580605083
C   6.13477145276790      0.68054831910577     -0.00083909176631
C   3.65678936045204      4.97295361556775     -0.00065042889723
C   -2.45512642789169     -2.83421472106065      0.00758666850712
C   -3.68181869921921     -0.70932533146830      0.00810055625144
C   4.89301309775526     -2.82519973363176      0.00021895393805
C   -0.00000059327114      5.65044773803267      0.00045449734393
C   6.13477559217374     -0.68055448207492      0.00042622874941
C   2.47813196269732      5.65357712333155      0.00063835075260
C   1.22142288457925     -4.97012668293268     -0.00129718634452
C   -3.69316190412301      3.54279732619245     -0.00139355922051
C   -1.22142804110313     -4.97011793159564     -0.00140994817719
C   -4.91452132810043      1.42717581899491     -0.00153192130862
C   3.65678749952045     -4.97295485423912      0.00080007163680
C   -2.47813805026426      5.65357479452875      0.00092287576113
C   -3.69314125872231     -3.54278984697859      0.00136564082345
C   -4.91451200321153     -1.42718062802730      0.00139857359209
C   -0.00000552908399     -5.65043791501335      0.00005899322272
C   -4.89302000425900      2.82518897091939     -0.00040227981744
C   2.47812647313991     -5.65357317188818     -0.00029052915548
C   -3.65679823041642      4.97295655404175     -0.00047374852278
C   -4.89299899901461     -2.82519139505969      0.00006491824035
C   -2.47812801824129     -5.65356579800621     -0.00056571680280
C   -6.13477002348955      0.68054913825639     -0.00086464346868
C   -3.65678835334731     -4.97294365097028      0.00058578382008
C   -6.13476456307132     -0.68055354348201      0.00040575295444
H   5.83528897565761      3.36927626695423      0.00396712770529
H   7.07385965258860      1.22821762089947     -0.00037744837300
H   4.60066374401555      5.51238117445323     -0.00014522814529
H   5.83528386714679     -3.36930568472863     -0.00423551337640
H   -0.00001167146422      6.73853104613662     -0.00389474766392
H   7.07386165167227     -1.22822657074368     -0.00008250934481
H   2.47331421164041      6.74068466339473      0.00017162982210
H   4.60066897122302     -5.51237575717576      0.00039007446835
H   -2.47331820069565      6.74068209160650      0.00047297644710
H   -0.00000978838621     -6.73852780445195      0.00458867820736
H   -5.83530143450167      3.36927132229595      0.00410314985360
H   2.47330840367253     -6.74068500242887      0.00027980126949
H   -4.60067436136587      5.51237839860371      0.00002010017831
H   -5.83527902699321     -3.36928859177951     -0.00451481925734
H   -2.47329986759855     -6.74067870613986     -0.00016951527498
H   -7.07385728692578      1.22822084484047     -0.00046143985387
H   -4.60067330624313     -5.51236229778631      0.00021776644566
H   -7.07385645456741     -1.22822025997701     -0.00017736581114

    units angstrom      # Angstroms are the default
    no_reorient         # Geometry fixed, default
    symmetry c1         # C1 symmetry, default
}

set {
    scf_type DF         # Density fitting, faster than exact integrals
    freeze_core True    # Freeze core electrons
    basis jun-cc-pVDZ   # Jun-cc-pVDZ basis set, recommended for sSAPT0 in https://doi.org/10.1063/1.4867135
}

energy('ssapt0')        # Compute sSAPT0 energy, includes also SAPT0
--------------------------------------------------------------------------

  //              Dimer HF             //
    Molecular point group: c1
  Charge       = 1
  Multiplicity = 1
  Basis Set: JUN-CC-PVDZ
    Blend: JUN-CC-PVDZ
  Basis Set: (JUN-CC-PVDZ AUX)
    Blend: JUN-CC-PVDZ-JKFIT
  @DF-RHF Final Energy: -2359.19468304081511
    Total Energy =                      -2359.1946830408160167
 Dipole X            :         -0.0011185            0.0006313           -0.0004872
 Dipole Y            :         -5.4229609            7.4856329            2.0626720
 Dipole Z            :         31.9570010          -46.0697915          -14.1127906
 Magnitude           :                                                   14.2627302
  //            Monomer A HF           //
    Molecular point group: c1
  Multiplicity = 1
  Basis Set: JUN-CC-PVDZ
    Blend: JUN-CC-PVDZ
  Basis Set: (JUN-CC-PVDZ AUX)
    Blend: JUN-CC-PVDZ-JKFIT
  @DF-RHF Final Energy:  -303.29717276831985
    Total Energy =                       -303.2971727683198537
  //            Monomer B HF           //
    Molecular point group: c1

    Geometry (in Angstrom), charge = 0, multiplicity = 1:

       Center              X                  Y                   Z               Mass
    ------------   -----------------  -----------------  -----------------  -----------------
      Gh(C)           0.680066520158     1.235968212970    -9.245747719448    12.000000000000
      Gh(C)          -0.680504479842     1.237996212970    -9.245363719448    12.000000000000
      Gh(N)          -1.085635479842     1.238994212970    -7.927039719448    14.003074004430
      Gh(C)           0.000107520158     1.242270212970    -7.145638719448    12.000000000000
      Gh(C)          -2.477365479842     1.288400212970    -7.459060719448    12.000000000000
      Gh(N)           1.085221520158     1.238994212970    -7.927039719448    14.003074004430
      Gh(H)           1.385145520158     1.228140212970   -10.063186719448     1.007825032230
      Gh(H)          -1.385302479842     1.237806212970   -10.063032719448     1.007825032230
      Gh(H)          -0.000009479842     1.244017212970    -6.064549719448     1.007825032230
      Gh(C)           2.478116520158     1.222102212970    -7.461941719448    12.000000000000
      Gh(H)           2.490591520158     1.249447212970    -6.371688719448     1.007825032230
      Gh(H)           2.967027520158     0.308656212970    -7.809117719448     1.007825032230
      Gh(H)           3.001427520158     2.097585212970    -7.853413719448     1.007825032230
      Gh(H)          -2.857359479842     2.310471212970    -7.539019719448     1.007825032230
      Gh(H)          -3.082679479842     0.618316212970    -8.072124719448     1.007825032230
      Gh(H)          -2.518128479842     0.961416212970    -6.419112719448     1.007825032230
         C            1.225311895423     0.526248873889     1.176318907836    12.000000000000
         C            1.225323856051    -0.888828309601     1.163988098266    12.000000000000
         C           -0.000006153932     1.233676499060     1.163454474745    12.000000000000
         C            2.456448753949     1.237038472148     1.179205765236    12.000000000000
         C            0.000010827279    -1.596265913665     1.173654032069    12.000000000000
         C           -1.225300948908     0.526255958954     1.178570428159    12.000000000000
         C            2.456437755320    -1.599612718911     1.161742941409    12.000000000000
         C           -0.000001332978     2.655511616251     1.161050924611    12.000000000000
         C            3.681826697470     0.528028540971     1.162091731207    12.000000000000
         C            2.455120048865     2.652934246459     1.161989174246    12.000000000000
         C            3.681821105219    -0.890623254459     1.178164215225    12.000000000000
         C           -1.225313598688    -0.888816930574     1.165060859693    12.000000000000
         C            1.226699581202     3.362180068964     1.178348247156    12.000000000000
         C            0.000004784858    -3.018071554266     1.178502199691    12.000000000000
         C           -2.456436032848     1.237027503255     1.178605824004    12.000000000000
         C            2.455123417779    -3.015519443619     1.178012306858    12.000000000000
         C           -1.226714364589     3.362179648720     1.178451580375    12.000000000000
         C            4.914517295202     1.245883457459     1.168572414236    12.000000000000
         C            3.693150191476     3.361505877515     1.168622213872    12.000000000000
         C           -2.456437600068    -1.599602695869     1.161717903284    12.000000000000
         C            1.226704841943    -3.724763656937     1.162378116406    12.000000000000
         C           -2.455125398508     2.652927247604     1.161995550592    12.000000000000
         C            4.914524380782    -1.608476324974     1.171545156971    12.000000000000
         C            1.221424613699     4.788844650230     1.171683591230    12.000000000000
         C            4.893008229321     2.643898584996     1.169789082595    12.000000000000
         C           -1.226697008489    -3.724760412107     1.162645320816    12.000000000000
         C           -3.681818976526     0.528035551702     1.162104411687    12.000000000000
         C            3.693147101150    -3.724090756421     1.171663047532    12.000000000000
         C           -1.221432251994     4.788838882833     1.171867086603    12.000000000000
         C            6.134770972926     0.499258532075     1.169342188786    12.000000000000
         C            3.656788880610     4.791663828537     1.169530851655    12.000000000000
         C           -2.455126907733    -3.015504508091     1.177767949059    12.000000000000
         C           -3.681819179061    -0.890615118499     1.178281836804    12.000000000000
         C            4.893012617914    -3.006489520662     1.170400234490    12.000000000000
         C           -0.000001073113     5.469157951002     1.170635777896    12.000000000000
         C            6.134775112332    -0.861844269105     1.170607509302    12.000000000000
         C            2.478131482856     5.472287336301     1.170819631305    12.000000000000
         C            1.221422404738    -5.151416469963     1.168884094208    12.000000000000
         C           -3.693162383965     3.361507539162     1.168787721332    12.000000000000
         C           -1.221428520945    -5.151407718626     1.168771332375    12.000000000000
         C           -4.914521807942     1.245886031965     1.168649359244    12.000000000000
         C            3.656787019679    -5.154244641269     1.170981352189    12.000000000000
         C           -2.478138530106     5.472285007498     1.171104156313    12.000000000000
         C           -3.693141738564    -3.724079634009     1.171546921376    12.000000000000
         C           -4.914512483053    -1.608470415058     1.171579854144    12.000000000000
         C           -0.000006008926    -5.831727702044     1.170240273775    12.000000000000
         C           -4.893020484101     2.643899183889     1.169779000735    12.000000000000
         C            2.478125993298    -5.834862958919     1.169890751397    12.000000000000
         C           -3.656798710258     4.791666767011     1.169707532030    12.000000000000
         C           -4.892999478856    -3.006481182090     1.170246198793    12.000000000000
         C           -2.478128498083    -5.834855585037     1.169615563750    12.000000000000
         C           -6.134770503331     0.499259351226     1.169316637084    12.000000000000
         C           -3.656788833189    -5.154233438001     1.170767064372    12.000000000000
         C           -6.134765042913    -0.861843330512     1.170587033507    12.000000000000
         H            5.835288495816     3.187986479924     1.174148408258     1.007825032230
         H            7.073859172747     1.046927833869     1.169803832179     1.007825032230
         H            4.600663264174     5.331091387423     1.170036052407     1.007825032230
         H            5.835283387305    -3.550595471759     1.165945767176     1.007825032230
         H           -0.000012151306     6.557241259106     1.166286532888     1.007825032230
         H            7.073861171831    -1.409516357774     1.170098771208     1.007825032230
         H            2.473313731799     6.559394876364     1.170352910374     1.007825032230
         H            4.600668491381    -5.693665544206     1.170571355021     1.007825032230
         H           -2.473318680537     6.559392304576     1.170654256999     1.007825032230
         H           -0.000010268228    -6.919817591482     1.174769958760     1.007825032230
         H           -5.835301914343     3.187981535266     1.174284430406     1.007825032230
         H            2.473307923831    -6.921974789459     1.170461081822     1.007825032230
         H           -4.600674841208     5.331088611573     1.170201380731     1.007825032230
         H           -5.835279506835    -3.550578378810     1.165666461295     1.007825032230
         H           -2.473300347440    -6.921968493170     1.170011765277     1.007825032230
         H           -7.073857766768     1.046931057810     1.169719840698     1.007825032230
         H           -4.600673786085    -5.693652084817     1.170399046998     1.007825032230
         H           -7.073856934409    -1.409510047007     1.170003914741     1.007825032230

  Charge       = 0
  Multiplicity = 1
  Basis Set: JUN-CC-PVDZ
    Blend: JUN-CC-PVDZ
  Basis Set: (JUN-CC-PVDZ AUX)
    Blend: JUN-CC-PVDZ-JKFIT

    Orbital Energies [Eh]
    ---------------------

    Doubly Occupied:

       1A    -11.260679     2A    -11.260236     3A    -11.260234
       4A    -11.259525     5A    -11.259524     6A    -11.259354
       7A    -11.259145     8A    -11.259068     9A    -11.259066
      10A    -11.258742    11A    -11.258738    12A    -11.258669
      13A    -11.258607    14A    -11.258601    15A    -11.258599
      16A    -11.258570    17A    -11.258564    18A    -11.258547
      19A    -11.258534    20A    -11.258529    21A    -11.258524
      22A    -11.258426    23A    -11.258423    24A    -11.258125
      25A    -11.257464    26A    -11.257402    27A    -11.257401
      28A    -11.257267    29A    -11.257266    30A    -11.257182
      31A    -11.256560    32A    -11.256489    33A    -11.256488
      34A    -11.256379    35A    -11.256379    36A    -11.256331
      37A    -11.252404    38A    -11.252404    39A    -11.252402
      40A    -11.252401    41A    -11.252399    42A    -11.252397
      43A    -11.251539    44A    -11.251537    45A    -11.251536
      46A    -11.251530    47A    -11.251529    48A    -11.251525
      49A    -11.250966    50A    -11.250965    51A    -11.250963
      52A    -11.250961    53A    -11.250960    54A    -11.250958
      55A     -1.244304    56A     -1.220022    57A     -1.220020
      58A     -1.189729    59A     -1.189722    60A     -1.181174
      61A     -1.157729    62A     -1.149161    63A     -1.135713
      64A     -1.135706    65A     -1.113362    66A     -1.113357
      67A     -1.082636    68A     -1.082629    69A     -1.078820
      70A     -1.066145    71A     -1.066141    72A     -1.039586
      73A     -1.024498    74A     -1.022003    75A     -1.021960
      76A     -1.017894    77A     -1.012956    78A     -0.987229
      79A     -0.987183    80A     -0.962056    81A     -0.962006
      82A     -0.894475    83A     -0.894448    84A     -0.888175
      85A     -0.886421    86A     -0.886363    87A     -0.881608
      88A     -0.881561    89A     -0.862080    90A     -0.837557
      91A     -0.818398    92A     -0.816841    93A     -0.812348
      94A     -0.812339    95A     -0.794861    96A     -0.794851
      97A     -0.746847    98A     -0.745073    99A     -0.733642
     100A     -0.733633   101A     -0.732360   102A     -0.732337
     103A     -0.716708   104A     -0.699157   105A     -0.699146
     106A     -0.693783   107A     -0.693768   108A     -0.661407
     109A     -0.653343   110A     -0.651388   111A     -0.650424
     112A     -0.650418   113A     -0.639536   114A     -0.639534
     115A     -0.629922   116A     -0.627733   117A     -0.627718
     118A     -0.606461   119A     -0.605939   120A     -0.601875
     121A     -0.599927   122A     -0.599895   123A     -0.593831
     124A     -0.591464   125A     -0.591453   126A     -0.585425
     127A     -0.576421   128A     -0.576416   129A     -0.567485
     130A     -0.567470   131A     -0.566174   132A     -0.566155
     133A     -0.558950   134A     -0.555030   135A     -0.555024
     136A     -0.538767   137A     -0.538765   138A     -0.538293
     139A     -0.538287   140A     -0.529903   141A     -0.528210
     142A     -0.523058   143A     -0.523052   144A     -0.500675
     145A     -0.495724   146A     -0.493414   147A     -0.487952
     148A     -0.485274   149A     -0.481955   150A     -0.481948
     151A     -0.470443   152A     -0.470425   153A     -0.451261
     154A     -0.451183   155A     -0.439194   156A     -0.439185
     157A     -0.404875   158A     -0.404852   159A     -0.403496
     160A     -0.375548   161A     -0.375545   162A     -0.349253
     163A     -0.337722   164A     -0.336690   165A     -0.336632
     166A     -0.311229   167A     -0.298215   168A     -0.284487
     169A     -0.284433   170A     -0.225054   171A     -0.224989

  @DF-RHF Final Energy: -2055.89160279195312

   => Energetics <=

    Nuclear Repulsion Energy =           6452.5568002797781446
    One-Electron Energy =              -15636.4240783259101590
    Two-Electron Energy =                7127.9756752541779861
    Total Energy =                      -2055.8916027919531189
 Dipole X            :          0.0001053           -0.0000085            0.0000968
 Dipole Y            :        117.1649105         -117.1648546            0.0000559
 Dipole Z            :       -756.2703751          756.2707280            0.0003529
 Magnitude           :                                                    0.0003702

    SAPT Results
  --------------------------------------------------------------------------------------------------------
    Electrostatics                 -4.84232556 [mEh]      -3.03860516 [kcal/mol]     -12.71352400 [kJ/mol]
      Elst10,r                     -4.84232556 [mEh]      -3.03860516 [kcal/mol]     -12.71352400 [kJ/mol]

    Exchange                       -0.00004161 [mEh]      -0.00002611 [kcal/mol]      -0.00010924 [kJ/mol]
      Exch10                       -0.00004161 [mEh]      -0.00002611 [kcal/mol]      -0.00010924 [kJ/mol]
      Exch10(S^2)                  -0.00004161 [mEh]      -0.00002611 [kcal/mol]      -0.00010924 [kJ/mol]

    Induction                      -1.06511338 [mEh]      -0.66836873 [kcal/mol]      -2.79645478 [kJ/mol]
      Ind20,r                      -1.05528163 [mEh]      -0.66219922 [kcal/mol]      -2.77064153 [kJ/mol]
      Exch-Ind20,r                  0.00001405 [mEh]       0.00000882 [kcal/mol]       0.00003689 [kJ/mol]
      delta HF,r (2)               -0.00984580 [mEh]      -0.00617833 [kcal/mol]      -0.02585014 [kJ/mol]

    Dispersion                     -0.36530155 [mEh]      -0.22923018 [kcal/mol]      -0.95909908 [kJ/mol]
      Disp20                       -0.36530788 [mEh]      -0.22923415 [kcal/mol]      -0.95911570 [kJ/mol]
      Exch-Disp20                   0.00000633 [mEh]       0.00000397 [kcal/mol]       0.00001663 [kJ/mol]
      Disp20 (SS)                  -0.18265394 [mEh]      -0.11461708 [kcal/mol]      -0.47955785 [kJ/mol]
      Disp20 (OS)                  -0.18265394 [mEh]      -0.11461708 [kcal/mol]      -0.47955785 [kJ/mol]
      Exch-Disp20 (SS)              0.00000463 [mEh]       0.00000290 [kcal/mol]       0.00001215 [kJ/mol]
      Exch-Disp20 (OS)              0.00000171 [mEh]       0.00000107 [kcal/mol]       0.00000448 [kJ/mol]

  Total HF                         -5.90748054 [mEh]      -3.70700001 [kcal/mol]     -15.51008803 [kJ/mol]
  Total SAPT0                      -6.27278209 [mEh]      -3.93623019 [kcal/mol]     -16.46918711 [kJ/mol]

  Special recipe for scaled SAPT0 (see Manual):
    Electrostatics sSAPT0          -4.84232556 [mEh]      -3.03860516 [kcal/mol]     -12.71352400 [kJ/mol]
    Exchange sSAPT0                -0.00004161 [mEh]      -0.00002611 [kcal/mol]      -0.00010924 [kJ/mol]
    Induction sSAPT0               -1.06511338 [mEh]      -0.66836873 [kcal/mol]      -2.79645478 [kJ/mol]
    Dispersion sSAPT0              -0.36530155 [mEh]      -0.22923018 [kcal/mol]      -0.95909908 [kJ/mol]
  Total sSAPT0                     -6.27278209 [mEh]      -3.93623019 [kcal/mol]     -16.46918711 [kJ/mol]
  --------------------------------------------------------------------------------------------------------

*** Psi4 exiting successfully. Buy a developer a beer!
