                               Psi4 1.9 release

  ==> Input File <==

--------------------------------------------------------------------------
memory 47 GB # how much memory is available ! Depends on the nodes/cores !

molecule dimer {
# monomer A
-1 1    # Charge and multiplicity
B -1.977592e-04  2.742729e-04 5.400034
F  1.123153e-16  1.430594e-17 6.812819
F  1.147860e+00  6.757812e-01 4.928893
F  1.191806e-02 -1.332011e+00 4.929095
F -1.159666e+00  6.560735e-01 4.929174
--
# monomer B
0 1     # Charge and multiplicity
C   -3.66844126402057      7.80375217008252      0.00190004133558
C   -4.84759871934653      7.13124183134024     -0.00046653359696
C   -4.89495929917518      5.69633040353158     -0.00103944469517
C   -3.65374067877320      4.98073034095895      0.00662099703436
C   -2.40942512149445      7.11398103667468      0.00209438359570
C   -2.42547734410473      5.68112195090346     -0.00491050527438
C   -1.19474401643570      7.78614419430947      0.00356656413763
C   0.03795902893699      7.09942164575698      0.00139585983271
C   0.03033258741920      5.66948955970466     -0.00408752508301
C   -1.20098450790502      4.96927034791531      0.00488220885047
C   1.27795782581485      7.77285944319479      0.00277170839332
C   2.48535808472416      7.08769688523756      0.00049722048857
C   2.48612868491717      5.65477081024076     -0.00644052849921
C   1.25408291964399      4.95607811366431      0.00518741308898
C   3.75171459140595      7.76391215098033      0.00062407186893
C   4.92356605618520      7.07878077698995     -0.00143240883900
C   4.95560727132542      5.64344746336949     -0.00159282164606
C   3.70680153420475      4.94121020833308      0.00349873852374
H   -3.65852113775815      8.89082741913536      0.00358502958574
H   -1.18921332975660      8.87412108735996      0.00753844057883
H   1.28429423888630      8.86083343548850      0.00693053253426
H   3.75354208679975      8.85103527897216      0.00214659618464
H   5.86995870320703      7.61379483465560     -0.00235777588134
H   -5.78823170750226      7.67630221293400     -0.00202638095293
C   -6.09197395869619      4.99326001364347     -0.00291168518608
C   -6.12866148031747      3.58258016879823     -0.00171050815740
C   -3.66457974004527      3.56418217974434     -0.00463560277484
C   -4.89429820469869      2.86108077590057      0.00453338221034
C   -2.43733499489796      2.84761165708481      0.00719617576166
C   -1.20922785759670      3.54788693497833     -0.00648285103018
C   1.24714157216223      3.53468075142962     -0.00729145743546
C   0.01517603956900      2.83311183930540      0.00439272578912
C   2.46764517244071      2.82128997725533      0.00449278391269
C   3.70254947457969      3.52466015442405     -0.00899517692985
C   6.14498038638375      4.92757236613191     -0.00282626685777
C   6.16658835886151      3.51658447594213     -0.00065971342101
C   4.92460995845939      2.80840792535402      0.00587903281610
H   7.08990550964105      5.46688776622306     -0.00658814770723
H   -7.03104175110130      5.54268795285765     -0.00714490013730
C   -7.33969804112295      2.85841153457957     -0.00333767559888
C   -7.36488195805880      1.47032337158330     -0.00157213747140
C   -4.90350460894690      1.44442681216000     -0.00628840166334
C   -6.13225715261081      0.73993935705394      0.00600164231964
C   -3.67687480051673      0.72669714267312      0.00433931473643
C   -2.44565658606518      1.42964113326212     -0.00597039546461
C   -1.22360068130162      0.71532450163492      0.00545886906656
C   0.00763786931376      1.41738314923765      0.00392452278437
C   1.23121980774686      0.70211669058719     -0.01490206287210
C   2.46082110053113      1.40329203612573      0.00460244601878
C   3.68443025419614      0.68719842821222      0.00377365974158
C   4.91870890153864      1.39173456118907     -0.00862816189375
C   7.36980207796101      2.77948220318441     -0.00242013321349
C   7.38016266612146      1.39121750785509     -0.00087345036788
C   6.13979953912259      0.67411862320065      0.00545489144369
H   -8.27919079934664      3.40711804112415     -0.00763522772059
H   8.31511347147953      3.31811809662368     -0.00663070901292
C   -8.59175593758115      0.72483255304480     -0.00123170985383
C   -8.59902460370342     -0.63263980622873      0.00089141472904
C   -6.13981313911873     -0.67413663715361     -0.00609792660607
C   -7.38018411213749     -1.39126618958160      0.00131813493501
C   -4.91868448025621     -1.39175501803000      0.00624257154343
C   -3.68443829568458     -0.68723731573599     -0.00478966852105
C   -2.46081704024768     -1.40334517882457      0.00575341766833
C   -1.23116201232071     -0.70217386488055     -0.00636696112346
C   -0.00756962538737     -1.41741884941102      0.00108956317991
C   1.22364771588843     -0.71527537726392      0.01109518512883
C   2.44567064933149     -1.42964328900682     -0.00065482763106
C   3.67686670284649     -0.72670743155550     -0.00479541202602
C   6.13224884641929     -0.73997883984993     -0.00632338623858
C   4.90351914550401     -1.44445752054090      0.00751768830159
C   8.59901484869081      0.63260386666793     -0.00101133422380
C   8.59174548810050     -0.72485086719319      0.00072504603735
C   7.36486276438985     -1.47033266560598      0.00049486934466
H   -9.52830597181814      1.27684744919284     -0.00270163681798
H   9.54141097460619      1.17457248844457     -0.00206336648518
C   -7.36983790976868     -2.77954514593389      0.00312634335708
C   -4.92459910905015     -2.80843725734101     -0.00460528907921
C   -6.16662249566744     -3.51665219282533      0.00169655107992
C   -3.70251035970491     -3.52468154912026      0.00571878010666
C   -2.46764698511392     -2.82132596280400     -0.00632585824990
C   -0.01513347410770     -2.83314164539971     -0.00604426974092
C   -1.24712184122656     -3.53473217556300      0.00551968366725
C   1.20924506964357     -3.54791467864352      0.00805871345849
C   2.43733602215464     -2.84764173817541     -0.00608104485234
C   4.89430234377080     -2.86112296828604     -0.00526030478103
C   3.66461525504104     -3.56421984553201      0.00761911515957
C   6.12863901474565     -3.58258405771778      0.00096495711699
C   7.33967266469532     -2.85841330737039      0.00248018319869
H   -9.54144911125902     -1.17456346666430      0.00226083090216
H   9.52826186807155     -1.27691907390448      0.00197485379837
H   -8.31516504384864     -3.31814985321231      0.00729857188773
H   8.27915514249207     -3.40714078989363      0.00681973918158
C   -6.14499418870218     -4.92764727278338      0.00302254913999
C   -3.70678334799751     -4.94126171411716     -0.00679841894792
C   -4.95559005800169     -5.64349397349412      0.00116871569699
C   -2.48612132622665     -5.65478557440947      0.00614125209662
C   -1.25405833548005     -4.95612205000132     -0.00503435388927
C   1.20101257386816     -4.96928038819302     -0.00385322963129
C   -0.03033667441341     -5.66952030313900      0.00398997003238
C   3.65375010132847     -4.98074377541453     -0.00309522988330
C   2.42549269587528     -5.68117463552727      0.00628170066869
C   6.09196561781097     -4.99325796338655      0.00325918379042
C   4.89497644461045     -5.69634842095790      0.00202298796027
H   -7.08989238804069     -5.46699984223871      0.00742531082125
H   7.03105520920009     -5.54265853633254      0.00683896355417
C   -4.92354532219813     -7.07882109967734      0.00061394679214
C   -2.48534208823777     -7.08772807792913     -0.00189594564379
C   -3.75168589177895     -7.76394715763627     -0.00170126671874
C   -0.03794895698805     -7.09946487446944     -0.00168022049625
C   -1.27795610040136     -7.77290438466689     -0.00366491325785
C   2.40944432072629     -7.11402201200282     -0.00081701968533
C   1.19474993715296     -7.78618536556242     -0.00296931056689
C   4.84762105249800     -7.13126211057943      0.00168979497423
C   3.66847160587561     -7.80378799294376     -0.00065863938960
H   -5.86994035041618     -7.61383059804164      0.00215798365757
H   5.78824962538815     -7.67633218931421      0.00281691445618
H   -3.75352693944918     -8.85107156923607     -0.00353718114765
H   -1.28430440589466     -8.86087539249706     -0.00809229711623
H   1.18922157469537     -8.87416062058945     -0.00706194725726
H   3.65854661482387     -8.89086063405326     -0.00231318081200

    units angstrom      # Angstroms are the default
    no_reorient         # Geometry fixed, default
    symmetry c1         # C1 symmetry, default
}

set {
    scf_type DF         # Density fitting, faster than exact integrals
    freeze_core True    # Freeze core electrons
    basis jun-cc-pVDZ   # Jun-cc-pVDZ basis set, recommended for sSAPT0 in https://doi.org/10.1063/1.4867135
}

energy('ssapt0')        # Compute sSAPT0 energy, includes also SAPT0
--------------------------------------------------------------------------

  //              Dimer HF             //
    Molecular point group: c1
  Charge       = -1
  Multiplicity = 1
  Basis Set: JUN-CC-PVDZ
    Blend: JUN-CC-PVDZ
  Basis Set: (JUN-CC-PVDZ AUX)
    Blend: JUN-CC-PVDZ-JKFIT
  @DF-RHF Final Energy: -4073.10601033275907
    Total Energy =                      -4073.1060103327581601
 Dipole X            :         -0.0002197           -0.0000548           -0.0002744
 Dipole Y            :          0.0010697           -0.0002464            0.0008234
 Dipole Z            :         23.8291717          -32.1365715           -8.3073998
 Magnitude           :                                                    8.3073999
  //            Monomer A HF           //
    Molecular point group: c1
  Multiplicity = 1
  Basis Set: JUN-CC-PVDZ
    Blend: JUN-CC-PVDZ
  Basis Set: (JUN-CC-PVDZ AUX)
    Blend: JUN-CC-PVDZ-JKFIT
  @DF-RHF Final Energy:  -422.77180150042773
    Total Energy =                       -422.7718015004277277
  //            Monomer B HF           //
    Molecular point group: c1

    Geometry (in Angstrom), charge = 0, multiplicity = 1:

       Center              X                  Y                   Z               Mass
    ------------   -----------------  -----------------  -----------------  -----------------
      Gh(B)          -0.000201921932     0.000288800891     5.028103055897    11.009305360000
      Gh(F)          -0.000004162732     0.000014527991     6.440888055897    18.998403162730
      Gh(F)           1.147855837268     0.675795727991     4.556962055897    18.998403162730
      Gh(F)           0.011913897268    -1.331996472009     4.557164055897    18.998403162730
      Gh(F)          -1.159670162732     0.656088027991     4.557243055897    18.998403162730
         C           -3.668445426752     7.803766698073    -0.370030902767    12.000000000000
         C           -4.847602882078     7.131256359331    -0.372397477700    12.000000000000
         C           -4.894963461907     5.696344931522    -0.372970388798    12.000000000000
         C           -3.653744841505     4.980744868950    -0.365309947069    12.000000000000
         C           -2.409429284226     7.113995564665    -0.369836560507    12.000000000000
         C           -2.425481506836     5.681136478894    -0.376841449377    12.000000000000
         C           -1.194748179167     7.786158722300    -0.368364379965    12.000000000000
         C            0.037954866205     7.099436173748    -0.370535084270    12.000000000000
         C            0.030328424687     5.669504087695    -0.376018469186    12.000000000000
         C           -1.200988670637     4.969284875906    -0.367048735252    12.000000000000
         C            1.277953663083     7.772873971185    -0.369159235710    12.000000000000
         C            2.485353921992     7.087711413228    -0.371433723614    12.000000000000
         C            2.486124522185     5.654785338231    -0.378371472602    12.000000000000
         C            1.254078756912     4.956092641655    -0.366743531014    12.000000000000
         C            3.751710428674     7.763926678971    -0.371306872234    12.000000000000
         C            4.923561893453     7.078795304981    -0.373363352942    12.000000000000
         C            4.955603108594     5.643461991360    -0.373523765749    12.000000000000
         C            3.706797371473     4.941224736324    -0.368432205579    12.000000000000
         H           -3.658525300490     8.890841947126    -0.368345914517     1.007825032230
         H           -1.189217492488     8.874135615351    -0.364392503524     1.007825032230
         H            1.284290076155     8.860847963479    -0.365000411569     1.007825032230
         H            3.753537924068     8.851049806963    -0.369784347918     1.007825032230
         H            5.869954540475     7.613809362646    -0.374288719984     1.007825032230
         H           -5.788235870234     7.676316740925    -0.373957325056     1.007825032230
         C           -6.091978121428     4.993274541634    -0.374842629289    12.000000000000
         C           -6.128665643049     3.582594696789    -0.373641452260    12.000000000000
         C           -3.664583902777     3.564196707735    -0.376566546878    12.000000000000
         C           -4.894302367430     2.861095303891    -0.367397561893    12.000000000000
         C           -2.437339157630     2.847626185075    -0.364734768341    12.000000000000
         C           -1.209232020328     3.547901462969    -0.378413795133    12.000000000000
         C            1.247137409430     3.534695279420    -0.379222401538    12.000000000000
         C            0.015171876837     2.833126367296    -0.367538218314    12.000000000000
         C            2.467641009709     2.821304505246    -0.367438160190    12.000000000000
         C            3.702545311848     3.524674682415    -0.380926121033    12.000000000000
         C            6.144976223652     4.927586894122    -0.374757210961    12.000000000000
         C            6.166584196130     3.516599003933    -0.372590657524    12.000000000000
         C            4.924605795728     2.808422453345    -0.366051911287    12.000000000000
         H            7.089901346909     5.466902294214    -0.378519091810     1.007825032230
         H           -7.031045913833     5.542702480848    -0.379075844240     1.007825032230
         C           -7.339702203855     2.858426062570    -0.375268619702    12.000000000000
         C           -7.364886120791     1.470337899574    -0.373503081574    12.000000000000
         C           -4.903508771679     1.444441340151    -0.378219345766    12.000000000000
         C           -6.132261315343     0.739953885044    -0.365929301783    12.000000000000
         C           -3.676878963248     0.726711670664    -0.367591629367    12.000000000000
         C           -2.445660748797     1.429655661253    -0.377901339568    12.000000000000
         C           -1.223604844033     0.715339029625    -0.366472075036    12.000000000000
         C            0.007633706582     1.417397677228    -0.368006421319    12.000000000000
         C            1.231215645015     0.702131218578    -0.386833006975    12.000000000000
         C            2.460816937799     1.403306564116    -0.367328498084    12.000000000000
         C            3.684426091464     0.687212956203    -0.368157284361    12.000000000000
         C            4.918704738807     1.391749089180    -0.380559105997    12.000000000000
         C            7.369797915229     2.779496731175    -0.374351077316    12.000000000000
         C            7.380158503390     1.391232035846    -0.372804394471    12.000000000000
         C            6.139795376391     0.674133151191    -0.366476052659    12.000000000000
         H           -8.279194962078     3.407132569115    -0.379566171824     1.007825032230
         H            8.315109308748     3.318132624614    -0.378561653116     1.007825032230
         C           -8.591760100313     0.724847081035    -0.373162653957    12.000000000000
         C           -8.599028766435    -0.632625278238    -0.371039529374    12.000000000000
         C           -6.139817301850    -0.674122109163    -0.378028870709    12.000000000000
         C           -7.380188274869    -1.391251661591    -0.370612809168    12.000000000000
         C           -4.918688642988    -1.391740490039    -0.365688372560    12.000000000000
         C           -3.684442458416    -0.687222787745    -0.376720612624    12.000000000000
         C           -2.460821202979    -1.403330650834    -0.366177526435    12.000000000000
         C           -1.231166175052    -0.702159336890    -0.378297905226    12.000000000000
         C           -0.007573788119    -1.417404321420    -0.370841380923    12.000000000000
         C            1.223643553157    -0.715260849273    -0.360835758974    12.000000000000
         C            2.445666486600    -1.429628761016    -0.372585771734    12.000000000000
         C            3.676862540115    -0.726692903565    -0.376726356129    12.000000000000
         C            6.132244683688    -0.739964311859    -0.378254330342    12.000000000000
         C            4.903514982772    -1.444442992550    -0.364413255801    12.000000000000
         C            8.599010685959     0.632618394658    -0.372942278327    12.000000000000
         C            8.591741325369    -0.724836339203    -0.371205898066    12.000000000000
         C            7.364858601658    -1.470318137615    -0.371436074758    12.000000000000
         H           -9.528310134550     1.276861977183    -0.374632580921     1.007825032230
         H            9.541406811874     1.174587016435    -0.373994310588     1.007825032230
         C           -7.369842072500    -2.779530617943    -0.368804600746    12.000000000000
         C           -4.924603271782    -2.808422729350    -0.376536233182    12.000000000000
         C           -6.166626658399    -3.516637664835    -0.370234393023    12.000000000000
         C           -3.702514522437    -3.524667021130    -0.366212163996    12.000000000000
         C           -2.467651147846    -2.821311434813    -0.378256802353    12.000000000000
         C           -0.015137636839    -2.833127117409    -0.377975213844    12.000000000000
         C           -1.247126003958    -3.534717647572    -0.366411260436    12.000000000000
         C            1.209240906912    -3.547900150653    -0.363872230644    12.000000000000
         C            2.437331859423    -2.847627210185    -0.378011988955    12.000000000000
         C            4.894298181039    -2.861108440295    -0.377191248884    12.000000000000
         C            3.664611092309    -3.564205317541    -0.364311828943    12.000000000000
         C            6.128634852014    -3.582569529727    -0.370965986986    12.000000000000
         C            7.339668501964    -2.858398779380    -0.369450760904    12.000000000000
         H           -9.541453273991    -1.174548938674    -0.369670113201     1.007825032230
         H            9.528257705340    -1.276904545914    -0.369956090305     1.007825032230
         H           -8.315169206580    -3.318135325222    -0.364632372215     1.007825032230
         H            8.279150979760    -3.407126261903    -0.365111204921     1.007825032230
         C           -6.144998351434    -4.927632744793    -0.368908394963    12.000000000000
         C           -3.706787510729    -4.941247186127    -0.378729363051    12.000000000000
         C           -4.955594220733    -5.643479445504    -0.370762228406    12.000000000000
         C           -2.486125488958    -5.654771046419    -0.365789692006    12.000000000000
         C           -1.254062498212    -4.956107522011    -0.376965297992    12.000000000000
         C            1.201008411136    -4.969265860202    -0.375784173734    12.000000000000
         C           -0.030340837145    -5.669505775148    -0.367940974071    12.000000000000
         C            3.653745938597    -4.980729247424    -0.375026173986    12.000000000000
         C            2.425488533144    -5.681160107537    -0.365649243434    12.000000000000
         C            6.091961455079    -4.993243435396    -0.368671760313    12.000000000000
         C            4.894972281879    -5.696333892967    -0.369907956143    12.000000000000
         H           -7.089896550772    -5.466985314248    -0.364505633282     1.007825032230
         H            7.031051046468    -5.542644008342    -0.365091980549     1.007825032230
         C           -4.923549484930    -7.078806571687    -0.371316997311    12.000000000000
         C           -2.485346250970    -7.087713549939    -0.373826889747    12.000000000000
         C           -3.751690054511    -7.763932629646    -0.373632210822    12.000000000000
         C           -0.037953119720    -7.099450346479    -0.373611164599    12.000000000000
         C           -1.277960263133    -7.772889856676    -0.375595857361    12.000000000000
         C            2.409440157995    -7.114007484012    -0.372747963788    12.000000000000
         C            1.194745774421    -7.786170837572    -0.374900254670    12.000000000000
         C            4.847616889766    -7.131247582589    -0.370241149129    12.000000000000
         C            3.668467443144    -7.803773464953    -0.372589583493    12.000000000000
         H           -5.869944513148    -7.613816070051    -0.369772960445     1.007825032230
         H            5.788245462656    -7.676317661324    -0.369114029647     1.007825032230
         H           -3.753531102181    -8.851057041246    -0.375468125251     1.007825032230
         H           -1.284308568626    -8.860860864507    -0.380023241219     1.007825032230
         H            1.189217411964    -8.874146092599    -0.378992891360     1.007825032230
         H            3.658542452092    -8.890846106063    -0.374244124915     1.007825032230

  Charge       = 0
  Multiplicity = 1
  Basis Set: JUN-CC-PVDZ
    Blend: JUN-CC-PVDZ
  Basis Set: (JUN-CC-PVDZ AUX)
    Blend: JUN-CC-PVDZ-JKFIT

    Orbital Energies [Eh]
    ---------------------

    Doubly Occupied:

       1A    -11.264020     2A    -11.263702     3A    -11.263702
       4A    -11.263357     5A    -11.263355     6A    -11.263319
       7A    -11.263163     8A    -11.263138     9A    -11.263135
      10A    -11.262973    11A    -11.262816    12A    -11.262812
      13A    -11.262334    14A    -11.262332    15A    -11.262262
      16A    -11.262261    17A    -11.262207    18A    -11.262177
      19A    -11.262132    20A    -11.262095    21A    -11.262093
      22A    -11.261941    23A    -11.261936    24A    -11.261819
      25A    -11.261806    26A    -11.261791    27A    -11.261787
      28A    -11.261740    29A    -11.261732    30A    -11.261657
      31A    -11.261630    32A    -11.261627    33A    -11.261601
      34A    -11.261599    35A    -11.261578    36A    -11.261530
      37A    -11.261398    38A    -11.261387    39A    -11.261381
      40A    -11.261375    41A    -11.261370    42A    -11.261361
      43A    -11.261354    44A    -11.261339    45A    -11.261334
      46A    -11.261312    47A    -11.261308    48A    -11.261304
      49A    -11.261142    50A    -11.261109    51A    -11.261106
      52A    -11.261024    53A    -11.261023    54A    -11.260952
      55A    -11.259995    56A    -11.259982    57A    -11.259979
      58A    -11.259950    59A    -11.259948    60A    -11.259932
      61A    -11.259370    62A    -11.259345    63A    -11.259342
      64A    -11.259290    65A    -11.259288    66A    -11.259259
      67A    -11.258999    68A    -11.258981    69A    -11.258979
      70A    -11.258952    71A    -11.258949    72A    -11.258938
      73A    -11.254577    74A    -11.254576    75A    -11.254574
      76A    -11.254572    77A    -11.254567    78A    -11.254564
      79A    -11.253723    80A    -11.253721    81A    -11.253717
      82A    -11.253716    83A    -11.253714    84A    -11.253709
      85A    -11.253638    86A    -11.253637    87A    -11.253633
      88A    -11.253632    89A    -11.253630    90A    -11.253625
      91A    -11.253105    92A    -11.253104    93A    -11.253102
      94A    -11.253099    95A    -11.253094    96A    -11.253092
      97A     -1.254077    98A     -1.239106    99A     -1.239106
     100A     -1.220558   101A     -1.220553   102A     -1.215557
     103A     -1.201124   104A     -1.195692   105A     -1.188255
     106A     -1.188254   107A     -1.173845   108A     -1.173842
     109A     -1.155737   110A     -1.155734   111A     -1.152830
     112A     -1.144799   113A     -1.144796   114A     -1.128667
     115A     -1.114821   116A     -1.113240   117A     -1.112594
     118A     -1.112580   119A     -1.111691   120A     -1.088527
     121A     -1.088512   122A     -1.077036   123A     -1.077035
     124A     -1.067718   125A     -1.067689   126A     -1.065081
     127A     -1.046892   128A     -1.046884   129A     -1.040577
     130A     -1.038809   131A     -1.038808   132A     -1.025350
     133A     -1.021510   134A     -1.021459   135A     -1.007265
     136A     -1.006907   137A     -1.003882   138A     -1.000595
     139A     -1.000547   140A     -0.991146   141A     -0.971088
     142A     -0.971039   143A     -0.955964   144A     -0.955909
     145A     -0.905714   146A     -0.905672   147A     -0.905619
     148A     -0.905579   149A     -0.904464   150A     -0.892488
     151A     -0.892429   152A     -0.890475   153A     -0.890418
     154A     -0.889558   155A     -0.872296   156A     -0.869117
     157A     -0.851624   158A     -0.847974   159A     -0.847952
     160A     -0.845708   161A     -0.843120   162A     -0.834655
     163A     -0.834642   164A     -0.828190   165A     -0.828186
     166A     -0.784641   167A     -0.784630   168A     -0.783761
     169A     -0.783735   170A     -0.782385   171A     -0.782365
     172A     -0.782141   173A     -0.767081   174A     -0.760910
     175A     -0.750685   176A     -0.733562   177A     -0.727161
     178A     -0.727148   179A     -0.725181   180A     -0.724630
     181A     -0.724611   182A     -0.718608   183A     -0.713879
     184A     -0.713873   185A     -0.699663   186A     -0.699651
     187A     -0.686240   188A     -0.686036   189A     -0.686033
     190A     -0.682257   191A     -0.682246   192A     -0.678873
     193A     -0.653713   194A     -0.650961   195A     -0.650932
     196A     -0.649923   197A     -0.649907   198A     -0.649643
     199A     -0.641040   200A     -0.641013   201A     -0.640168
     202A     -0.639236   203A     -0.636121   204A     -0.636094
     205A     -0.629232   206A     -0.617708   207A     -0.615378
     208A     -0.615358   209A     -0.608886   210A     -0.608879
     211A     -0.599162   212A     -0.599124   213A     -0.598835
     214A     -0.598709   215A     -0.598684   216A     -0.598147
     217A     -0.595144   218A     -0.595132   219A     -0.594809
     220A     -0.594351   221A     -0.592050   222A     -0.592047
     223A     -0.587507   224A     -0.577857   225A     -0.577847
     226A     -0.575712   227A     -0.575709   228A     -0.573462
     229A     -0.569578   230A     -0.568248   231A     -0.568224
     232A     -0.566843   233A     -0.566833   234A     -0.560976
     235A     -0.558816   236A     -0.558797   237A     -0.558492
     238A     -0.554456   239A     -0.550607   240A     -0.547536
     241A     -0.544317   242A     -0.535029   243A     -0.534991
     244A     -0.533619   245A     -0.533597   246A     -0.528153
     247A     -0.528138   248A     -0.527906   249A     -0.517267
     250A     -0.517233   251A     -0.515404   252A     -0.515398
     253A     -0.509717   254A     -0.509700   255A     -0.498108
     256A     -0.496536   257A     -0.496510   258A     -0.493823
     259A     -0.493813   260A     -0.489462   261A     -0.481525
     262A     -0.477467   263A     -0.477464   264A     -0.474074
     265A     -0.469536   266A     -0.466614   267A     -0.466610
     268A     -0.458851   269A     -0.446805   270A     -0.446744
     271A     -0.441076   272A     -0.440806   273A     -0.440781
     274A     -0.434736   275A     -0.433953   276A     -0.407424
     277A     -0.407400   278A     -0.386460   279A     -0.386411
     280A     -0.385777   281A     -0.385776   282A     -0.383803
     283A     -0.354374   284A     -0.354358   285A     -0.350712
     286A     -0.338140   287A     -0.335639   288A     -0.335570
     289A     -0.332760   290A     -0.332753   291A     -0.307134
     292A     -0.301996   293A     -0.301934   294A     -0.300891
     295A     -0.286220   296A     -0.256509   297A     -0.253550
     298A     -0.253497   299A     -0.204311   300A     -0.204222

  @DF-RHF Final Energy: -3650.33821752032281

   => Energetics <=

    Nuclear Repulsion Energy =          15611.4211649754324753
    One-Electron Energy =              -36072.0982544509752188
    Two-Electron Energy =               16810.3388719552203838
    Total Energy =                      -3650.3382175203223596
 Dipole X            :         -0.0008324            0.0002304           -0.0006020
 Dipole Y            :          0.0011240           -0.0013052           -0.0001812
 Dipole Z            :        421.6982595         -421.7051813           -0.0069217
 Magnitude           :                                                    0.0069502

    SAPT Results
  --------------------------------------------------------------------------------------------------------
    Electrostatics                 10.63952921 [mEh]       6.67640538 [kcal/mol]      27.93408009 [kJ/mol]
      Elst10,r                     10.63952921 [mEh]       6.67640538 [kcal/mol]      27.93408009 [kJ/mol]

    Exchange                        0.00922472 [mEh]       0.00578860 [kcal/mol]       0.02421951 [kJ/mol]
      Exch10                        0.00922472 [mEh]       0.00578860 [kcal/mol]       0.02421951 [kJ/mol]
      Exch10(S^2)                   0.00922490 [mEh]       0.00578871 [kcal/mol]       0.02421998 [kJ/mol]

    Induction                      -6.64006594 [mEh]      -4.16670428 [kcal/mol]     -17.43349073 [kJ/mol]
      Ind20,r                      -6.68952736 [mEh]      -4.19774180 [kcal/mol]     -17.56335167 [kJ/mol]
      Exch-Ind20,r                  0.00445290 [mEh]       0.00279423 [kcal/mol]       0.01169108 [kJ/mol]
      delta HF,r (2)                0.04500852 [mEh]       0.02824328 [kcal/mol]       0.11816987 [kJ/mol]

    Dispersion                     -1.54942351 [mEh]      -0.97227793 [kcal/mol]      -4.06801085 [kJ/mol]
      Disp20                       -1.55536658 [mEh]      -0.97600727 [kcal/mol]      -4.08361440 [kJ/mol]
      Exch-Disp20                   0.00594308 [mEh]       0.00372934 [kcal/mol]       0.01560354 [kJ/mol]
      Disp20 (SS)                  -0.77768329 [mEh]      -0.48800363 [kcal/mol]      -2.04180720 [kJ/mol]
      Disp20 (OS)                  -0.77768329 [mEh]      -0.48800363 [kcal/mol]      -2.04180720 [kJ/mol]
      Exch-Disp20 (SS)              0.00446115 [mEh]       0.00279942 [kcal/mol]       0.01171275 [kJ/mol]
      Exch-Disp20 (OS)              0.00148192 [mEh]       0.00092992 [kcal/mol]       0.00389079 [kJ/mol]

  Total HF                          4.00868799 [mEh]       2.51548969 [kcal/mol]      10.52480887 [kJ/mol]
  Total SAPT0                       2.45926449 [mEh]       1.54321176 [kcal/mol]       6.45679802 [kJ/mol]

  Special recipe for scaled SAPT0 (see Manual):
    Electrostatics sSAPT0          10.63952921 [mEh]       6.67640538 [kcal/mol]      27.93408009 [kJ/mol]
    Exchange sSAPT0                 0.00922472 [mEh]       0.00578860 [kcal/mol]       0.02421951 [kJ/mol]
    Induction sSAPT0               -6.64006594 [mEh]      -4.16670428 [kcal/mol]     -17.43349073 [kJ/mol]
    Dispersion sSAPT0              -1.54942351 [mEh]      -0.97227793 [kcal/mol]      -4.06801085 [kJ/mol]
  Total sSAPT0                      2.45926449 [mEh]       1.54321176 [kcal/mol]       6.45679802 [kJ/mol]
  --------------------------------------------------------------------------------------------------------

*** Psi4 exiting successfully. Buy a developer a beer!
