                               Psi4 1.9 release

  ==> Input File <==

--------------------------------------------------------------------------
memory 48 GB # how much memory is available ! Depends on the nodes/cores !

molecule dimer {
# monomer A
+1 1    # Charge and multiplicity
C  0.680067 1.417258 -5.515929
C -0.680504 1.419286 -5.515545
N -1.085635 1.420284 -4.197221
C  0.000108 1.423560 -3.415820
C -2.477365 1.469690 -3.729242
N  1.085222 1.420284 -4.197221
H  1.385146 1.409430 -6.333368
H -1.385302 1.419096 -6.333214
H -0.000009 1.425307 -2.334731
C  2.478117 1.403392 -3.732123
H  2.490592 1.430737 -2.641870
H  2.967028 0.489946 -4.079299
H  3.001428 2.278875 -4.123595
H -2.857359 2.491761 -3.809201
H -3.082679 0.799606 -4.342306
H -2.518128 1.142706 -2.689294
--
# monomer B
0 1     # Charge and multiplicity
C   1.22531237526482      0.70753866091955      0.00613762728373
C   1.22532433589282     -0.70753852257020     -0.00619318228664
C   -0.00000567409046      1.41496628609039     -0.00672680580738
C   2.45644923379077      1.41832825917820      0.00902448468363
C   0.00001130712078     -1.41497612663474      0.00347275151708
C   -1.22530046906674      0.70754574598412      0.00838914760619
C   2.45643823516184     -1.41832293188077     -0.00843833914343
C   -0.00000085313587      2.83680140328112     -0.00913035594137
C   3.68182717731192      0.70931832800114     -0.00808954934571
C   2.45512052870677      2.83422403348893     -0.00819210630633
C   3.68182158506039     -0.70933346742900      0.00798293467272
C   -1.22531311884624     -0.70752714354401     -0.00512042085974
C   1.22670006104402      3.54346985599427      0.00816696660346
C   0.00000526469929     -2.83678176723568      0.00832091913869
C   -2.45643555300670      1.41831729028492      0.00842454345199
C   2.45512389762097     -2.83422965658853      0.00783102630520
C   -1.22671388474763      3.54346943575023      0.00827029982280
C   4.91451777504333      1.42717324448953     -0.00160886631602
C   3.69315067131765      3.54279566454522     -0.00155906667985
C   -2.45643712022637     -1.41831290883911     -0.00846337726810
C   1.22670532178455     -3.54347386990643     -0.00780316414624
C   -2.45512491866593      2.83421703463423     -0.00818572995999
C   4.91452486062398     -1.42718653794377      0.00136387641845
C   1.22142509354026      4.97013443726031      0.00150231067809
C   4.89300870916237      2.82518837202648     -0.00039219795739
C   -1.22669652864725     -3.54347062507680     -0.00753595973677
C   -3.68181849668397      0.70932533873199     -0.00807686886569
C   3.69314758099218     -3.54280096939050      0.00148176697923
C   -1.22143177215231      4.97012866986289      0.00168580605083
C   6.13477145276790      0.68054831910577     -0.00083909176631
C   3.65678936045204      4.97295361556775     -0.00065042889723
C   -2.45512642789169     -2.83421472106065      0.00758666850712
C   -3.68181869921921     -0.70932533146830      0.00810055625144
C   4.89301309775526     -2.82519973363176      0.00021895393805
C   -0.00000059327114      5.65044773803267      0.00045449734393
C   6.13477559217374     -0.68055448207492      0.00042622874941
C   2.47813196269732      5.65357712333155      0.00063835075260
C   1.22142288457925     -4.97012668293268     -0.00129718634452
C   -3.69316190412301      3.54279732619245     -0.00139355922051
C   -1.22142804110313     -4.97011793159564     -0.00140994817719
C   -4.91452132810043      1.42717581899491     -0.00153192130862
C   3.65678749952045     -4.97295485423912      0.00080007163680
C   -2.47813805026426      5.65357479452875      0.00092287576113
C   -3.69314125872231     -3.54278984697859      0.00136564082345
C   -4.91451200321153     -1.42718062802730      0.00139857359209
C   -0.00000552908399     -5.65043791501335      0.00005899322272
C   -4.89302000425900      2.82518897091939     -0.00040227981744
C   2.47812647313991     -5.65357317188818     -0.00029052915548
C   -3.65679823041642      4.97295655404175     -0.00047374852278
C   -4.89299899901461     -2.82519139505969      0.00006491824035
C   -2.47812801824129     -5.65356579800621     -0.00056571680280
C   -6.13477002348955      0.68054913825639     -0.00086464346868
C   -3.65678835334731     -4.97294365097028      0.00058578382008
C   -6.13476456307132     -0.68055354348201      0.00040575295444
H   5.83528897565761      3.36927626695423      0.00396712770529
H   7.07385965258860      1.22821762089947     -0.00037744837300
H   4.60066374401555      5.51238117445323     -0.00014522814529
H   5.83528386714679     -3.36930568472863     -0.00423551337640
H   -0.00001167146422      6.73853104613662     -0.00389474766392
H   7.07386165167227     -1.22822657074368     -0.00008250934481
H   2.47331421164041      6.74068466339473      0.00017162982210
H   4.60066897122302     -5.51237575717576      0.00039007446835
H   -2.47331820069565      6.74068209160650      0.00047297644710
H   -0.00000978838621     -6.73852780445195      0.00458867820736
H   -5.83530143450167      3.36927132229595      0.00410314985360
H   2.47330840367253     -6.74068500242887      0.00027980126949
H   -4.60067436136587      5.51237839860371      0.00002010017831
H   -5.83527902699321     -3.36928859177951     -0.00451481925734
H   -2.47329986759855     -6.74067870613986     -0.00016951527498
H   -7.07385728692578      1.22822084484047     -0.00046143985387
H   -4.60067330624313     -5.51236229778631      0.00021776644566
H   -7.07385645456741     -1.22822025997701     -0.00017736581114

    units angstrom      # Angstroms are the default
    no_reorient         # Geometry fixed, default
    symmetry c1         # C1 symmetry, default
}

set {
    scf_type DF         # Density fitting, faster than exact integrals
    freeze_core True    # Freeze core electrons
    basis jun-cc-pVDZ   # Jun-cc-pVDZ basis set, recommended for sSAPT0 in https://doi.org/10.1063/1.4867135
}

energy('ssapt0')        # Compute sSAPT0 energy, includes also SAPT0
--------------------------------------------------------------------------

  //              Dimer HF             //
    Molecular point group: c1
  Charge       = 1
  Multiplicity = 1
  Basis Set: JUN-CC-PVDZ
    Blend: JUN-CC-PVDZ
  Basis Set: (JUN-CC-PVDZ AUX)
    Blend: JUN-CC-PVDZ-JKFIT
  @DF-RHF Final Energy: -2359.21053128601670
    Total Energy =                      -2359.2105312860167032
 Dipole X            :         -0.0015948            0.0006313           -0.0009635
 Dipole Y            :         -6.0986860            7.4856329            1.3869470
 Dipole Z            :         15.5552605          -20.5277316           -4.9724712
 Magnitude           :                                                    5.1622759
  //            Monomer A HF           //
    Molecular point group: c1
  Multiplicity = 1
  Basis Set: JUN-CC-PVDZ
    Blend: JUN-CC-PVDZ
  Basis Set: (JUN-CC-PVDZ AUX)
    Blend: JUN-CC-PVDZ-JKFIT
  @DF-RHF Final Energy:  -303.29821078643283
    Total Energy =                       -303.2982107864328327
  //            Monomer B HF           //
    Molecular point group: c1

    Geometry (in Angstrom), charge = 0, multiplicity = 1:

       Center              X                  Y                   Z               Mass
    ------------   -----------------  -----------------  -----------------  -----------------
      Gh(C)           0.680066520158     1.235968212970    -4.968997653585    12.000000000000
      Gh(C)          -0.680504479842     1.237996212970    -4.968613653585    12.000000000000
      Gh(N)          -1.085635479842     1.238994212970    -3.650289653585    14.003074004430
      Gh(C)           0.000107520158     1.242270212970    -2.868888653585    12.000000000000
      Gh(C)          -2.477365479842     1.288400212970    -3.182310653585    12.000000000000
      Gh(N)           1.085221520158     1.238994212970    -3.650289653585    14.003074004430
      Gh(H)           1.385145520158     1.228140212970    -5.786436653585     1.007825032230
      Gh(H)          -1.385302479842     1.237806212970    -5.786282653585     1.007825032230
      Gh(H)          -0.000009479842     1.244017212970    -1.787799653585     1.007825032230
      Gh(C)           2.478116520158     1.222102212970    -3.185191653585    12.000000000000
      Gh(H)           2.490591520158     1.249447212970    -2.094938653585     1.007825032230
      Gh(H)           2.967027520158     0.308656212970    -3.532367653585     1.007825032230
      Gh(H)           3.001427520158     2.097585212970    -3.576663653585     1.007825032230
      Gh(H)          -2.857359479842     2.310471212970    -3.262269653585     1.007825032230
      Gh(H)          -3.082679479842     0.618316212970    -3.795374653585     1.007825032230
      Gh(H)          -2.518128479842     0.961416212970    -2.142362653585     1.007825032230
         C            1.225311895423     0.526248873889     0.553068973699    12.000000000000
         C            1.225323856051    -0.888828309601     0.540738164129    12.000000000000
         C           -0.000006153932     1.233676499060     0.540204540608    12.000000000000
         C            2.456448753949     1.237038472148     0.555955831099    12.000000000000
         C            0.000010827279    -1.596265913665     0.550404097933    12.000000000000
         C           -1.225300948908     0.526255958954     0.555320494022    12.000000000000
         C            2.456437755320    -1.599612718911     0.538493007272    12.000000000000
         C           -0.000001332978     2.655511616251     0.537800990474    12.000000000000
         C            3.681826697470     0.528028540971     0.538841797070    12.000000000000
         C            2.455120048865     2.652934246459     0.538739240109    12.000000000000
         C            3.681821105219    -0.890623254459     0.554914281088    12.000000000000
         C           -1.225313598688    -0.888816930574     0.541810925556    12.000000000000
         C            1.226699581202     3.362180068964     0.555098313019    12.000000000000
         C            0.000004784858    -3.018071554266     0.555252265554    12.000000000000
         C           -2.456436032848     1.237027503255     0.555355889867    12.000000000000
         C            2.455123417779    -3.015519443619     0.554762372721    12.000000000000
         C           -1.226714364589     3.362179648720     0.555201646238    12.000000000000
         C            4.914517295202     1.245883457459     0.545322480099    12.000000000000
         C            3.693150191476     3.361505877515     0.545372279736    12.000000000000
         C           -2.456437600068    -1.599602695869     0.538467969147    12.000000000000
         C            1.226704841943    -3.724763656937     0.539128182269    12.000000000000
         C           -2.455125398508     2.652927247604     0.538745616455    12.000000000000
         C            4.914524380782    -1.608476324974     0.548295222834    12.000000000000
         C            1.221424613699     4.788844650230     0.548433657094    12.000000000000
         C            4.893008229321     2.643898584996     0.546539148458    12.000000000000
         C           -1.226697008489    -3.724760412107     0.539395386679    12.000000000000
         C           -3.681818976526     0.528035551702     0.538854477550    12.000000000000
         C            3.693147101150    -3.724090756421     0.548413113395    12.000000000000
         C           -1.221432251994     4.788838882833     0.548617152466    12.000000000000
         C            6.134770972926     0.499258532075     0.546092254649    12.000000000000
         C            3.656788880610     4.791663828537     0.546280917518    12.000000000000
         C           -2.455126907733    -3.015504508091     0.554518014923    12.000000000000
         C           -3.681819179061    -0.890615118499     0.555031902667    12.000000000000
         C            4.893012617914    -3.006489520662     0.547150300353    12.000000000000
         C           -0.000001073113     5.469157951002     0.547385843759    12.000000000000
         C            6.134775112332    -0.861844269105     0.547357575165    12.000000000000
         C            2.478131482856     5.472287336301     0.547569697168    12.000000000000
         C            1.221422404738    -5.151416469963     0.545634160071    12.000000000000
         C           -3.693162383965     3.361507539162     0.545537787195    12.000000000000
         C           -1.221428520945    -5.151407718626     0.545521398238    12.000000000000
         C           -4.914521807942     1.245886031965     0.545399425107    12.000000000000
         C            3.656787019679    -5.154244641269     0.547731418052    12.000000000000
         C           -2.478138530106     5.472285007498     0.547854222177    12.000000000000
         C           -3.693141738564    -3.724079634009     0.548296987239    12.000000000000
         C           -4.914512483053    -1.608470415058     0.548329920008    12.000000000000
         C           -0.000006008926    -5.831727702044     0.546990339638    12.000000000000
         C           -4.893020484101     2.643899183889     0.546529066598    12.000000000000
         C            2.478125993298    -5.834862958919     0.546640817260    12.000000000000
         C           -3.656798710258     4.791666767011     0.546457597893    12.000000000000
         C           -4.892999478856    -3.006481182090     0.546996264656    12.000000000000
         C           -2.478128498083    -5.834855585037     0.546365629613    12.000000000000
         C           -6.134770503331     0.499259351226     0.546066702947    12.000000000000
         C           -3.656788833189    -5.154233438001     0.547517130236    12.000000000000
         C           -6.134765042913    -0.861843330512     0.547337099370    12.000000000000
         H            5.835288495816     3.187986479924     0.550898474121     1.007825032230
         H            7.073859172747     1.046927833869     0.546553898042     1.007825032230
         H            4.600663264174     5.331091387423     0.546786118270     1.007825032230
         H            5.835283387305    -3.550595471759     0.542695833039     1.007825032230
         H           -0.000012151306     6.557241259106     0.543036598752     1.007825032230
         H            7.073861171831    -1.409516357774     0.546848837071     1.007825032230
         H            2.473313731799     6.559394876364     0.547102976238     1.007825032230
         H            4.600668491381    -5.693665544206     0.547321420884     1.007825032230
         H           -2.473318680537     6.559392304576     0.547404322863     1.007825032230
         H           -0.000010268228    -6.919817591482     0.551520024623     1.007825032230
         H           -5.835301914343     3.187981535266     0.551034496269     1.007825032230
         H            2.473307923831    -6.921974789459     0.547211147685     1.007825032230
         H           -4.600674841208     5.331088611573     0.546951446594     1.007825032230
         H           -5.835279506835    -3.550578378810     0.542416527158     1.007825032230
         H           -2.473300347440    -6.921968493170     0.546761831140     1.007825032230
         H           -7.073857766768     1.046931057810     0.546469906562     1.007825032230
         H           -4.600673786085    -5.693652084817     0.547149112861     1.007825032230
         H           -7.073856934409    -1.409510047007     0.546753980604     1.007825032230

  Charge       = 0
  Multiplicity = 1
  Basis Set: JUN-CC-PVDZ
    Blend: JUN-CC-PVDZ
  Basis Set: (JUN-CC-PVDZ AUX)
    Blend: JUN-CC-PVDZ-JKFIT

    Orbital Energies [Eh]
    ---------------------

    Doubly Occupied:

       1A    -11.260589     2A    -11.260115     3A    -11.260093
       4A    -11.259426     5A    -11.259379     6A    -11.259190
       7A    -11.259010     8A    -11.258926     9A    -11.258879
      10A    -11.258586    11A    -11.258551    12A    -11.258475
      13A    -11.258416    14A    -11.258411    15A    -11.258405
      16A    -11.258374    17A    -11.258369    18A    -11.258354
      19A    -11.258349    20A    -11.258338    21A    -11.258326
      22A    -11.258274    23A    -11.258247    24A    -11.257969
      25A    -11.257283    26A    -11.257232    27A    -11.257203
      28A    -11.257094    29A    -11.257082    30A    -11.256995
      31A    -11.256379    32A    -11.256316    33A    -11.256297
      34A    -11.256202    35A    -11.256199    36A    -11.256132
      37A    -11.252233    38A    -11.252230    39A    -11.252197
      40A    -11.252191    41A    -11.252180    42A    -11.252176
      43A    -11.251344    44A    -11.251337    45A    -11.251324
      46A    -11.251313    47A    -11.251309    48A    -11.251280
      49A    -11.250794    50A    -11.250790    51A    -11.250758
      52A    -11.250752    53A    -11.250741    54A    -11.250737
      55A     -1.243919    56A     -1.219685    57A     -1.219673
      58A     -1.189418    59A     -1.189405    60A     -1.180801
      61A     -1.157438    62A     -1.148855    63A     -1.135360
      64A     -1.135339    65A     -1.113074    66A     -1.113069
      67A     -1.082294    68A     -1.082286    69A     -1.078462
      70A     -1.065865    71A     -1.065858    72A     -1.039268
      73A     -1.024129    74A     -1.021622    75A     -1.021568
      76A     -1.017606    77A     -1.012682    78A     -0.986889
      79A     -0.986833    80A     -0.961757    81A     -0.961704
      82A     -0.894159    83A     -0.894139    84A     -0.887778
      85A     -0.886025    86A     -0.885982    87A     -0.881249
      88A     -0.881203    89A     -0.861772    90A     -0.837295
      91A     -0.818074    92A     -0.816465    93A     -0.811988
      94A     -0.811984    95A     -0.794563    96A     -0.794552
      97A     -0.746469    98A     -0.744709    99A     -0.733270
     100A     -0.733259   101A     -0.732052   102A     -0.732031
     103A     -0.716352   104A     -0.698846   105A     -0.698818
     106A     -0.693454   107A     -0.693418   108A     -0.661103
     109A     -0.652965   110A     -0.651006   111A     -0.650128
     112A     -0.650120   113A     -0.639234   114A     -0.639217
     115A     -0.629571   116A     -0.627373   117A     -0.627364
     118A     -0.606414   119A     -0.605705   120A     -0.601508
     121A     -0.599614   122A     -0.599556   123A     -0.593483
     124A     -0.591065   125A     -0.591037   126A     -0.585165
     127A     -0.576442   128A     -0.576339   129A     -0.567204
     130A     -0.567182   131A     -0.565808   132A     -0.565795
     133A     -0.558574   134A     -0.554720   135A     -0.554715
     136A     -0.538465   137A     -0.538462   138A     -0.538188
     139A     -0.538169   140A     -0.529576   141A     -0.528129
     142A     -0.522743   143A     -0.522717   144A     -0.500376
     145A     -0.495565   146A     -0.493104   147A     -0.487796
     148A     -0.484922   149A     -0.481608   150A     -0.481607
     151A     -0.470291   152A     -0.470278   153A     -0.450855
     154A     -0.450786   155A     -0.439017   156A     -0.438999
     157A     -0.404688   158A     -0.404667   159A     -0.403299
     160A     -0.375357   161A     -0.375355   162A     -0.349053
     163A     -0.337529   164A     -0.336466   165A     -0.336420
     166A     -0.311031   167A     -0.298028   168A     -0.284269
     169A     -0.284212   170A     -0.224832   171A     -0.224773

  @DF-RHF Final Energy: -2055.89506627140963

   => Energetics <=

    Nuclear Repulsion Energy =           6452.5568002797781446
    One-Electron Energy =              -15636.5197724155914329
    Two-Electron Energy =                7128.0679058644045654
    Total Energy =                      -2055.8950662714096325
 Dipole X            :          0.0000832           -0.0000085            0.0000747
 Dipole Y            :        117.1723089         -117.1648546            0.0074544
 Dipole Z            :       -353.4695560          353.4728124            0.0032563
 Magnitude           :                                                    0.0081349

    SAPT Results
  --------------------------------------------------------------------------------------------------------
    Electrostatics                -17.32527667 [mEh]     -10.87177524 [kcal/mol]     -45.48750762 [kJ/mol]
      Elst10,r                    -17.32527667 [mEh]     -10.87177524 [kcal/mol]     -45.48750762 [kJ/mol]

    Exchange                       16.83550687 [mEh]      10.56444005 [kcal/mol]      44.20161719 [kJ/mol]
      Exch10                       16.83550687 [mEh]      10.56444005 [kcal/mol]      44.20161719 [kJ/mol]
      Exch10(S^2)                  16.75068037 [mEh]      10.51121062 [kcal/mol]      43.97890525 [kJ/mol]

    Induction                     -16.76445837 [mEh]     -10.51985645 [kcal/mol]     -44.01507940 [kJ/mol]
      Ind20,r                     -17.64132609 [mEh]     -11.07009925 [kcal/mol]     -46.31729527 [kJ/mol]
      Exch-Ind20,r                  4.46104543 [mEh]       2.79934827 [kcal/mol]      11.71247316 [kJ/mol]
      delta HF,r (2)               -3.58417771 [mEh]      -2.24910547 [kcal/mol]      -9.41025729 [kJ/mol]

    Dispersion                    -21.18064607 [mEh]     -13.29105607 [kcal/mol]     -55.60977861 [kJ/mol]
      Disp20                      -22.52060009 [mEh]     -14.13188991 [kcal/mol]     -59.12782739 [kJ/mol]
      Exch-Disp20                   1.33995402 [mEh]       0.84083384 [kcal/mol]       3.51804878 [kJ/mol]
      Disp20 (SS)                 -11.26030005 [mEh]      -7.06594496 [kcal/mol]     -29.56391370 [kJ/mol]
      Disp20 (OS)                 -11.26030005 [mEh]      -7.06594496 [kcal/mol]     -29.56391370 [kJ/mol]
      Exch-Disp20 (SS)              0.81979024 [mEh]       0.51442614 [kcal/mol]       2.15235898 [kJ/mol]
      Exch-Disp20 (OS)              0.52016377 [mEh]       0.32640770 [kcal/mol]       1.36568980 [kJ/mol]

  Total HF                        -17.25422817 [mEh]     -10.82719164 [kcal/mol]     -45.30096983 [kJ/mol]
  Total SAPT0                     -38.43487425 [mEh]     -24.11824771 [kcal/mol]    -100.91074844 [kJ/mol]

  Special recipe for scaled SAPT0 (see Manual):
    Electrostatics sSAPT0         -17.32527667 [mEh]     -10.87177524 [kcal/mol]     -45.48750762 [kJ/mol]
    Exchange sSAPT0                16.83550687 [mEh]      10.56444005 [kcal/mol]      44.20161719 [kJ/mol]
    Induction sSAPT0              -16.69634154 [mEh]     -10.47711250 [kcal/mol]     -43.83623868 [kJ/mol]
    Dispersion sSAPT0             -21.16018598 [mEh]     -13.27821717 [kcal/mol]     -55.55606063 [kJ/mol]
  Total sSAPT0                    -38.34629732 [mEh]     -24.06266485 [kcal/mol]    -100.67818975 [kJ/mol]
  --------------------------------------------------------------------------------------------------------

*** Psi4 exiting successfully. Buy a developer a beer!
