                               Psi4 1.9 release

  ==> Input File <==

--------------------------------------------------------------------------
memory 80 GB # how much memory is available ! Depends on the nodes/cores !

molecule dimer {
# monomer A
-1 1    # Charge and multiplicity
B -0.000046  0.000337 3.699994
F -1.153597  0.000048 4.515641
F  1.153661 -0.000581 4.515641
F -0.000019 -1.153637 2.884360
F -0.000019  1.153978 2.884360
--
# monomer B
0 1     # Charge and multiplicity
C   -3.66844126402057      7.80375217008252      0.00190004133558
C   -4.84759871934653      7.13124183134024     -0.00046653359696
C   -4.89495929917518      5.69633040353158     -0.00103944469517
C   -3.65374067877320      4.98073034095895      0.00662099703436
C   -2.40942512149445      7.11398103667468      0.00209438359570
C   -2.42547734410473      5.68112195090346     -0.00491050527438
C   -1.19474401643570      7.78614419430947      0.00356656413763
C   0.03795902893699      7.09942164575698      0.00139585983271
C   0.03033258741920      5.66948955970466     -0.00408752508301
C   -1.20098450790502      4.96927034791531      0.00488220885047
C   1.27795782581485      7.77285944319479      0.00277170839332
C   2.48535808472416      7.08769688523756      0.00049722048857
C   2.48612868491717      5.65477081024076     -0.00644052849921
C   1.25408291964399      4.95607811366431      0.00518741308898
C   3.75171459140595      7.76391215098033      0.00062407186893
C   4.92356605618520      7.07878077698995     -0.00143240883900
C   4.95560727132542      5.64344746336949     -0.00159282164606
C   3.70680153420475      4.94121020833308      0.00349873852374
H   -3.65852113775815      8.89082741913536      0.00358502958574
H   -1.18921332975660      8.87412108735996      0.00753844057883
H   1.28429423888630      8.86083343548850      0.00693053253426
H   3.75354208679975      8.85103527897216      0.00214659618464
H   5.86995870320703      7.61379483465560     -0.00235777588134
H   -5.78823170750226      7.67630221293400     -0.00202638095293
C   -6.09197395869619      4.99326001364347     -0.00291168518608
C   -6.12866148031747      3.58258016879823     -0.00171050815740
C   -3.66457974004527      3.56418217974434     -0.00463560277484
C   -4.89429820469869      2.86108077590057      0.00453338221034
C   -2.43733499489796      2.84761165708481      0.00719617576166
C   -1.20922785759670      3.54788693497833     -0.00648285103018
C   1.24714157216223      3.53468075142962     -0.00729145743546
C   0.01517603956900      2.83311183930540      0.00439272578912
C   2.46764517244071      2.82128997725533      0.00449278391269
C   3.70254947457969      3.52466015442405     -0.00899517692985
C   6.14498038638375      4.92757236613191     -0.00282626685777
C   6.16658835886151      3.51658447594213     -0.00065971342101
C   4.92460995845939      2.80840792535402      0.00587903281610
H   7.08990550964105      5.46688776622306     -0.00658814770723
H   -7.03104175110130      5.54268795285765     -0.00714490013730
C   -7.33969804112295      2.85841153457957     -0.00333767559888
C   -7.36488195805880      1.47032337158330     -0.00157213747140
C   -4.90350460894690      1.44442681216000     -0.00628840166334
C   -6.13225715261081      0.73993935705394      0.00600164231964
C   -3.67687480051673      0.72669714267312      0.00433931473643
C   -2.44565658606518      1.42964113326212     -0.00597039546461
C   -1.22360068130162      0.71532450163492      0.00545886906656
C   0.00763786931376      1.41738314923765      0.00392452278437
C   1.23121980774686      0.70211669058719     -0.01490206287210
C   2.46082110053113      1.40329203612573      0.00460244601878
C   3.68443025419614      0.68719842821222      0.00377365974158
C   4.91870890153864      1.39173456118907     -0.00862816189375
C   7.36980207796101      2.77948220318441     -0.00242013321349
C   7.38016266612146      1.39121750785509     -0.00087345036788
C   6.13979953912259      0.67411862320065      0.00545489144369
H   -8.27919079934664      3.40711804112415     -0.00763522772059
H   8.31511347147953      3.31811809662368     -0.00663070901292
C   -8.59175593758115      0.72483255304480     -0.00123170985383
C   -8.59902460370342     -0.63263980622873      0.00089141472904
C   -6.13981313911873     -0.67413663715361     -0.00609792660607
C   -7.38018411213749     -1.39126618958160      0.00131813493501
C   -4.91868448025621     -1.39175501803000      0.00624257154343
C   -3.68443829568458     -0.68723731573599     -0.00478966852105
C   -2.46081704024768     -1.40334517882457      0.00575341766833
C   -1.23116201232071     -0.70217386488055     -0.00636696112346
C   -0.00756962538737     -1.41741884941102      0.00108956317991
C   1.22364771588843     -0.71527537726392      0.01109518512883
C   2.44567064933149     -1.42964328900682     -0.00065482763106
C   3.67686670284649     -0.72670743155550     -0.00479541202602
C   6.13224884641929     -0.73997883984993     -0.00632338623858
C   4.90351914550401     -1.44445752054090      0.00751768830159
C   8.59901484869081      0.63260386666793     -0.00101133422380
C   8.59174548810050     -0.72485086719319      0.00072504603735
C   7.36486276438985     -1.47033266560598      0.00049486934466
H   -9.52830597181814      1.27684744919284     -0.00270163681798
H   9.54141097460619      1.17457248844457     -0.00206336648518
C   -7.36983790976868     -2.77954514593389      0.00312634335708
C   -4.92459910905015     -2.80843725734101     -0.00460528907921
C   -6.16662249566744     -3.51665219282533      0.00169655107992
C   -3.70251035970491     -3.52468154912026      0.00571878010666
C   -2.46764698511392     -2.82132596280400     -0.00632585824990
C   -0.01513347410770     -2.83314164539971     -0.00604426974092
C   -1.24712184122656     -3.53473217556300      0.00551968366725
C   1.20924506964357     -3.54791467864352      0.00805871345849
C   2.43733602215464     -2.84764173817541     -0.00608104485234
C   4.89430234377080     -2.86112296828604     -0.00526030478103
C   3.66461525504104     -3.56421984553201      0.00761911515957
C   6.12863901474565     -3.58258405771778      0.00096495711699
C   7.33967266469532     -2.85841330737039      0.00248018319869
H   -9.54144911125902     -1.17456346666430      0.00226083090216
H   9.52826186807155     -1.27691907390448      0.00197485379837
H   -8.31516504384864     -3.31814985321231      0.00729857188773
H   8.27915514249207     -3.40714078989363      0.00681973918158
C   -6.14499418870218     -4.92764727278338      0.00302254913999
C   -3.70678334799751     -4.94126171411716     -0.00679841894792
C   -4.95559005800169     -5.64349397349412      0.00116871569699
C   -2.48612132622665     -5.65478557440947      0.00614125209662
C   -1.25405833548005     -4.95612205000132     -0.00503435388927
C   1.20101257386816     -4.96928038819302     -0.00385322963129
C   -0.03033667441341     -5.66952030313900      0.00398997003238
C   3.65375010132847     -4.98074377541453     -0.00309522988330
C   2.42549269587528     -5.68117463552727      0.00628170066869
C   6.09196561781097     -4.99325796338655      0.00325918379042
C   4.89497644461045     -5.69634842095790      0.00202298796027
H   -7.08989238804069     -5.46699984223871      0.00742531082125
H   7.03105520920009     -5.54265853633254      0.00683896355417
C   -4.92354532219813     -7.07882109967734      0.00061394679214
C   -2.48534208823777     -7.08772807792913     -0.00189594564379
C   -3.75168589177895     -7.76394715763627     -0.00170126671874
C   -0.03794895698805     -7.09946487446944     -0.00168022049625
C   -1.27795610040136     -7.77290438466689     -0.00366491325785
C   2.40944432072629     -7.11402201200282     -0.00081701968533
C   1.19474993715296     -7.78618536556242     -0.00296931056689
C   4.84762105249800     -7.13126211057943      0.00168979497423
C   3.66847160587561     -7.80378799294376     -0.00065863938960
H   -5.86994035041618     -7.61383059804164      0.00215798365757
H   5.78824962538815     -7.67633218931421      0.00281691445618
H   -3.75352693944918     -8.85107156923607     -0.00353718114765
H   -1.28430440589466     -8.86087539249706     -0.00809229711623
H   1.18922157469537     -8.87416062058945     -0.00706194725726
H   3.65854661482387     -8.89086063405326     -0.00231318081200

    units angstrom      # Angstroms are the default
    no_reorient         # Geometry fixed, default
    symmetry c1         # C1 symmetry, default
}

set {
    scf_type DF         # Density fitting, faster than exact integrals
    freeze_core True    # Freeze core electrons
    basis jun-cc-pVDZ   # Jun-cc-pVDZ basis set, recommended for sSAPT0 in https://doi.org/10.1063/1.4867135
}

energy('ssapt0')        # Compute sSAPT0 energy, includes also SAPT0
--------------------------------------------------------------------------

  //              Dimer HF             //
    Molecular point group: c1
  Charge       = -1
  Multiplicity = 1
  Basis Set: JUN-CC-PVDZ
    Blend: JUN-CC-PVDZ
  Basis Set: (JUN-CC-PVDZ AUX)
    Blend: JUN-CC-PVDZ-JKFIT
  @DF-RHF Final Energy: -4073.11202013555703
    Total Energy =                      -4073.1120201355552126
 Dipole X            :          0.0014561           -0.0001188            0.0013373
 Dipole Y            :          0.0014827           -0.0002727            0.0012100
 Dipole Z            :         17.0639172          -22.0196118           -4.9556946
 Magnitude           :                                                    4.9556949
  //            Monomer A HF           //
    Molecular point group: c1
  Multiplicity = 1
  Basis Set: JUN-CC-PVDZ
    Blend: JUN-CC-PVDZ
  Basis Set: (JUN-CC-PVDZ AUX)
    Blend: JUN-CC-PVDZ-JKFIT
  @DF-RHF Final Energy:  -422.77361583251047
    Total Energy =                       -422.7736158325104725
  //            Monomer B HF           //
    Molecular point group: c1

    Geometry (in Angstrom), charge = 0, multiplicity = 1:

       Center              X                  Y                   Z               Mass
    ------------   -----------------  -----------------  -----------------  -----------------
      Gh(B)          -0.000050191042     0.000351518223     3.445151473208    11.009305360000
      Gh(F)          -1.153601191042     0.000062518223     4.260798473208    18.998403162730
      Gh(F)           1.153656808958    -0.000566481777     4.260798473208    18.998403162730
      Gh(F)          -0.000023191042    -1.153622481777     2.629517473208    18.998403162730
      Gh(F)          -0.000023191042     1.153992518223     2.629517473208    18.998403162730
         C           -3.668445455062     7.803766688305    -0.252942485456    12.000000000000
         C           -4.847602910388     7.131256349563    -0.255309060389    12.000000000000
         C           -4.894963490217     5.696344921754    -0.255881971487    12.000000000000
         C           -3.653744869815     4.980744859182    -0.248221529758    12.000000000000
         C           -2.409429312536     7.113995554897    -0.252748143196    12.000000000000
         C           -2.425481535146     5.681136469126    -0.259753032066    12.000000000000
         C           -1.194748207477     7.786158712532    -0.251275962654    12.000000000000
         C            0.037954837895     7.099436163980    -0.253446666959    12.000000000000
         C            0.030328396378     5.669504077927    -0.258930051875    12.000000000000
         C           -1.200988698947     4.969284866138    -0.249960317942    12.000000000000
         C            1.277953634773     7.772873961417    -0.252070818399    12.000000000000
         C            2.485353893683     7.087711403460    -0.254345306303    12.000000000000
         C            2.486124493876     5.654785328463    -0.261283055291    12.000000000000
         C            1.254078728602     4.956092631887    -0.249655113703    12.000000000000
         C            3.751710400364     7.763926669203    -0.254218454923    12.000000000000
         C            4.923561865144     7.078795295213    -0.256274935631    12.000000000000
         C            4.955603080284     5.643461981592    -0.256435348438    12.000000000000
         C            3.706797343163     4.941224726556    -0.251343788268    12.000000000000
         H           -3.658525328800     8.890841937358    -0.251257497206     1.007825032230
         H           -1.189217520798     8.874135605583    -0.247304086213     1.007825032230
         H            1.284290047845     8.860847953711    -0.247911994258     1.007825032230
         H            3.753537895758     8.851049797195    -0.252695930607     1.007825032230
         H            5.869954512165     7.613809352878    -0.257200302673     1.007825032230
         H           -5.788235898544     7.676316731157    -0.256868907745     1.007825032230
         C           -6.091978149738     4.993274531866    -0.257754211978    12.000000000000
         C           -6.128665671359     3.582594687021    -0.256553034949    12.000000000000
         C           -3.664583931087     3.564196697967    -0.259478129567    12.000000000000
         C           -4.894302395740     2.861095294123    -0.250309144582    12.000000000000
         C           -2.437339185940     2.847626175307    -0.247646351030    12.000000000000
         C           -1.209232048638     3.547901453201    -0.261325377822    12.000000000000
         C            1.247137381121     3.534695269652    -0.262133984228    12.000000000000
         C            0.015171848527     2.833126357528    -0.250449801003    12.000000000000
         C            2.467640981399     2.821304495478    -0.250349742879    12.000000000000
         C            3.702545283538     3.524674672647    -0.263837703722    12.000000000000
         C            6.144976195342     4.927586884354    -0.257668793650    12.000000000000
         C            6.166584167820     3.516598994165    -0.255502240213    12.000000000000
         C            4.924605767418     2.808422443577    -0.248963493976    12.000000000000
         H            7.089901318599     5.466902284446    -0.261430674499     1.007825032230
         H           -7.031045942143     5.542702471080    -0.261987426929     1.007825032230
         C           -7.339702232165     2.858426052802    -0.258180202391    12.000000000000
         C           -7.364886149100     1.470337889806    -0.256414664263    12.000000000000
         C           -4.903508799989     1.444441330383    -0.261130928455    12.000000000000
         C           -6.132261343652     0.739953875277    -0.248840884472    12.000000000000
         C           -3.676878991558     0.726711660896    -0.250503212056    12.000000000000
         C           -2.445660777107     1.429655651485    -0.260812922257    12.000000000000
         C           -1.223604872343     0.715339019858    -0.249383657725    12.000000000000
         C            0.007633678272     1.417397667460    -0.250918004008    12.000000000000
         C            1.231215616705     0.702131208810    -0.269744589664    12.000000000000
         C            2.460816909489     1.403306554348    -0.250240080773    12.000000000000
         C            3.684426063155     0.687212946435    -0.251068867050    12.000000000000
         C            4.918704710497     1.391749079412    -0.263470688686    12.000000000000
         C            7.369797886919     2.779496721407    -0.257262660006    12.000000000000
         C            7.380158475080     1.391232026078    -0.255715977160    12.000000000000
         C            6.139795348081     0.674133141423    -0.249387635348    12.000000000000
         H           -8.279194990388     3.407132559347    -0.262477754513     1.007825032230
         H            8.315109280438     3.318132614846    -0.261473235805     1.007825032230
         C           -8.591760128623     0.724847071267    -0.256074236646    12.000000000000
         C           -8.599028794745    -0.632625288006    -0.253951112063    12.000000000000
         C           -6.139817330160    -0.674122118931    -0.260940453398    12.000000000000
         C           -7.380188303179    -1.391251671359    -0.253524391857    12.000000000000
         C           -4.918688671298    -1.391740499807    -0.248599955249    12.000000000000
         C           -3.684442486726    -0.687222797513    -0.259632195313    12.000000000000
         C           -2.460821231289    -1.403330660602    -0.249089109124    12.000000000000
         C           -1.231166203362    -0.702159346658    -0.261209487916    12.000000000000
         C           -0.007573816429    -1.417404331188    -0.253752963612    12.000000000000
         C            1.223643524847    -0.715260859041    -0.243747341663    12.000000000000
         C            2.445666458290    -1.429628770784    -0.255497354423    12.000000000000
         C            3.676862511805    -0.726692913333    -0.259637938818    12.000000000000
         C            6.132244655378    -0.739964321627    -0.261165913031    12.000000000000
         C            4.903514954462    -1.444443002318    -0.247324838490    12.000000000000
         C            8.599010657649     0.632618384891    -0.255853861016    12.000000000000
         C            8.591741297059    -0.724836348971    -0.254117480755    12.000000000000
         C            7.364858573348    -1.470318147383    -0.254347657447    12.000000000000
         H           -9.528310162860     1.276861967415    -0.257544163610     1.007825032230
         H            9.541406783565     1.174587006667    -0.256905893277     1.007825032230
         C           -7.369842100810    -2.779530627711    -0.251716183435    12.000000000000
         C           -4.924603300092    -2.808422739118    -0.259447815871    12.000000000000
         C           -6.166626686709    -3.516637674603    -0.253145975712    12.000000000000
         C           -3.702514550747    -3.524667030898    -0.249123746685    12.000000000000
         C           -2.467651176156    -2.821311444581    -0.261168385042    12.000000000000
         C           -0.015137665149    -2.833127127177    -0.260886796533    12.000000000000
         C           -1.247126032268    -3.534717657340    -0.249322843125    12.000000000000
         C            1.209240878602    -3.547900160421    -0.246783813334    12.000000000000
         C            2.437331831113    -2.847627219953    -0.260923571644    12.000000000000
         C            4.894298152729    -2.861108450063    -0.260102831573    12.000000000000
         C            3.664611063999    -3.564205327309    -0.247223411632    12.000000000000
         C            6.128634823704    -3.582569539495    -0.253877569675    12.000000000000
         C            7.339668473654    -2.858398789148    -0.252362343593    12.000000000000
         H           -9.541453302301    -1.174548948442    -0.252581695890     1.007825032230
         H            9.528257677030    -1.276904555682    -0.252867672994     1.007825032230
         H           -8.315169234890    -3.318135334990    -0.247543954904     1.007825032230
         H            8.279150951450    -3.407126271671    -0.248022787610     1.007825032230
         C           -6.144998379744    -4.927632754561    -0.251819977652    12.000000000000
         C           -3.706787539039    -4.941247195895    -0.261640945740    12.000000000000
         C           -4.955594249043    -5.643479455272    -0.253673811095    12.000000000000
         C           -2.486125517268    -5.654771056187    -0.248701274695    12.000000000000
         C           -1.254062526522    -4.956107531779    -0.259876880681    12.000000000000
         C            1.201008382827    -4.969265869970    -0.258695756423    12.000000000000
         C           -0.030340865455    -5.669505784916    -0.250852556760    12.000000000000
         C            3.653745910287    -4.980729257192    -0.257937756675    12.000000000000
         C            2.425488504834    -5.681160117305    -0.248560826123    12.000000000000
         C            6.091961426769    -4.993243445164    -0.251583343002    12.000000000000
         C            4.894972253569    -5.696333902735    -0.252819538832    12.000000000000
         H           -7.089896579082    -5.466985324016    -0.247417215971     1.007825032230
         H            7.031051018158    -5.542644018110    -0.248003563238     1.007825032230
         C           -4.923549513240    -7.078806581455    -0.254228580000    12.000000000000
         C           -2.485346279279    -7.087713559707    -0.256738472436    12.000000000000
         C           -3.751690082821    -7.763932639414    -0.256543793511    12.000000000000
         C           -0.037953148030    -7.099450356247    -0.256522747288    12.000000000000
         C           -1.277960291443    -7.772889866444    -0.258507440050    12.000000000000
         C            2.409440129685    -7.114007493780    -0.255659546477    12.000000000000
         C            1.194745746111    -7.786170847340    -0.257811837359    12.000000000000
         C            4.847616861456    -7.131247592357    -0.253152731818    12.000000000000
         C            3.668467414834    -7.803773474721    -0.255501166182    12.000000000000
         H           -5.869944541458    -7.613816079819    -0.252684543134     1.007825032230
         H            5.788245434347    -7.676317671092    -0.252025612336     1.007825032230
         H           -3.753531130491    -8.851057051013    -0.258379707940     1.007825032230
         H           -1.284308596936    -8.860860874274    -0.262934823908     1.007825032230
         H            1.189217383654    -8.874146102367    -0.261904474049     1.007825032230
         H            3.658542423782    -8.890846115831    -0.257155707604     1.007825032230

  Charge       = 0
  Multiplicity = 1
  Basis Set: JUN-CC-PVDZ
    Blend: JUN-CC-PVDZ
  Basis Set: (JUN-CC-PVDZ AUX)
    Blend: JUN-CC-PVDZ-JKFIT

    Orbital Energies [Eh]
    ---------------------

    Doubly Occupied:

       1A    -11.264106     2A    -11.263781     3A    -11.263719
       4A    -11.263374     5A    -11.263321     6A    -11.263292
       7A    -11.263177     8A    -11.263146     9A    -11.263124
      10A    -11.262917    11A    -11.262792    12A    -11.262782
      13A    -11.262293    14A    -11.262291    15A    -11.262264
      16A    -11.262243    17A    -11.262146    18A    -11.262135
      19A    -11.262095    20A    -11.262056    21A    -11.262037
      22A    -11.261945    23A    -11.261919    24A    -11.261780
      25A    -11.261774    26A    -11.261753    27A    -11.261734
      28A    -11.261707    29A    -11.261689    30A    -11.261599
      31A    -11.261580    32A    -11.261576    33A    -11.261570
      34A    -11.261554    35A    -11.261546    36A    -11.261529
      37A    -11.261351    38A    -11.261342    39A    -11.261335
      40A    -11.261330    41A    -11.261322    42A    -11.261319
      43A    -11.261306    44A    -11.261289    45A    -11.261286
      46A    -11.261261    47A    -11.261257    48A    -11.261251
      49A    -11.261084    50A    -11.261058    51A    -11.261048
      52A    -11.260994    53A    -11.260962    54A    -11.260915
      55A    -11.259935    56A    -11.259922    57A    -11.259918
      58A    -11.259891    59A    -11.259886    60A    -11.259871
      61A    -11.259305    62A    -11.259280    63A    -11.259276
      64A    -11.259225    65A    -11.259221    66A    -11.259192
      67A    -11.258938    68A    -11.258921    69A    -11.258916
      70A    -11.258890    71A    -11.258886    72A    -11.258875
      73A    -11.254543    74A    -11.254541    75A    -11.254536
      76A    -11.254534    77A    -11.254532    78A    -11.254531
      79A    -11.253674    80A    -11.253670    81A    -11.253667
      82A    -11.253665    83A    -11.253663    84A    -11.253661
      85A    -11.253590    86A    -11.253586    87A    -11.253583
      88A    -11.253580    89A    -11.253578    90A    -11.253576
      91A    -11.253070    92A    -11.253069    93A    -11.253063
      94A    -11.253063    95A    -11.253060    96A    -11.253060
      97A     -1.253955    98A     -1.239016    99A     -1.239012
     100A     -1.220480   101A     -1.220479   102A     -1.215445
     103A     -1.201059   104A     -1.195624   105A     -1.188154
     106A     -1.188152   107A     -1.173783   108A     -1.173779
     109A     -1.155646   110A     -1.155641   111A     -1.152722
     112A     -1.144742   113A     -1.144737   114A     -1.128585
     115A     -1.114730   116A     -1.113180   117A     -1.112488
     118A     -1.112478   119A     -1.111637   120A     -1.088446
     121A     -1.088428   122A     -1.076978   123A     -1.076977
     124A     -1.067632   125A     -1.067602   126A     -1.064981
     127A     -1.046816   128A     -1.046810   129A     -1.040498
     130A     -1.038752   131A     -1.038751   132A     -1.025256
     133A     -1.021390   134A     -1.021344   135A     -1.007198
     136A     -1.006828   137A     -1.003812   138A     -1.000503
     139A     -1.000456   140A     -0.991092   141A     -0.971003
     142A     -0.970954   143A     -0.955899   144A     -0.955844
     145A     -0.905604   146A     -0.905566   147A     -0.905560
     148A     -0.905527   149A     -0.904341   150A     -0.892377
     151A     -0.892325   152A     -0.890378   153A     -0.890315
     154A     -0.889473   155A     -0.872233   156A     -0.869072
     157A     -0.851556   158A     -0.847879   159A     -0.847860
     160A     -0.845610   161A     -0.843035   162A     -0.834582
     163A     -0.834567   164A     -0.828131   165A     -0.828129
     166A     -0.784564   167A     -0.784552   168A     -0.783673
     169A     -0.783645   170A     -0.782300   171A     -0.782285
     172A     -0.782046   173A     -0.767008   174A     -0.760805
     175A     -0.750585   176A     -0.733501   177A     -0.727085
     178A     -0.727074   179A     -0.725099   180A     -0.724556
     181A     -0.724539   182A     -0.718498   183A     -0.713783
     184A     -0.713776   185A     -0.699588   186A     -0.699580
     187A     -0.686130   188A     -0.685971   189A     -0.685970
     190A     -0.682190   191A     -0.682178   192A     -0.678780
     193A     -0.653635   194A     -0.650883   195A     -0.650855
     196A     -0.649821   197A     -0.649804   198A     -0.649580
     199A     -0.640932   200A     -0.640912   201A     -0.640103
     202A     -0.639177   203A     -0.636029   204A     -0.636005
     205A     -0.629157   206A     -0.617727   207A     -0.615318
     208A     -0.615299   209A     -0.608815   210A     -0.608808
     211A     -0.599152   212A     -0.599082   213A     -0.598754
     214A     -0.598624   215A     -0.598594   216A     -0.598039
     217A     -0.595082   218A     -0.595069   219A     -0.594735
     220A     -0.594241   221A     -0.591965   222A     -0.591962
     223A     -0.587399   224A     -0.577809   225A     -0.577798
     226A     -0.575669   227A     -0.575664   228A     -0.573395
     229A     -0.569576   230A     -0.568143   231A     -0.568124
     232A     -0.566765   233A     -0.566753   234A     -0.560926
     235A     -0.558724   236A     -0.558709   237A     -0.558439
     238A     -0.554380   239A     -0.550557   240A     -0.547487
     241A     -0.544268   242A     -0.535046   243A     -0.534967
     244A     -0.533544   245A     -0.533524   246A     -0.528088
     247A     -0.528074   248A     -0.527797   249A     -0.517167
     250A     -0.517132   251A     -0.515355   252A     -0.515349
     253A     -0.509655   254A     -0.509638   255A     -0.498040
     256A     -0.496460   257A     -0.496432   258A     -0.493792
     259A     -0.493778   260A     -0.489442   261A     -0.481463
     262A     -0.477424   263A     -0.477416   264A     -0.474006
     265A     -0.469450   266A     -0.466535   267A     -0.466530
     268A     -0.458803   269A     -0.446691   270A     -0.446629
     271A     -0.441036   272A     -0.440768   273A     -0.440749
     274A     -0.434690   275A     -0.433914   276A     -0.407379
     277A     -0.407348   278A     -0.386402   279A     -0.386342
     280A     -0.385737   281A     -0.385732   282A     -0.383743
     283A     -0.354312   284A     -0.354304   285A     -0.350661
     286A     -0.338094   287A     -0.335591   288A     -0.335517
     289A     -0.332714   290A     -0.332709   291A     -0.307050
     292A     -0.301930   293A     -0.301873   294A     -0.300851
     295A     -0.286172   296A     -0.256481   297A     -0.253488
     298A     -0.253434   299A     -0.204263   300A     -0.204173

  @DF-RHF Final Energy: -3650.33978457696185

   => Energetics <=

    Nuclear Repulsion Energy =          15611.4211649754324753
    One-Electron Energy =              -36072.1385430716036353
    Two-Electron Energy =               16810.3775935192097677
    Total Energy =                      -3650.3397845769613923
 Dipole X            :          0.0000161            0.0001983            0.0002144
 Dipole Y            :          0.0013016           -0.0013163           -0.0000147
 Dipole Z            :        288.9458497         -288.9461565           -0.0003068
 Magnitude           :                                                    0.0003746

    SAPT Results
  --------------------------------------------------------------------------------------------------------
    Electrostatics                  7.10576139 [mEh]       4.45893259 [kcal/mol]      18.65617397 [kJ/mol]
      Elst10,r                      7.10576139 [mEh]       4.45893259 [kcal/mol]      18.65617397 [kJ/mol]

    Exchange                       13.23984838 [mEh]       8.30813029 [kcal/mol]      34.76121713 [kJ/mol]
      Exch10                       13.23984838 [mEh]       8.30813029 [kcal/mol]      34.76121713 [kJ/mol]
      Exch10(S^2)                  13.21317018 [mEh]       8.29138947 [kcal/mol]      34.69117353 [kJ/mol]

    Induction                     -18.96533586 [mEh]     -11.90092792 [kcal/mol]     -49.79348244 [kJ/mol]
      Ind20,r                     -22.11715716 [mEh]     -13.87872565 [kcal/mol]     -58.06858813 [kJ/mol]
      Exch-Ind20,r                  4.30508808 [mEh]       2.70148356 [kcal/mol]      11.30300721 [kJ/mol]
      delta HF,r (2)               -1.15326678 [mEh]      -0.72368583 [kcal/mol]      -3.02790152 [kJ/mol]

    Dispersion                    -10.83582958 [mEh]      -6.79958572 [kcal/mol]     -28.44946665 [kJ/mol]
      Disp20                      -12.54417008 [mEh]      -7.87158557 [kcal/mol]     -32.93471401 [kJ/mol]
      Exch-Disp20                   1.70834050 [mEh]       1.07199985 [kcal/mol]       4.48524736 [kJ/mol]
      Disp20 (SS)                  -6.27208504 [mEh]      -3.93579278 [kcal/mol]     -16.46735701 [kJ/mol]
      Disp20 (OS)                  -6.27208504 [mEh]      -3.93579278 [kcal/mol]     -16.46735701 [kJ/mol]
      Exch-Disp20 (SS)              0.98397568 [mEh]       0.61745406 [kcal/mol]       2.58342779 [kJ/mol]
      Exch-Disp20 (OS)              0.72436482 [mEh]       0.45454579 [kcal/mol]       1.90181958 [kJ/mol]

  Total HF                          1.38027392 [mEh]       0.86613496 [kcal/mol]       3.62390867 [kJ/mol]
  Total SAPT0                      -9.45555567 [mEh]      -5.93345076 [kcal/mol]     -24.82555798 [kJ/mol]

  Special recipe for scaled SAPT0 (see Manual):
    Electrostatics sSAPT0           7.10576139 [mEh]       4.45893259 [kcal/mol]      18.65617397 [kJ/mol]
    Exchange sSAPT0                13.23984838 [mEh]       8.30813029 [kcal/mol]      34.76121713 [kJ/mol]
    Induction sSAPT0              -18.93920646 [mEh]     -11.88453148 [kcal/mol]     -49.72487972 [kJ/mol]
    Dispersion sSAPT0             -10.82546094 [mEh]      -6.79307930 [kcal/mol]     -28.42224379 [kJ/mol]
  Total sSAPT0                     -9.41905763 [mEh]      -5.91054790 [kcal/mol]     -24.72973240 [kJ/mol]
  --------------------------------------------------------------------------------------------------------

*** Psi4 exiting successfully. Buy a developer a beer!
