                               Psi4 1.9 release

  ==> Input File <==

--------------------------------------------------------------------------
memory 47 GB # how much memory is available ! Depends on the nodes/cores !

molecule dimer {
# monomer A
-1 1    # Charge and multiplicity
B -1.977592e-04  2.742729e-04 -6.599966
F  1.123153e-16  1.430594e-17 -5.187181
F  1.147860e+00  6.757812e-01 -7.071107
F  1.191806e-02 -1.332011e+00 -7.070905
F -1.159666e+00  6.560735e-01 -7.070826
--
# monomer B
0 1     # Charge and multiplicity
C   -3.66844126402057      7.80375217008252      0.00190004133558
C   -4.84759871934653      7.13124183134024     -0.00046653359696
C   -4.89495929917518      5.69633040353158     -0.00103944469517
C   -3.65374067877320      4.98073034095895      0.00662099703436
C   -2.40942512149445      7.11398103667468      0.00209438359570
C   -2.42547734410473      5.68112195090346     -0.00491050527438
C   -1.19474401643570      7.78614419430947      0.00356656413763
C   0.03795902893699      7.09942164575698      0.00139585983271
C   0.03033258741920      5.66948955970466     -0.00408752508301
C   -1.20098450790502      4.96927034791531      0.00488220885047
C   1.27795782581485      7.77285944319479      0.00277170839332
C   2.48535808472416      7.08769688523756      0.00049722048857
C   2.48612868491717      5.65477081024076     -0.00644052849921
C   1.25408291964399      4.95607811366431      0.00518741308898
C   3.75171459140595      7.76391215098033      0.00062407186893
C   4.92356605618520      7.07878077698995     -0.00143240883900
C   4.95560727132542      5.64344746336949     -0.00159282164606
C   3.70680153420475      4.94121020833308      0.00349873852374
H   -3.65852113775815      8.89082741913536      0.00358502958574
H   -1.18921332975660      8.87412108735996      0.00753844057883
H   1.28429423888630      8.86083343548850      0.00693053253426
H   3.75354208679975      8.85103527897216      0.00214659618464
H   5.86995870320703      7.61379483465560     -0.00235777588134
H   -5.78823170750226      7.67630221293400     -0.00202638095293
C   -6.09197395869619      4.99326001364347     -0.00291168518608
C   -6.12866148031747      3.58258016879823     -0.00171050815740
C   -3.66457974004527      3.56418217974434     -0.00463560277484
C   -4.89429820469869      2.86108077590057      0.00453338221034
C   -2.43733499489796      2.84761165708481      0.00719617576166
C   -1.20922785759670      3.54788693497833     -0.00648285103018
C   1.24714157216223      3.53468075142962     -0.00729145743546
C   0.01517603956900      2.83311183930540      0.00439272578912
C   2.46764517244071      2.82128997725533      0.00449278391269
C   3.70254947457969      3.52466015442405     -0.00899517692985
C   6.14498038638375      4.92757236613191     -0.00282626685777
C   6.16658835886151      3.51658447594213     -0.00065971342101
C   4.92460995845939      2.80840792535402      0.00587903281610
H   7.08990550964105      5.46688776622306     -0.00658814770723
H   -7.03104175110130      5.54268795285765     -0.00714490013730
C   -7.33969804112295      2.85841153457957     -0.00333767559888
C   -7.36488195805880      1.47032337158330     -0.00157213747140
C   -4.90350460894690      1.44442681216000     -0.00628840166334
C   -6.13225715261081      0.73993935705394      0.00600164231964
C   -3.67687480051673      0.72669714267312      0.00433931473643
C   -2.44565658606518      1.42964113326212     -0.00597039546461
C   -1.22360068130162      0.71532450163492      0.00545886906656
C   0.00763786931376      1.41738314923765      0.00392452278437
C   1.23121980774686      0.70211669058719     -0.01490206287210
C   2.46082110053113      1.40329203612573      0.00460244601878
C   3.68443025419614      0.68719842821222      0.00377365974158
C   4.91870890153864      1.39173456118907     -0.00862816189375
C   7.36980207796101      2.77948220318441     -0.00242013321349
C   7.38016266612146      1.39121750785509     -0.00087345036788
C   6.13979953912259      0.67411862320065      0.00545489144369
H   -8.27919079934664      3.40711804112415     -0.00763522772059
H   8.31511347147953      3.31811809662368     -0.00663070901292
C   -8.59175593758115      0.72483255304480     -0.00123170985383
C   -8.59902460370342     -0.63263980622873      0.00089141472904
C   -6.13981313911873     -0.67413663715361     -0.00609792660607
C   -7.38018411213749     -1.39126618958160      0.00131813493501
C   -4.91868448025621     -1.39175501803000      0.00624257154343
C   -3.68443829568458     -0.68723731573599     -0.00478966852105
C   -2.46081704024768     -1.40334517882457      0.00575341766833
C   -1.23116201232071     -0.70217386488055     -0.00636696112346
C   -0.00756962538737     -1.41741884941102      0.00108956317991
C   1.22364771588843     -0.71527537726392      0.01109518512883
C   2.44567064933149     -1.42964328900682     -0.00065482763106
C   3.67686670284649     -0.72670743155550     -0.00479541202602
C   6.13224884641929     -0.73997883984993     -0.00632338623858
C   4.90351914550401     -1.44445752054090      0.00751768830159
C   8.59901484869081      0.63260386666793     -0.00101133422380
C   8.59174548810050     -0.72485086719319      0.00072504603735
C   7.36486276438985     -1.47033266560598      0.00049486934466
H   -9.52830597181814      1.27684744919284     -0.00270163681798
H   9.54141097460619      1.17457248844457     -0.00206336648518
C   -7.36983790976868     -2.77954514593389      0.00312634335708
C   -4.92459910905015     -2.80843725734101     -0.00460528907921
C   -6.16662249566744     -3.51665219282533      0.00169655107992
C   -3.70251035970491     -3.52468154912026      0.00571878010666
C   -2.46764698511392     -2.82132596280400     -0.00632585824990
C   -0.01513347410770     -2.83314164539971     -0.00604426974092
C   -1.24712184122656     -3.53473217556300      0.00551968366725
C   1.20924506964357     -3.54791467864352      0.00805871345849
C   2.43733602215464     -2.84764173817541     -0.00608104485234
C   4.89430234377080     -2.86112296828604     -0.00526030478103
C   3.66461525504104     -3.56421984553201      0.00761911515957
C   6.12863901474565     -3.58258405771778      0.00096495711699
C   7.33967266469532     -2.85841330737039      0.00248018319869
H   -9.54144911125902     -1.17456346666430      0.00226083090216
H   9.52826186807155     -1.27691907390448      0.00197485379837
H   -8.31516504384864     -3.31814985321231      0.00729857188773
H   8.27915514249207     -3.40714078989363      0.00681973918158
C   -6.14499418870218     -4.92764727278338      0.00302254913999
C   -3.70678334799751     -4.94126171411716     -0.00679841894792
C   -4.95559005800169     -5.64349397349412      0.00116871569699
C   -2.48612132622665     -5.65478557440947      0.00614125209662
C   -1.25405833548005     -4.95612205000132     -0.00503435388927
C   1.20101257386816     -4.96928038819302     -0.00385322963129
C   -0.03033667441341     -5.66952030313900      0.00398997003238
C   3.65375010132847     -4.98074377541453     -0.00309522988330
C   2.42549269587528     -5.68117463552727      0.00628170066869
C   6.09196561781097     -4.99325796338655      0.00325918379042
C   4.89497644461045     -5.69634842095790      0.00202298796027
H   -7.08989238804069     -5.46699984223871      0.00742531082125
H   7.03105520920009     -5.54265853633254      0.00683896355417
C   -4.92354532219813     -7.07882109967734      0.00061394679214
C   -2.48534208823777     -7.08772807792913     -0.00189594564379
C   -3.75168589177895     -7.76394715763627     -0.00170126671874
C   -0.03794895698805     -7.09946487446944     -0.00168022049625
C   -1.27795610040136     -7.77290438466689     -0.00366491325785
C   2.40944432072629     -7.11402201200282     -0.00081701968533
C   1.19474993715296     -7.78618536556242     -0.00296931056689
C   4.84762105249800     -7.13126211057943      0.00168979497423
C   3.66847160587561     -7.80378799294376     -0.00065863938960
H   -5.86994035041618     -7.61383059804164      0.00215798365757
H   5.78824962538815     -7.67633218931421      0.00281691445618
H   -3.75352693944918     -8.85107156923607     -0.00353718114765
H   -1.28430440589466     -8.86087539249706     -0.00809229711623
H   1.18922157469537     -8.87416062058945     -0.00706194725726
H   3.65854661482387     -8.89086063405326     -0.00231318081200

    units angstrom      # Angstroms are the default
    no_reorient         # Geometry fixed, default
    symmetry c1         # C1 symmetry, default
}

set {
    scf_type DF         # Density fitting, faster than exact integrals
    freeze_core True    # Freeze core electrons
    basis jun-cc-pVDZ   # Jun-cc-pVDZ basis set, recommended for sSAPT0 in https://doi.org/10.1063/1.4867135
}

energy('ssapt0')        # Compute sSAPT0 energy, includes also SAPT0
--------------------------------------------------------------------------

  //              Dimer HF             //
    Molecular point group: c1
  Charge       = -1
  Multiplicity = 1
  Basis Set: JUN-CC-PVDZ
    Blend: JUN-CC-PVDZ
  Basis Set: (JUN-CC-PVDZ AUX)
    Blend: JUN-CC-PVDZ-JKFIT
  @DF-RHF Final Energy: -4073.10447952814366
    Total Energy =                      -4073.1044795281450206
 Dipole X            :         -0.0006171           -0.0000548           -0.0006719
 Dipole Y            :          0.0009290           -0.0002464            0.0006827
 Dipole Z            :        -28.6819125           39.2771279           10.5952155
 Magnitude           :                                                   10.5952155
  //            Monomer A HF           //
    Molecular point group: c1
  Multiplicity = 1
  Basis Set: JUN-CC-PVDZ
    Blend: JUN-CC-PVDZ
  Basis Set: (JUN-CC-PVDZ AUX)
    Blend: JUN-CC-PVDZ-JKFIT
  @DF-RHF Final Energy:  -422.77157949668879
    Total Energy =                       -422.7715794966887870
  //            Monomer B HF           //
    Molecular point group: c1

    Geometry (in Angstrom), charge = 0, multiplicity = 1:

       Center              X                  Y                   Z               Mass
    ------------   -----------------  -----------------  -----------------  -----------------
      Gh(B)          -0.000201921932     0.000288800891    -6.145390700346    11.009305360000
      Gh(F)          -0.000004162732     0.000014527991    -4.732605700346    18.998403162730
      Gh(F)           1.147855837268     0.675795727991    -6.616531700346    18.998403162730
      Gh(F)           0.011913897268    -1.331996472009    -6.616329700346    18.998403162730
      Gh(F)          -1.159670162732     0.656088027991    -6.616250700346    18.998403162730
         C           -3.668445426752     7.803766698073     0.456475340989    12.000000000000
         C           -4.847602882078     7.131256359331     0.454108766057    12.000000000000
         C           -4.894963461907     5.696344931522     0.453535854959    12.000000000000
         C           -3.653744841505     4.980744868950     0.461196296688    12.000000000000
         C           -2.409429284226     7.113995564665     0.456669683250    12.000000000000
         C           -2.425481506836     5.681136478894     0.449664794380    12.000000000000
         C           -1.194748179167     7.786158722300     0.458141863792    12.000000000000
         C            0.037954866205     7.099436173748     0.455971159487    12.000000000000
         C            0.030328424687     5.669504087695     0.450487774571    12.000000000000
         C           -1.200988670637     4.969284875906     0.459457508504    12.000000000000
         C            1.277953663083     7.772873971185     0.457347008047    12.000000000000
         C            2.485353921992     7.087711413228     0.455072520142    12.000000000000
         C            2.486124522185     5.654785338231     0.448134771155    12.000000000000
         C            1.254078756912     4.956092641655     0.459762712743    12.000000000000
         C            3.751710428674     7.763926678971     0.455199371523    12.000000000000
         C            4.923561893453     7.078795304981     0.453142890815    12.000000000000
         C            4.955603108594     5.643461991360     0.452982478008    12.000000000000
         C            3.706797371473     4.941224736324     0.458074038178    12.000000000000
         H           -3.658525300490     8.890841947126     0.458160329240     1.007825032230
         H           -1.189217492488     8.874135615351     0.462113740233     1.007825032230
         H            1.284290076155     8.860847963479     0.461505832188     1.007825032230
         H            3.753537924068     8.851049806963     0.456721895839     1.007825032230
         H            5.869954540475     7.613809362646     0.452217523773     1.007825032230
         H           -5.788235870234     7.676316740925     0.452548918701     1.007825032230
         C           -6.091978121428     4.993274541634     0.451663614468    12.000000000000
         C           -6.128665643049     3.582594696789     0.452864791496    12.000000000000
         C           -3.664583902777     3.564196707735     0.449939696879    12.000000000000
         C           -4.894302367430     2.861095303891     0.459108681864    12.000000000000
         C           -2.437339157630     2.847626185075     0.461771475416    12.000000000000
         C           -1.209232020328     3.547901462969     0.448092448624    12.000000000000
         C            1.247137409430     3.534695279420     0.447283842218    12.000000000000
         C            0.015171876837     2.833126367296     0.458968025443    12.000000000000
         C            2.467641009709     2.821304505246     0.459068083567    12.000000000000
         C            3.702545311848     3.524674682415     0.445580122724    12.000000000000
         C            6.144976223652     4.927586894122     0.451749032796    12.000000000000
         C            6.166584196130     3.516599003933     0.453915586233    12.000000000000
         C            4.924605795728     2.808422453345     0.460454332470    12.000000000000
         H            7.089901346909     5.466902294214     0.447987151947     1.007825032230
         H           -7.031045913833     5.542702480848     0.447430399517     1.007825032230
         C           -7.339702203855     2.858426062570     0.451237624055    12.000000000000
         C           -7.364886120791     1.470337899574     0.453003162182    12.000000000000
         C           -4.903508771679     1.444441340151     0.448286897991    12.000000000000
         C           -6.132261315343     0.739953885044     0.460576941974    12.000000000000
         C           -3.676878963248     0.726711670664     0.458914614390    12.000000000000
         C           -2.445660748797     1.429655661253     0.448604904189    12.000000000000
         C           -1.223604844033     0.715339029625     0.460034168720    12.000000000000
         C            0.007633706582     1.417397677228     0.458499822438    12.000000000000
         C            1.231215645015     0.702131218578     0.439673236782    12.000000000000
         C            2.460816937799     1.403306564116     0.459177745673    12.000000000000
         C            3.684426091464     0.687212956203     0.458348959395    12.000000000000
         C            4.918704738807     1.391749089180     0.445947137760    12.000000000000
         C            7.369797915229     2.779496731175     0.452155166440    12.000000000000
         C            7.380158503390     1.391232035846     0.453701849286    12.000000000000
         C            6.139795376391     0.674133151191     0.460030191098    12.000000000000
         H           -8.279194962078     3.407132569115     0.446940071933     1.007825032230
         H            8.315109308748     3.318132624614     0.447944590641     1.007825032230
         C           -8.591760100313     0.724847081035     0.453343589800    12.000000000000
         C           -8.599028766435    -0.632625278238     0.455466714383    12.000000000000
         C           -6.139817301850    -0.674122109163     0.448477373048    12.000000000000
         C           -7.380188274869    -1.391251661591     0.455893434589    12.000000000000
         C           -4.918688642988    -1.391740490039     0.460817871197    12.000000000000
         C           -3.684442458416    -0.687222787745     0.449785631133    12.000000000000
         C           -2.460821202979    -1.403330650834     0.460328717322    12.000000000000
         C           -1.231166175052    -0.702159336890     0.448208338530    12.000000000000
         C           -0.007573788119    -1.417404321420     0.455664862834    12.000000000000
         C            1.223643553157    -0.715260849273     0.465670484783    12.000000000000
         C            2.445666486600    -1.429628761016     0.453920472023    12.000000000000
         C            3.676862540115    -0.726692903565     0.449779887628    12.000000000000
         C            6.132244683688    -0.739964311859     0.448251913415    12.000000000000
         C            4.903514982772    -1.444442992550     0.462092987955    12.000000000000
         C            8.599010685959     0.632618394658     0.453563965430    12.000000000000
         C            8.591741325369    -0.724836339203     0.455300345691    12.000000000000
         C            7.364858601658    -1.470318137615     0.455070168999    12.000000000000
         H           -9.528310134550     1.276861977183     0.451873662836     1.007825032230
         H            9.541406811874     1.174587016435     0.452511933169     1.007825032230
         C           -7.369842072500    -2.779530617943     0.457701643011    12.000000000000
         C           -4.924603271782    -2.808422729350     0.449970010575    12.000000000000
         C           -6.166626658399    -3.516637664835     0.456271850734    12.000000000000
         C           -3.702514522437    -3.524667021130     0.460294079761    12.000000000000
         C           -2.467651147846    -2.821311434813     0.448249441404    12.000000000000
         C           -0.015137636839    -2.833127117409     0.448531029913    12.000000000000
         C           -1.247126003958    -3.534717647572     0.460094983321    12.000000000000
         C            1.209240906912    -3.547900150653     0.462634013112    12.000000000000
         C            2.437331859423    -2.847627210185     0.448494254802    12.000000000000
         C            4.894298181039    -2.861108440295     0.449314994873    12.000000000000
         C            3.664611092309    -3.564205317541     0.462194414813    12.000000000000
         C            6.128634852014    -3.582569529727     0.455540256771    12.000000000000
         C            7.339668501964    -2.858398779380     0.457055482853    12.000000000000
         H           -9.541453273991    -1.174548938674     0.456836130556     1.007825032230
         H            9.528257705340    -1.276904545914     0.456550153452     1.007825032230
         H           -8.315169206580    -3.318135325222     0.461873871542     1.007825032230
         H            8.279150979760    -3.407126261903     0.461395038835     1.007825032230
         C           -6.144998351434    -4.927632744793     0.457597848794    12.000000000000
         C           -3.706787510729    -4.941247186127     0.447776880706    12.000000000000
         C           -4.955594220733    -5.643479445504     0.455744015351    12.000000000000
         C           -2.486125488958    -5.654771046419     0.460716551751    12.000000000000
         C           -1.254062498212    -4.956107522011     0.449540945765    12.000000000000
         C            1.201008411136    -4.969265860202     0.450722070023    12.000000000000
         C           -0.030340837145    -5.669505775148     0.458565269686    12.000000000000
         C            3.653745938597    -4.980729247424     0.451480069771    12.000000000000
         C            2.425488533144    -5.681160107537     0.460857000323    12.000000000000
         C            6.091961455079    -4.993243435396     0.457834483444    12.000000000000
         C            4.894972281879    -5.696333892967     0.456598287614    12.000000000000
         H           -7.089896550772    -5.466985314248     0.462000610475     1.007825032230
         H            7.031051046468    -5.542644008342     0.461414263208     1.007825032230
         C           -4.923549484930    -7.078806571687     0.455189246446    12.000000000000
         C           -2.485346250970    -7.087713549939     0.452679354010    12.000000000000
         C           -3.751690054511    -7.763932629646     0.452874032935    12.000000000000
         C           -0.037953119720    -7.099450346479     0.452895079158    12.000000000000
         C           -1.277960263133    -7.772889856676     0.450910386396    12.000000000000
         C            2.409440157995    -7.114007484012     0.453758279969    12.000000000000
         C            1.194745774421    -7.786170837572     0.451605989087    12.000000000000
         C            4.847616889766    -7.131247582589     0.456265094628    12.000000000000
         C            3.668467443144    -7.803773464953     0.453916660264    12.000000000000
         H           -5.869944513148    -7.613816070051     0.456733283311     1.007825032230
         H            5.788245462656    -7.676317661324     0.457392214110     1.007825032230
         H           -3.753531102181    -8.851057041246     0.451038118506     1.007825032230
         H           -1.284308568626    -8.860860864507     0.446483002538     1.007825032230
         H            1.189217411964    -8.874146092599     0.447513352397     1.007825032230
         H            3.658542452092    -8.890846106063     0.452262118842     1.007825032230

  Charge       = 0
  Multiplicity = 1
  Basis Set: JUN-CC-PVDZ
    Blend: JUN-CC-PVDZ
  Basis Set: (JUN-CC-PVDZ AUX)
    Blend: JUN-CC-PVDZ-JKFIT

    Orbital Energies [Eh]
    ---------------------

    Doubly Occupied:

       1A    -11.264047     2A    -11.263728     3A    -11.263726
       4A    -11.263380     5A    -11.263376     6A    -11.263346
       7A    -11.263183     8A    -11.263165     9A    -11.263163
      10A    -11.263001    11A    -11.262842    12A    -11.262837
      13A    -11.262360    14A    -11.262357    15A    -11.262288
      16A    -11.262287    17A    -11.262233    18A    -11.262200
      19A    -11.262152    20A    -11.262116    21A    -11.262114
      22A    -11.261964    23A    -11.261960    24A    -11.261838
      25A    -11.261826    26A    -11.261811    27A    -11.261806
      28A    -11.261760    29A    -11.261753    30A    -11.261679
      31A    -11.261652    32A    -11.261649    33A    -11.261622
      34A    -11.261621    35A    -11.261599    36A    -11.261557
      37A    -11.261416    38A    -11.261405    39A    -11.261399
      40A    -11.261391    41A    -11.261387    42A    -11.261378
      43A    -11.261373    44A    -11.261358    45A    -11.261353
      46A    -11.261331    47A    -11.261327    48A    -11.261323
      49A    -11.261166    50A    -11.261134    51A    -11.261131
      52A    -11.261049    53A    -11.261048    54A    -11.260977
      55A    -11.260016    56A    -11.260003    57A    -11.260000
      58A    -11.259971    59A    -11.259969    60A    -11.259953
      61A    -11.259393    62A    -11.259368    63A    -11.259366
      64A    -11.259313    65A    -11.259311    66A    -11.259282
      67A    -11.259020    68A    -11.259003    69A    -11.259001
      70A    -11.258973    71A    -11.258971    72A    -11.258959
      73A    -11.254591    74A    -11.254590    75A    -11.254588
      76A    -11.254586    77A    -11.254580    78A    -11.254578
      79A    -11.253741    80A    -11.253739    81A    -11.253737
      82A    -11.253735    83A    -11.253733    84A    -11.253727
      85A    -11.253656    86A    -11.253655    87A    -11.253652
      88A    -11.253651    89A    -11.253648    90A    -11.253643
      91A    -11.253119    92A    -11.253117    93A    -11.253116
      94A    -11.253113    95A    -11.253108    96A    -11.253106
      97A     -1.254124    98A     -1.239139    99A     -1.239139
     100A     -1.220585   101A     -1.220580   102A     -1.215598
     103A     -1.201147   104A     -1.195717   105A     -1.188293
     106A     -1.188292   107A     -1.173867   108A     -1.173864
     109A     -1.155771   110A     -1.155767   111A     -1.152870
     112A     -1.144820   113A     -1.144817   114A     -1.128698
     115A     -1.114855   116A     -1.113261   117A     -1.112631
     118A     -1.112617   119A     -1.111711   120A     -1.088558
     121A     -1.088543   122A     -1.077057   123A     -1.077056
     124A     -1.067749   125A     -1.067720   126A     -1.065118
     127A     -1.046919   128A     -1.046911   129A     -1.040606
     130A     -1.038830   131A     -1.038829   132A     -1.025386
     133A     -1.021552   134A     -1.021502   135A     -1.007290
     136A     -1.006936   137A     -1.003908   138A     -1.000630
     139A     -1.000582   140A     -0.991166   141A     -0.971119
     142A     -0.971071   143A     -0.955989   144A     -0.955934
     145A     -0.905755   146A     -0.905713   147A     -0.905639
     148A     -0.905598   149A     -0.904508   150A     -0.892529
     151A     -0.892470   152A     -0.890511   153A     -0.890453
     154A     -0.889590   155A     -0.872319   156A     -0.869134
     157A     -0.851648   158A     -0.848009   159A     -0.847987
     160A     -0.845743   161A     -0.843154   162A     -0.834682
     163A     -0.834669   164A     -0.828211   165A     -0.828208
     166A     -0.784670   167A     -0.784659   168A     -0.783794
     169A     -0.783767   170A     -0.782417   171A     -0.782397
     172A     -0.782178   173A     -0.767108   174A     -0.760950
     175A     -0.750722   176A     -0.733585   177A     -0.727190
     178A     -0.727177   179A     -0.725214   180A     -0.724657
     181A     -0.724639   182A     -0.718648   183A     -0.713916
     184A     -0.713910   185A     -0.699691   186A     -0.699679
     187A     -0.686283   188A     -0.686060   189A     -0.686058
     190A     -0.682282   191A     -0.682272   192A     -0.678905
     193A     -0.653741   194A     -0.650991   195A     -0.650961
     196A     -0.649960   197A     -0.649944   198A     -0.649667
     199A     -0.641080   200A     -0.641054   201A     -0.640193
     202A     -0.639257   203A     -0.636155   204A     -0.636128
     205A     -0.629261   206A     -0.617690   207A     -0.615401
     208A     -0.615381   209A     -0.608912   210A     -0.608905
     211A     -0.599176   212A     -0.599138   213A     -0.598867
     214A     -0.598744   215A     -0.598717   216A     -0.598184
     217A     -0.595168   218A     -0.595156   219A     -0.594839
     220A     -0.594392   221A     -0.592083   222A     -0.592080
     223A     -0.587550   224A     -0.577876   225A     -0.577866
     226A     -0.575727   227A     -0.575724   228A     -0.573488
     229A     -0.569598   230A     -0.568286   231A     -0.568262
     232A     -0.566874   233A     -0.566864   234A     -0.560995
     235A     -0.558850   236A     -0.558832   237A     -0.558511
     238A     -0.554486   239A     -0.550625   240A     -0.547554
     241A     -0.544335   242A     -0.535030   243A     -0.534991
     244A     -0.533646   245A     -0.533624   246A     -0.528177
     247A     -0.528162   248A     -0.527947   249A     -0.517304
     250A     -0.517270   251A     -0.515420   252A     -0.515415
     253A     -0.509740   254A     -0.509724   255A     -0.498135
     256A     -0.496564   257A     -0.496538   258A     -0.493834
     259A     -0.493824   260A     -0.489490   261A     -0.481550
     262A     -0.477484   263A     -0.477481   264A     -0.474100
     265A     -0.469569   266A     -0.466645   267A     -0.466641
     268A     -0.458871   269A     -0.446848   270A     -0.446787
     271A     -0.441093   272A     -0.440821   273A     -0.440798
     274A     -0.434752   275A     -0.433970   276A     -0.407442
     277A     -0.407418   278A     -0.386478   279A     -0.386430
     280A     -0.385794   281A     -0.385792   282A     -0.383826
     283A     -0.354395   284A     -0.354379   285A     -0.350732
     286A     -0.338155   287A     -0.335665   288A     -0.335595
     289A     -0.332776   290A     -0.332769   291A     -0.307159
     292A     -0.302017   293A     -0.301954   294A     -0.300909
     295A     -0.286236   296A     -0.256524   297A     -0.253574
     298A     -0.253521   299A     -0.204329   300A     -0.204239

  @DF-RHF Final Energy: -3650.33778999522747

   => Energetics <=

    Nuclear Repulsion Energy =          15611.4211649754324753
    One-Electron Energy =              -36072.0823294239453389
    Two-Electron Energy =               16810.3233744532844867
    Total Energy =                      -3650.3377899952283769
 Dipole X            :         -0.0008836            0.0002304           -0.0006532
 Dipole Y            :          0.0010916           -0.0013052           -0.0002136
 Dipole Z            :       -515.4139888          515.4170838            0.0030950
 Magnitude           :                                                    0.0031704

    SAPT Results
  --------------------------------------------------------------------------------------------------------
    Electrostatics                  8.85684802 [mEh]       5.55775604 [kcal/mol]      23.25365128 [kJ/mol]
      Elst10,r                      8.85684802 [mEh]       5.55775604 [kcal/mol]      23.25365128 [kJ/mol]

    Exchange                        0.00004474 [mEh]       0.00002807 [kcal/mol]       0.00011746 [kJ/mol]
      Exch10                        0.00004474 [mEh]       0.00002807 [kcal/mol]       0.00011746 [kJ/mol]
      Exch10(S^2)                   0.00004474 [mEh]       0.00002808 [kcal/mol]       0.00011747 [kJ/mol]

    Induction                      -3.96692899 [mEh]      -2.48928552 [kcal/mol]     -10.41517063 [kJ/mol]
      Ind20,r                      -3.99214624 [mEh]      -2.50510959 [kcal/mol]     -10.48137851 [kJ/mol]
      Exch-Ind20,r                  0.00163833 [mEh]       0.00102807 [kcal/mol]       0.00430143 [kJ/mol]
      delta HF,r (2)                0.02357892 [mEh]       0.01479600 [kcal/mol]       0.06190646 [kJ/mol]

    Dispersion                     -0.68202336 [mEh]      -0.42797612 [kcal/mol]      -1.79065208 [kJ/mol]
      Disp20                       -0.68292983 [mEh]      -0.42854494 [kcal/mol]      -1.79303203 [kJ/mol]
      Exch-Disp20                   0.00090648 [mEh]       0.00056882 [kcal/mol]       0.00237995 [kJ/mol]
      Disp20 (SS)                  -0.34146492 [mEh]      -0.21427247 [kcal/mol]      -0.89651602 [kJ/mol]
      Disp20 (OS)                  -0.34146492 [mEh]      -0.21427247 [kcal/mol]      -0.89651602 [kJ/mol]
      Exch-Disp20 (SS)              0.00069307 [mEh]       0.00043491 [kcal/mol]       0.00181965 [kJ/mol]
      Exch-Disp20 (OS)              0.00021341 [mEh]       0.00013392 [kcal/mol]       0.00056031 [kJ/mol]

  Total HF                          4.88996377 [mEh]       3.06849859 [kcal/mol]      12.83859812 [kJ/mol]
  Total SAPT0                       4.20794041 [mEh]       2.64052247 [kcal/mol]      11.04794603 [kJ/mol]

  Special recipe for scaled SAPT0 (see Manual):
    Electrostatics sSAPT0           8.85684802 [mEh]       5.55775604 [kcal/mol]      23.25365128 [kJ/mol]
    Exchange sSAPT0                 0.00004474 [mEh]       0.00002807 [kcal/mol]       0.00011746 [kJ/mol]
    Induction sSAPT0               -3.96692899 [mEh]      -2.48928552 [kcal/mol]     -10.41517063 [kJ/mol]
    Dispersion sSAPT0              -0.68202336 [mEh]      -0.42797612 [kcal/mol]      -1.79065208 [kJ/mol]
  Total sSAPT0                      4.20794041 [mEh]       2.64052247 [kcal/mol]      11.04794603 [kJ/mol]
  --------------------------------------------------------------------------------------------------------

*** Psi4 exiting successfully. Buy a developer a beer!
