                               Psi4 1.9 release

  ==> Input File <==

--------------------------------------------------------------------------
memory 80 GB # how much memory is available ! Depends on the nodes/cores !

molecule dimer {
# monomer A
+1 1    # Charge and multiplicity
C  0.680067 1.417258 -5.715929
C -0.680504 1.419286 -5.715545
N -1.085635 1.420284 -4.397221
C  0.000108 1.423560 -3.615820
C -2.477365 1.469690 -3.929242
N  1.085222 1.420284 -4.397221
H  1.385146 1.409430 -6.533368
H -1.385302 1.419096 -6.533214
H -0.000009 1.425307 -2.534731
C  2.478117 1.403392 -3.932123
H  2.490592 1.430737 -2.841870
H  2.967028 0.489946 -4.279299
H  3.001428 2.278875 -4.323595
H -2.857359 2.491761 -4.009201
H -3.082679 0.799606 -4.542306
H -2.518128 1.142706 -2.889294
--
# monomer B
0 1     # Charge and multiplicity
C   -3.66844126402057      7.80375217008252      0.00190004133558
C   -4.84759871934653      7.13124183134024     -0.00046653359696
C   -4.89495929917518      5.69633040353158     -0.00103944469517
C   -3.65374067877320      4.98073034095895      0.00662099703436
C   -2.40942512149445      7.11398103667468      0.00209438359570
C   -2.42547734410473      5.68112195090346     -0.00491050527438
C   -1.19474401643570      7.78614419430947      0.00356656413763
C   0.03795902893699      7.09942164575698      0.00139585983271
C   0.03033258741920      5.66948955970466     -0.00408752508301
C   -1.20098450790502      4.96927034791531      0.00488220885047
C   1.27795782581485      7.77285944319479      0.00277170839332
C   2.48535808472416      7.08769688523756      0.00049722048857
C   2.48612868491717      5.65477081024076     -0.00644052849921
C   1.25408291964399      4.95607811366431      0.00518741308898
C   3.75171459140595      7.76391215098033      0.00062407186893
C   4.92356605618520      7.07878077698995     -0.00143240883900
C   4.95560727132542      5.64344746336949     -0.00159282164606
C   3.70680153420475      4.94121020833308      0.00349873852374
H   -3.65852113775815      8.89082741913536      0.00358502958574
H   -1.18921332975660      8.87412108735996      0.00753844057883
H   1.28429423888630      8.86083343548850      0.00693053253426
H   3.75354208679975      8.85103527897216      0.00214659618464
H   5.86995870320703      7.61379483465560     -0.00235777588134
H   -5.78823170750226      7.67630221293400     -0.00202638095293
C   -6.09197395869619      4.99326001364347     -0.00291168518608
C   -6.12866148031747      3.58258016879823     -0.00171050815740
C   -3.66457974004527      3.56418217974434     -0.00463560277484
C   -4.89429820469869      2.86108077590057      0.00453338221034
C   -2.43733499489796      2.84761165708481      0.00719617576166
C   -1.20922785759670      3.54788693497833     -0.00648285103018
C   1.24714157216223      3.53468075142962     -0.00729145743546
C   0.01517603956900      2.83311183930540      0.00439272578912
C   2.46764517244071      2.82128997725533      0.00449278391269
C   3.70254947457969      3.52466015442405     -0.00899517692985
C   6.14498038638375      4.92757236613191     -0.00282626685777
C   6.16658835886151      3.51658447594213     -0.00065971342101
C   4.92460995845939      2.80840792535402      0.00587903281610
H   7.08990550964105      5.46688776622306     -0.00658814770723
H   -7.03104175110130      5.54268795285765     -0.00714490013730
C   -7.33969804112295      2.85841153457957     -0.00333767559888
C   -7.36488195805880      1.47032337158330     -0.00157213747140
C   -4.90350460894690      1.44442681216000     -0.00628840166334
C   -6.13225715261081      0.73993935705394      0.00600164231964
C   -3.67687480051673      0.72669714267312      0.00433931473643
C   -2.44565658606518      1.42964113326212     -0.00597039546461
C   -1.22360068130162      0.71532450163492      0.00545886906656
C   0.00763786931376      1.41738314923765      0.00392452278437
C   1.23121980774686      0.70211669058719     -0.01490206287210
C   2.46082110053113      1.40329203612573      0.00460244601878
C   3.68443025419614      0.68719842821222      0.00377365974158
C   4.91870890153864      1.39173456118907     -0.00862816189375
C   7.36980207796101      2.77948220318441     -0.00242013321349
C   7.38016266612146      1.39121750785509     -0.00087345036788
C   6.13979953912259      0.67411862320065      0.00545489144369
H   -8.27919079934664      3.40711804112415     -0.00763522772059
H   8.31511347147953      3.31811809662368     -0.00663070901292
C   -8.59175593758115      0.72483255304480     -0.00123170985383
C   -8.59902460370342     -0.63263980622873      0.00089141472904
C   -6.13981313911873     -0.67413663715361     -0.00609792660607
C   -7.38018411213749     -1.39126618958160      0.00131813493501
C   -4.91868448025621     -1.39175501803000      0.00624257154343
C   -3.68443829568458     -0.68723731573599     -0.00478966852105
C   -2.46081704024768     -1.40334517882457      0.00575341766833
C   -1.23116201232071     -0.70217386488055     -0.00636696112346
C   -0.00756962538737     -1.41741884941102      0.00108956317991
C   1.22364771588843     -0.71527537726392      0.01109518512883
C   2.44567064933149     -1.42964328900682     -0.00065482763106
C   3.67686670284649     -0.72670743155550     -0.00479541202602
C   6.13224884641929     -0.73997883984993     -0.00632338623858
C   4.90351914550401     -1.44445752054090      0.00751768830159
C   8.59901484869081      0.63260386666793     -0.00101133422380
C   8.59174548810050     -0.72485086719319      0.00072504603735
C   7.36486276438985     -1.47033266560598      0.00049486934466
H   -9.52830597181814      1.27684744919284     -0.00270163681798
H   9.54141097460619      1.17457248844457     -0.00206336648518
C   -7.36983790976868     -2.77954514593389      0.00312634335708
C   -4.92459910905015     -2.80843725734101     -0.00460528907921
C   -6.16662249566744     -3.51665219282533      0.00169655107992
C   -3.70251035970491     -3.52468154912026      0.00571878010666
C   -2.46764698511392     -2.82132596280400     -0.00632585824990
C   -0.01513347410770     -2.83314164539971     -0.00604426974092
C   -1.24712184122656     -3.53473217556300      0.00551968366725
C   1.20924506964357     -3.54791467864352      0.00805871345849
C   2.43733602215464     -2.84764173817541     -0.00608104485234
C   4.89430234377080     -2.86112296828604     -0.00526030478103
C   3.66461525504104     -3.56421984553201      0.00761911515957
C   6.12863901474565     -3.58258405771778      0.00096495711699
C   7.33967266469532     -2.85841330737039      0.00248018319869
H   -9.54144911125902     -1.17456346666430      0.00226083090216
H   9.52826186807155     -1.27691907390448      0.00197485379837
H   -8.31516504384864     -3.31814985321231      0.00729857188773
H   8.27915514249207     -3.40714078989363      0.00681973918158
C   -6.14499418870218     -4.92764727278338      0.00302254913999
C   -3.70678334799751     -4.94126171411716     -0.00679841894792
C   -4.95559005800169     -5.64349397349412      0.00116871569699
C   -2.48612132622665     -5.65478557440947      0.00614125209662
C   -1.25405833548005     -4.95612205000132     -0.00503435388927
C   1.20101257386816     -4.96928038819302     -0.00385322963129
C   -0.03033667441341     -5.66952030313900      0.00398997003238
C   3.65375010132847     -4.98074377541453     -0.00309522988330
C   2.42549269587528     -5.68117463552727      0.00628170066869
C   6.09196561781097     -4.99325796338655      0.00325918379042
C   4.89497644461045     -5.69634842095790      0.00202298796027
H   -7.08989238804069     -5.46699984223871      0.00742531082125
H   7.03105520920009     -5.54265853633254      0.00683896355417
C   -4.92354532219813     -7.07882109967734      0.00061394679214
C   -2.48534208823777     -7.08772807792913     -0.00189594564379
C   -3.75168589177895     -7.76394715763627     -0.00170126671874
C   -0.03794895698805     -7.09946487446944     -0.00168022049625
C   -1.27795610040136     -7.77290438466689     -0.00366491325785
C   2.40944432072629     -7.11402201200282     -0.00081701968533
C   1.19474993715296     -7.78618536556242     -0.00296931056689
C   4.84762105249800     -7.13126211057943      0.00168979497423
C   3.66847160587561     -7.80378799294376     -0.00065863938960
H   -5.86994035041618     -7.61383059804164      0.00215798365757
H   5.78824962538815     -7.67633218931421      0.00281691445618
H   -3.75352693944918     -8.85107156923607     -0.00353718114765
H   -1.28430440589466     -8.86087539249706     -0.00809229711623
H   1.18922157469537     -8.87416062058945     -0.00706194725726
H   3.65854661482387     -8.89086063405326     -0.00231318081200

    units angstrom      # Angstroms are the default
    no_reorient         # Geometry fixed, default
    symmetry c1         # C1 symmetry, default
}

set {
    scf_type DF         # Density fitting, faster than exact integrals
    freeze_core True    # Freeze core electrons
    basis jun-cc-pVDZ   # Jun-cc-pVDZ basis set, recommended for sSAPT0 in https://doi.org/10.1063/1.4867135
}

energy('ssapt0')        # Compute sSAPT0 energy, includes also SAPT0
--------------------------------------------------------------------------

  //              Dimer HF             //
    Molecular point group: c1
  Charge       = 1
  Multiplicity = 1
  Basis Set: JUN-CC-PVDZ
    Blend: JUN-CC-PVDZ
  Basis Set: (JUN-CC-PVDZ AUX)
    Blend: JUN-CC-PVDZ-JKFIT
  @DF-RHF Final Energy: -3953.66098022449023
    Total Energy =                      -3953.6609802244893217
 Dipole X            :         -0.0048129            0.0004804           -0.0043325
 Dipole Y            :         -7.2727275            8.7122315            1.4395041
 Dipole Z            :         19.7848322          -25.4432294           -5.6583973
 Magnitude           :                                                    5.8386343
  //            Monomer A HF           //
    Molecular point group: c1
  Multiplicity = 1
  Basis Set: JUN-CC-PVDZ
    Blend: JUN-CC-PVDZ
  Basis Set: (JUN-CC-PVDZ AUX)
    Blend: JUN-CC-PVDZ-JKFIT
  @DF-RHF Final Energy:  -303.29820160530812
    Total Energy =                       -303.2982016053081225
  //            Monomer B HF           //
    Molecular point group: c1

    Geometry (in Angstrom), charge = 0, multiplicity = 1:

       Center              X                  Y                   Z               Mass
    ------------   -----------------  -----------------  -----------------  -----------------
      Gh(C)           0.680062820275     1.308604348936    -5.372844537656    12.000000000000
      Gh(C)          -0.680508179725     1.310632348936    -5.372460537656    12.000000000000
      Gh(N)          -1.085639179725     1.311630348936    -4.054136537656    14.003074004430
      Gh(C)           0.000103820275     1.314906348936    -3.272735537656    12.000000000000
      Gh(C)          -2.477369179725     1.361036348936    -3.586157537656    12.000000000000
      Gh(N)           1.085217820275     1.311630348936    -4.054136537656    14.003074004430
      Gh(H)           1.385141820275     1.300776348936    -6.190283537656     1.007825032230
      Gh(H)          -1.385306179725     1.310442348936    -6.190129537656     1.007825032230
      Gh(H)          -0.000013179725     1.316653348936    -2.191646537656     1.007825032230
      Gh(C)           2.478112820275     1.294738348936    -3.589038537656    12.000000000000
      Gh(H)           2.490587820275     1.322083348936    -2.498785537656     1.007825032230
      Gh(H)           2.967023820275     0.381292348936    -3.936214537656     1.007825032230
      Gh(H)           3.001423820275     2.170221348936    -3.980510537656     1.007825032230
      Gh(H)          -2.857363179725     2.383107348936    -3.666116537656     1.007825032230
      Gh(H)          -3.082683179725     0.690952348936    -4.199221537656     1.007825032230
      Gh(H)          -2.518132179725     1.034052348936    -2.546209537656     1.007825032230
         C           -3.668445443746     7.695098519018     0.344984503680    12.000000000000
         C           -4.847602899072     7.022588180276     0.342617928747    12.000000000000
         C           -4.894963478901     5.587676752467     0.342045017649    12.000000000000
         C           -3.653744858499     4.872076689895     0.349705459378    12.000000000000
         C           -2.409429301220     7.005327385610     0.345178845940    12.000000000000
         C           -2.425481523830     5.572468299839     0.338173957070    12.000000000000
         C           -1.194748196161     7.677490543245     0.346651026482    12.000000000000
         C            0.037954849212     6.990767994693     0.344480322177    12.000000000000
         C            0.030328407694     5.560835908640     0.338996937261    12.000000000000
         C           -1.200988687630     4.860616696851     0.347966671195    12.000000000000
         C            1.277953646089     7.664205792130     0.345856170737    12.000000000000
         C            2.485353904999     6.979043234173     0.343581682833    12.000000000000
         C            2.486124505192     5.546117159176     0.336643933845    12.000000000000
         C            1.254078739919     4.847424462600     0.348271875433    12.000000000000
         C            3.751710411681     7.655258499916     0.343708534213    12.000000000000
         C            4.923561876460     6.970127125926     0.341652053505    12.000000000000
         C            4.955603091600     5.534793812305     0.341491640698    12.000000000000
         C            3.706797354479     4.832556557269     0.346583200868    12.000000000000
         H           -3.658525317484     8.782173768071     0.346669491930     1.007825032230
         H           -1.189217509482     8.765467436296     0.350622902923     1.007825032230
         H            1.284290059161     8.752179784424     0.350014994878     1.007825032230
         H            3.753537907074     8.742381627908     0.345231058529     1.007825032230
         H            5.869954523482     7.505141183591     0.340726686463     1.007825032230
         H           -5.788235887228     7.567648561870     0.341058081391     1.007825032230
         C           -6.091978138422     4.884606362579     0.340172777158    12.000000000000
         C           -6.128665660043     3.473926517734     0.341373954187    12.000000000000
         C           -3.664583919771     3.455528528680     0.338448859569    12.000000000000
         C           -4.894302384424     2.752427124836     0.347617844554    12.000000000000
         C           -2.437339174623     2.738958006020     0.350280638106    12.000000000000
         C           -1.209232037322     3.439233283914     0.336601611314    12.000000000000
         C            1.247137392437     3.426027100365     0.335793004909    12.000000000000
         C            0.015171859844     2.724458188241     0.347477188133    12.000000000000
         C            2.467640992715     2.712636326191     0.347577246257    12.000000000000
         C            3.702545294854     3.416006503360     0.334089285414    12.000000000000
         C            6.144976206658     4.818918715067     0.340258195486    12.000000000000
         C            6.166584179136     3.407930824878     0.342424748923    12.000000000000
         C            4.924605778734     2.699754274290     0.348963495160    12.000000000000
         H            7.089901329916     5.358234115159     0.336496314637     1.007825032230
         H           -7.031045930827     5.434034301793     0.335939562207     1.007825032230
         C           -7.339702220848     2.749757883515     0.339746786745    12.000000000000
         C           -7.364886137784     1.361669720519     0.341512324873    12.000000000000
         C           -4.903508788672     1.335773161096     0.336796060681    12.000000000000
         C           -6.132261332336     0.631285705989     0.349086104664    12.000000000000
         C           -3.676878980242     0.618043491609     0.347423777081    12.000000000000
         C           -2.445660765791     1.320987482198     0.337114066879    12.000000000000
         C           -1.223604861027     0.606670850570     0.348543331411    12.000000000000
         C            0.007633689588     1.308729498173     0.347008985128    12.000000000000
         C            1.231215628021     0.593463039523     0.328182399472    12.000000000000
         C            2.460816920806     1.294638385061     0.347686908363    12.000000000000
         C            3.684426074471     0.578544777148     0.346858122086    12.000000000000
         C            4.918704721813     1.283080910125     0.334456300450    12.000000000000
         C            7.369797898236     2.670828552120     0.340664329131    12.000000000000
         C            7.380158486396     1.282563856791     0.342211011976    12.000000000000
         C            6.139795359397     0.565464972136     0.348539353788    12.000000000000
         H           -8.279194979072     3.298464390060     0.335449234624     1.007825032230
         H            8.315109291754     3.209464445559     0.336453753331     1.007825032230
         C           -8.591760117307     0.616178901980     0.341852752490    12.000000000000
         C           -8.599028783429    -0.741293457293     0.343975877073    12.000000000000
         C           -6.139817318844    -0.782790288218     0.336986535738    12.000000000000
         C           -7.380188291863    -1.499919840646     0.344402597279    12.000000000000
         C           -4.918688659982    -1.500408669094     0.349327033888    12.000000000000
         C           -3.684442475410    -0.795890966800     0.338294793823    12.000000000000
         C           -2.460821219973    -1.511998829889     0.348837880012    12.000000000000
         C           -1.231166192046    -0.810827515945     0.336717501221    12.000000000000
         C           -0.007573805113    -1.526072500475     0.344174025524    12.000000000000
         C            1.223643536163    -0.823929028328     0.354179647473    12.000000000000
         C            2.445666469606    -1.538296940071     0.342429634713    12.000000000000
         C            3.676862523121    -0.835361082620     0.338289050318    12.000000000000
         C            6.132244666694    -0.848632490914     0.336761076106    12.000000000000
         C            4.903514965779    -1.553111171605     0.350602150646    12.000000000000
         C            8.599010668965     0.523950215603     0.342073128120    12.000000000000
         C            8.591741308375    -0.833504518258     0.343809508381    12.000000000000
         C            7.364858584664    -1.578986316670     0.343579331689    12.000000000000
         H           -9.528310151544     1.168193798128     0.340382825526     1.007825032230
         H            9.541406794881     1.065918837380     0.341021095859     1.007825032230
         C           -7.369842089494    -2.888198796998     0.346210805701    12.000000000000
         C           -4.924603288776    -2.917090908405     0.338479173265    12.000000000000
         C           -6.166626675393    -3.625305843890     0.344781013424    12.000000000000
         C           -3.702514539430    -3.633335200185     0.348803242451    12.000000000000
         C           -2.467651164839    -2.929979613868     0.336758604094    12.000000000000
         C           -0.015137653833    -2.941795296464     0.337040192603    12.000000000000
         C           -1.247126020952    -3.643385826627     0.348604146011    12.000000000000
         C            1.209240889918    -3.656568329708     0.351143175803    12.000000000000
         C            2.437331842429    -2.956295389240     0.337003417492    12.000000000000
         C            4.894298164045    -2.969776619350     0.337824157563    12.000000000000
         C            3.664611075316    -3.672873496596     0.350703577504    12.000000000000
         C            6.128634835020    -3.691237708782     0.344049419461    12.000000000000
         C            7.339668484970    -2.967066958435     0.345564645543    12.000000000000
         H           -9.541453290984    -1.283217117729     0.345345293246     1.007825032230
         H            9.528257688346    -1.385572724969     0.345059316142     1.007825032230
         H           -8.315169223574    -3.426803504277     0.350383034232     1.007825032230
         H            8.279150962767    -3.515794440958     0.349904201526     1.007825032230
         C           -6.144998368428    -5.036300923848     0.346107011484    12.000000000000
         C           -3.706787527723    -5.049915365182     0.336286043396    12.000000000000
         C           -4.955594237727    -5.752147624559     0.344253178041    12.000000000000
         C           -2.486125505952    -5.763439225474     0.349225714441    12.000000000000
         C           -1.254062515205    -5.064775701066     0.338050108455    12.000000000000
         C            1.201008394143    -5.077934039257     0.339231232713    12.000000000000
         C           -0.030340854139    -5.778173954203     0.347074432376    12.000000000000
         C            3.653745921603    -5.089397426479     0.339989232461    12.000000000000
         C            2.425488516150    -5.789828286592     0.349366163013    12.000000000000
         C            6.091961438086    -5.101911614451     0.346343646135    12.000000000000
         C            4.894972264885    -5.805002072022     0.345107450304    12.000000000000
         H           -7.089896567766    -5.575653493303     0.350509773165     1.007825032230
         H            7.031051029475    -5.651312187397     0.349923425898     1.007825032230
         C           -4.923549501924    -7.187474750742     0.343698409136    12.000000000000
         C           -2.485346267963    -7.196381728994     0.341188516700    12.000000000000
         C           -3.751690071504    -7.872600808701     0.341383195625    12.000000000000
         C           -0.037953136713    -7.208118525534     0.341404241848    12.000000000000
         C           -1.277960280127    -7.881558035731     0.339419549086    12.000000000000
         C            2.409440141001    -7.222675663067     0.342267442659    12.000000000000
         C            1.194745757428    -7.894839016627     0.340115151777    12.000000000000
         C            4.847616872773    -7.239915761644     0.344774257318    12.000000000000
         C            3.668467426150    -7.912441644008     0.342425822954    12.000000000000
         H           -5.869944530142    -7.722484249106     0.345242446002     1.007825032230
         H            5.788245445663    -7.784985840379     0.345901376800     1.007825032230
         H           -3.753531119175    -8.959725220301     0.339547281196     1.007825032230
         H           -1.284308585620    -8.969529043562     0.334992165228     1.007825032230
         H            1.189217394970    -8.982814271654     0.336022515087     1.007825032230
         H            3.658542435098    -8.999514285118     0.340771281532     1.007825032230

  Charge       = 0
  Multiplicity = 1
  Basis Set: JUN-CC-PVDZ
    Blend: JUN-CC-PVDZ
  Basis Set: (JUN-CC-PVDZ AUX)
    Blend: JUN-CC-PVDZ-JKFIT

    Orbital Energies [Eh]
    ---------------------

    Doubly Occupied:

       1A    -11.264014     2A    -11.263684     3A    -11.263646
       4A    -11.263328     5A    -11.263299     6A    -11.263259
       7A    -11.263099     8A    -11.263091     9A    -11.263069
      10A    -11.262901    11A    -11.262754    12A    -11.262738
      13A    -11.262266    14A    -11.262259    15A    -11.262196
      16A    -11.262189    17A    -11.262118    18A    -11.262094
      19A    -11.262056    20A    -11.262013    21A    -11.261997
      22A    -11.261875    23A    -11.261859    24A    -11.261725
      25A    -11.261715    26A    -11.261693    27A    -11.261688
      28A    -11.261645    29A    -11.261637    30A    -11.261558
      31A    -11.261536    32A    -11.261532    33A    -11.261509
      34A    -11.261502    35A    -11.261486    36A    -11.261470
      37A    -11.261305    38A    -11.261297    39A    -11.261282
      40A    -11.261274    41A    -11.261265    42A    -11.261262
      43A    -11.261250    44A    -11.261241    45A    -11.261235
      46A    -11.261219    47A    -11.261207    48A    -11.261199
      49A    -11.261053    50A    -11.261027    51A    -11.261022
      52A    -11.260950    53A    -11.260948    54A    -11.260867
      55A    -11.259894    56A    -11.259869    57A    -11.259859
      58A    -11.259840    59A    -11.259829    60A    -11.259808
      61A    -11.259265    62A    -11.259236    63A    -11.259234
      64A    -11.259182    65A    -11.259179    66A    -11.259149
      67A    -11.258894    68A    -11.258869    69A    -11.258857
      70A    -11.258840    71A    -11.258830    72A    -11.258812
      73A    -11.254505    74A    -11.254501    75A    -11.254486
      76A    -11.254482    77A    -11.254475    78A    -11.254474
      79A    -11.253637    80A    -11.253619    81A    -11.253618
      82A    -11.253602    83A    -11.253598    84A    -11.253589
      85A    -11.253553    86A    -11.253532    87A    -11.253531
      88A    -11.253518    89A    -11.253514    90A    -11.253504
      91A    -11.253033    92A    -11.253028    93A    -11.253014
      94A    -11.253010    95A    -11.253003    96A    -11.253001
      97A     -1.253876    98A     -1.238940    99A     -1.238915
     100A     -1.220401   101A     -1.220392   102A     -1.215372
     103A     -1.200981   104A     -1.195542   105A     -1.188087
     106A     -1.188065   107A     -1.173705   108A     -1.173704
     109A     -1.155563   110A     -1.155558   111A     -1.152648
     112A     -1.144666   113A     -1.144663   114A     -1.128502
     115A     -1.114648   116A     -1.113106   117A     -1.112425
     118A     -1.112394   119A     -1.111563   120A     -1.088366
     121A     -1.088350   122A     -1.076907   123A     -1.076905
     124A     -1.067552   125A     -1.067517   126A     -1.064901
     127A     -1.046737   128A     -1.046728   129A     -1.040417
     130A     -1.038682   131A     -1.038677   132A     -1.025173
     133A     -1.021316   134A     -1.021252   135A     -1.007117
     136A     -1.006737   137A     -1.003734   138A     -1.000425
     139A     -1.000371   140A     -0.991024   141A     -0.970922
     142A     -0.970870   143A     -0.955828   144A     -0.955769
     145A     -0.905511   146A     -0.905500   147A     -0.905474
     148A     -0.905454   149A     -0.904250   150A     -0.892285
     151A     -0.892227   152A     -0.890286   153A     -0.890235
     154A     -0.889379   155A     -0.872161   156A     -0.869009
     157A     -0.851476   158A     -0.847786   159A     -0.847774
     160A     -0.845523   161A     -0.842942   162A     -0.834496
     163A     -0.834486   164A     -0.828065   165A     -0.828057
     166A     -0.784488   167A     -0.784479   168A     -0.783591
     169A     -0.783577   170A     -0.782220   171A     -0.782197
     172A     -0.781955   173A     -0.766916   174A     -0.760715
     175A     -0.750505   176A     -0.733428   177A     -0.727009
     178A     -0.726976   179A     -0.725011   180A     -0.724473
     181A     -0.724443   182A     -0.718419   183A     -0.713697
     184A     -0.713690   185A     -0.699516   186A     -0.699494
     187A     -0.686050   188A     -0.685892   189A     -0.685884
     190A     -0.682101   191A     -0.682094   192A     -0.678714
     193A     -0.653564   194A     -0.650807   195A     -0.650774
     196A     -0.649733   197A     -0.649727   198A     -0.649500
     199A     -0.640863   200A     -0.640819   201A     -0.640016
     202A     -0.639095   203A     -0.635954   204A     -0.635921
     205A     -0.629068   206A     -0.617739   207A     -0.615242
     208A     -0.615217   209A     -0.608730   210A     -0.608724
     211A     -0.599153   212A     -0.599105   213A     -0.598673
     214A     -0.598520   215A     -0.598509   216A     -0.597964
     217A     -0.595001   218A     -0.594987   219A     -0.594654
     220A     -0.594147   221A     -0.591883   222A     -0.591881
     223A     -0.587310   224A     -0.577742   225A     -0.577725
     226A     -0.575682   227A     -0.575673   228A     -0.573308
     229A     -0.569546   230A     -0.568068   231A     -0.568042
     232A     -0.566680   233A     -0.566674   234A     -0.560857
     235A     -0.558651   236A     -0.558612   237A     -0.558368
     238A     -0.554295   239A     -0.550541   240A     -0.547418
     241A     -0.544249   242A     -0.534972   243A     -0.534960
     244A     -0.533468   245A     -0.533452   246A     -0.528011
     247A     -0.527994   248A     -0.527711   249A     -0.517094
     250A     -0.517065   251A     -0.515321   252A     -0.515315
     253A     -0.509573   254A     -0.509561   255A     -0.497950
     256A     -0.496381   257A     -0.496341   258A     -0.493764
     259A     -0.493737   260A     -0.489396   261A     -0.481382
     262A     -0.477376   263A     -0.477375   264A     -0.473921
     265A     -0.469352   266A     -0.466442   267A     -0.466441
     268A     -0.458768   269A     -0.446593   270A     -0.446540
     271A     -0.440989   272A     -0.440720   273A     -0.440699
     274A     -0.434642   275A     -0.433859   276A     -0.407333
     277A     -0.407304   278A     -0.386359   279A     -0.386313
     280A     -0.385682   281A     -0.385680   282A     -0.383695
     283A     -0.354271   284A     -0.354254   285A     -0.350608
     286A     -0.338054   287A     -0.335531   288A     -0.335461
     289A     -0.332658   290A     -0.332658   291A     -0.307016
     292A     -0.301895   293A     -0.301830   294A     -0.300788
     295A     -0.286112   296A     -0.256422   297A     -0.253428
     298A     -0.253383   299A     -0.204207   300A     -0.204112

  @DF-RHF Final Energy: -3650.34110860593682

   => Energetics <=

    Nuclear Repulsion Energy =          15611.4211649754306563
    One-Electron Energy =              -36072.1799480839690659
    Two-Electron Energy =               16810.4176745026015851
    Total Energy =                      -3650.3411086059386434
 Dipole X            :         -0.0008722            0.0002112           -0.0006610
 Dipole Y            :        123.2194732         -123.2131634            0.0063098
 Dipole Z            :       -388.9980756          389.0047949            0.0067194
 Magnitude           :                                                    0.0092412

    SAPT Results
  --------------------------------------------------------------------------------------------------------
    Electrostatics                -14.37100405 [mEh]      -9.01794119 [kcal/mol]     -37.73106594 [kJ/mol]
      Elst10,r                    -14.37100405 [mEh]      -9.01794119 [kcal/mol]     -37.73106594 [kJ/mol]

    Exchange                        8.73262953 [mEh]       5.47980776 [kcal/mol]      22.92751566 [kJ/mol]
      Exch10                        8.73262953 [mEh]       5.47980776 [kcal/mol]      22.92751566 [kJ/mol]
      Exch10(S^2)                   8.70909034 [mEh]       5.46503670 [kcal/mol]      22.86571355 [kJ/mol]

    Induction                     -16.03163872 [mEh]     -10.06000518 [kcal/mol]     -42.09106166 [kJ/mol]
      Ind20,r                     -15.94496923 [mEh]     -10.00561925 [kcal/mol]     -41.86351094 [kJ/mol]
      Exch-Ind20,r                  2.18555529 [mEh]       1.37145665 [kcal/mol]       5.73817462 [kJ/mol]
      delta HF,r (2)               -2.27222478 [mEh]      -1.42584258 [kcal/mol]      -5.96572534 [kJ/mol]

    Dispersion                    -17.78030894 [mEh]     -11.15731230 [kcal/mol]     -46.68219468 [kJ/mol]
      Disp20                      -18.54265558 [mEh]     -11.63569205 [kcal/mol]     -48.68373552 [kJ/mol]
      Exch-Disp20                   0.76234664 [mEh]       0.47837974 [kcal/mol]       2.00154084 [kJ/mol]
      Disp20 (SS)                  -9.27132779 [mEh]      -5.81784602 [kcal/mol]     -24.34186776 [kJ/mol]
      Disp20 (OS)                  -9.27132779 [mEh]      -5.81784602 [kcal/mol]     -24.34186776 [kJ/mol]
      Exch-Disp20 (SS)              0.47454146 [mEh]       0.29777926 [kcal/mol]       1.24590843 [kJ/mol]
      Exch-Disp20 (OS)              0.28780519 [mEh]       0.18060048 [kcal/mol]       0.75563241 [kJ/mol]

  Total HF                        -21.67001325 [mEh]     -13.59813861 [kcal/mol]     -56.89461194 [kJ/mol]
  Total SAPT0                     -39.45032218 [mEh]     -24.75545091 [kcal/mol]    -103.57680662 [kJ/mol]

  Special recipe for scaled SAPT0 (see Manual):
    Electrostatics sSAPT0         -14.37100405 [mEh]      -9.01794119 [kcal/mol]     -37.73106594 [kJ/mol]
    Exchange sSAPT0                 8.73262953 [mEh]       5.47980776 [kcal/mol]      22.92751566 [kJ/mol]
    Induction sSAPT0              -16.01386923 [mEh]     -10.04885465 [kcal/mol]     -42.04440787 [kJ/mol]
    Dispersion sSAPT0             -17.77411074 [mEh]     -11.15342287 [kcal/mol]     -46.66592131 [kJ/mol]
  Total sSAPT0                    -39.42635449 [mEh]     -24.74041096 [kcal/mol]    -103.51387946 [kJ/mol]
  --------------------------------------------------------------------------------------------------------

*** Psi4 exiting successfully. Buy a developer a beer!
