                               Psi4 1.9 release

  ==> Input File <==

--------------------------------------------------------------------------
memory 80 GB # how much memory is available ! Depends on the nodes/cores !

molecule dimer {
# monomer A
-1 1    # Charge and multiplicity
B -0.000046  0.000337 3.299994
F -1.153597  0.000048 4.115641
F  1.153661 -0.000581 4.115641
F -0.000019 -1.153637 2.484360
F -0.000019  1.153978 2.484360
--
# monomer B
0 1     # Charge and multiplicity
C   -3.66844126402057      7.80375217008252      0.00190004133558
C   -4.84759871934653      7.13124183134024     -0.00046653359696
C   -4.89495929917518      5.69633040353158     -0.00103944469517
C   -3.65374067877320      4.98073034095895      0.00662099703436
C   -2.40942512149445      7.11398103667468      0.00209438359570
C   -2.42547734410473      5.68112195090346     -0.00491050527438
C   -1.19474401643570      7.78614419430947      0.00356656413763
C   0.03795902893699      7.09942164575698      0.00139585983271
C   0.03033258741920      5.66948955970466     -0.00408752508301
C   -1.20098450790502      4.96927034791531      0.00488220885047
C   1.27795782581485      7.77285944319479      0.00277170839332
C   2.48535808472416      7.08769688523756      0.00049722048857
C   2.48612868491717      5.65477081024076     -0.00644052849921
C   1.25408291964399      4.95607811366431      0.00518741308898
C   3.75171459140595      7.76391215098033      0.00062407186893
C   4.92356605618520      7.07878077698995     -0.00143240883900
C   4.95560727132542      5.64344746336949     -0.00159282164606
C   3.70680153420475      4.94121020833308      0.00349873852374
H   -3.65852113775815      8.89082741913536      0.00358502958574
H   -1.18921332975660      8.87412108735996      0.00753844057883
H   1.28429423888630      8.86083343548850      0.00693053253426
H   3.75354208679975      8.85103527897216      0.00214659618464
H   5.86995870320703      7.61379483465560     -0.00235777588134
H   -5.78823170750226      7.67630221293400     -0.00202638095293
C   -6.09197395869619      4.99326001364347     -0.00291168518608
C   -6.12866148031747      3.58258016879823     -0.00171050815740
C   -3.66457974004527      3.56418217974434     -0.00463560277484
C   -4.89429820469869      2.86108077590057      0.00453338221034
C   -2.43733499489796      2.84761165708481      0.00719617576166
C   -1.20922785759670      3.54788693497833     -0.00648285103018
C   1.24714157216223      3.53468075142962     -0.00729145743546
C   0.01517603956900      2.83311183930540      0.00439272578912
C   2.46764517244071      2.82128997725533      0.00449278391269
C   3.70254947457969      3.52466015442405     -0.00899517692985
C   6.14498038638375      4.92757236613191     -0.00282626685777
C   6.16658835886151      3.51658447594213     -0.00065971342101
C   4.92460995845939      2.80840792535402      0.00587903281610
H   7.08990550964105      5.46688776622306     -0.00658814770723
H   -7.03104175110130      5.54268795285765     -0.00714490013730
C   -7.33969804112295      2.85841153457957     -0.00333767559888
C   -7.36488195805880      1.47032337158330     -0.00157213747140
C   -4.90350460894690      1.44442681216000     -0.00628840166334
C   -6.13225715261081      0.73993935705394      0.00600164231964
C   -3.67687480051673      0.72669714267312      0.00433931473643
C   -2.44565658606518      1.42964113326212     -0.00597039546461
C   -1.22360068130162      0.71532450163492      0.00545886906656
C   0.00763786931376      1.41738314923765      0.00392452278437
C   1.23121980774686      0.70211669058719     -0.01490206287210
C   2.46082110053113      1.40329203612573      0.00460244601878
C   3.68443025419614      0.68719842821222      0.00377365974158
C   4.91870890153864      1.39173456118907     -0.00862816189375
C   7.36980207796101      2.77948220318441     -0.00242013321349
C   7.38016266612146      1.39121750785509     -0.00087345036788
C   6.13979953912259      0.67411862320065      0.00545489144369
H   -8.27919079934664      3.40711804112415     -0.00763522772059
H   8.31511347147953      3.31811809662368     -0.00663070901292
C   -8.59175593758115      0.72483255304480     -0.00123170985383
C   -8.59902460370342     -0.63263980622873      0.00089141472904
C   -6.13981313911873     -0.67413663715361     -0.00609792660607
C   -7.38018411213749     -1.39126618958160      0.00131813493501
C   -4.91868448025621     -1.39175501803000      0.00624257154343
C   -3.68443829568458     -0.68723731573599     -0.00478966852105
C   -2.46081704024768     -1.40334517882457      0.00575341766833
C   -1.23116201232071     -0.70217386488055     -0.00636696112346
C   -0.00756962538737     -1.41741884941102      0.00108956317991
C   1.22364771588843     -0.71527537726392      0.01109518512883
C   2.44567064933149     -1.42964328900682     -0.00065482763106
C   3.67686670284649     -0.72670743155550     -0.00479541202602
C   6.13224884641929     -0.73997883984993     -0.00632338623858
C   4.90351914550401     -1.44445752054090      0.00751768830159
C   8.59901484869081      0.63260386666793     -0.00101133422380
C   8.59174548810050     -0.72485086719319      0.00072504603735
C   7.36486276438985     -1.47033266560598      0.00049486934466
H   -9.52830597181814      1.27684744919284     -0.00270163681798
H   9.54141097460619      1.17457248844457     -0.00206336648518
C   -7.36983790976868     -2.77954514593389      0.00312634335708
C   -4.92459910905015     -2.80843725734101     -0.00460528907921
C   -6.16662249566744     -3.51665219282533      0.00169655107992
C   -3.70251035970491     -3.52468154912026      0.00571878010666
C   -2.46764698511392     -2.82132596280400     -0.00632585824990
C   -0.01513347410770     -2.83314164539971     -0.00604426974092
C   -1.24712184122656     -3.53473217556300      0.00551968366725
C   1.20924506964357     -3.54791467864352      0.00805871345849
C   2.43733602215464     -2.84764173817541     -0.00608104485234
C   4.89430234377080     -2.86112296828604     -0.00526030478103
C   3.66461525504104     -3.56421984553201      0.00761911515957
C   6.12863901474565     -3.58258405771778      0.00096495711699
C   7.33967266469532     -2.85841330737039      0.00248018319869
H   -9.54144911125902     -1.17456346666430      0.00226083090216
H   9.52826186807155     -1.27691907390448      0.00197485379837
H   -8.31516504384864     -3.31814985321231      0.00729857188773
H   8.27915514249207     -3.40714078989363      0.00681973918158
C   -6.14499418870218     -4.92764727278338      0.00302254913999
C   -3.70678334799751     -4.94126171411716     -0.00679841894792
C   -4.95559005800169     -5.64349397349412      0.00116871569699
C   -2.48612132622665     -5.65478557440947      0.00614125209662
C   -1.25405833548005     -4.95612205000132     -0.00503435388927
C   1.20101257386816     -4.96928038819302     -0.00385322963129
C   -0.03033667441341     -5.66952030313900      0.00398997003238
C   3.65375010132847     -4.98074377541453     -0.00309522988330
C   2.42549269587528     -5.68117463552727      0.00628170066869
C   6.09196561781097     -4.99325796338655      0.00325918379042
C   4.89497644461045     -5.69634842095790      0.00202298796027
H   -7.08989238804069     -5.46699984223871      0.00742531082125
H   7.03105520920009     -5.54265853633254      0.00683896355417
C   -4.92354532219813     -7.07882109967734      0.00061394679214
C   -2.48534208823777     -7.08772807792913     -0.00189594564379
C   -3.75168589177895     -7.76394715763627     -0.00170126671874
C   -0.03794895698805     -7.09946487446944     -0.00168022049625
C   -1.27795610040136     -7.77290438466689     -0.00366491325785
C   2.40944432072629     -7.11402201200282     -0.00081701968533
C   1.19474993715296     -7.78618536556242     -0.00296931056689
C   4.84762105249800     -7.13126211057943      0.00168979497423
C   3.66847160587561     -7.80378799294376     -0.00065863938960
H   -5.86994035041618     -7.61383059804164      0.00215798365757
H   5.78824962538815     -7.67633218931421      0.00281691445618
H   -3.75352693944918     -8.85107156923607     -0.00353718114765
H   -1.28430440589466     -8.86087539249706     -0.00809229711623
H   1.18922157469537     -8.87416062058945     -0.00706194725726
H   3.65854661482387     -8.89086063405326     -0.00231318081200

    units angstrom      # Angstroms are the default
    no_reorient         # Geometry fixed, default
    symmetry c1         # C1 symmetry, default
}

set {
    scf_type DF         # Density fitting, faster than exact integrals
    freeze_core True    # Freeze core electrons
    basis jun-cc-pVDZ   # Jun-cc-pVDZ basis set, recommended for sSAPT0 in https://doi.org/10.1063/1.4867135
}

energy('ssapt0')        # Compute sSAPT0 energy, includes also SAPT0
--------------------------------------------------------------------------

  //              Dimer HF             //
    Molecular point group: c1
  Charge       = -1
  Multiplicity = 1
  Basis Set: JUN-CC-PVDZ
    Blend: JUN-CC-PVDZ
  Basis Set: (JUN-CC-PVDZ AUX)
    Blend: JUN-CC-PVDZ-JKFIT
  @DF-RHF Final Energy: -4073.09967993540658
    Total Energy =                      -4073.0996799354070390
 Dipole X            :          0.0016437           -0.0001188            0.0015249
 Dipole Y            :          0.0014569           -0.0002727            0.0011842
 Dipole Z            :         15.5087180          -19.6391552           -4.1304372
 Magnitude           :                                                    4.1304376
  //            Monomer A HF           //
    Molecular point group: c1
  Multiplicity = 1
  Basis Set: JUN-CC-PVDZ
    Blend: JUN-CC-PVDZ
  Basis Set: (JUN-CC-PVDZ AUX)
    Blend: JUN-CC-PVDZ-JKFIT
  @DF-RHF Final Energy:  -422.77453560431314
    Total Energy =                       -422.7745356043131437
  //            Monomer B HF           //
    Molecular point group: c1

    Geometry (in Angstrom), charge = 0, multiplicity = 1:

       Center              X                  Y                   Z               Mass
    ------------   -----------------  -----------------  -----------------  -----------------
      Gh(B)          -0.000050191042     0.000351518223     3.072701681333    11.009305360000
      Gh(F)          -1.153601191042     0.000062518223     3.888348681333    18.998403162730
      Gh(F)           1.153656808958    -0.000566481777     3.888348681333    18.998403162730
      Gh(F)          -0.000023191042    -1.153622481777     2.257067681333    18.998403162730
      Gh(F)          -0.000023191042     1.153992518223     2.257067681333    18.998403162730
         C           -3.668445455062     7.803766688305    -0.225392277331    12.000000000000
         C           -4.847602910388     7.131256349563    -0.227758852264    12.000000000000
         C           -4.894963490217     5.696344921754    -0.228331763362    12.000000000000
         C           -3.653744869815     4.980744859182    -0.220671321632    12.000000000000
         C           -2.409429312536     7.113995554897    -0.225197935071    12.000000000000
         C           -2.425481535146     5.681136469126    -0.232202823941    12.000000000000
         C           -1.194748207477     7.786158712532    -0.223725754529    12.000000000000
         C            0.037954837895     7.099436163980    -0.225896458834    12.000000000000
         C            0.030328396378     5.669504077927    -0.231379843750    12.000000000000
         C           -1.200988698947     4.969284866138    -0.222410109816    12.000000000000
         C            1.277953634773     7.772873961417    -0.224520610273    12.000000000000
         C            2.485353893683     7.087711403460    -0.226795098178    12.000000000000
         C            2.486124493876     5.654785328463    -0.233732847166    12.000000000000
         C            1.254078728602     4.956092631887    -0.222104905578    12.000000000000
         C            3.751710400364     7.763926669203    -0.226668246798    12.000000000000
         C            4.923561865144     7.078795295213    -0.228724727506    12.000000000000
         C            4.955603080284     5.643461981592    -0.228885140313    12.000000000000
         C            3.706797343163     4.941224726556    -0.223793580143    12.000000000000
         H           -3.658525328800     8.890841937358    -0.223707289081     1.007825032230
         H           -1.189217520798     8.874135605583    -0.219753878088     1.007825032230
         H            1.284290047845     8.860847953711    -0.220361786133     1.007825032230
         H            3.753537895758     8.851049797195    -0.225145722482     1.007825032230
         H            5.869954512165     7.613809352878    -0.229650094548     1.007825032230
         H           -5.788235898544     7.676316731157    -0.229318699620     1.007825032230
         C           -6.091978149738     4.993274531866    -0.230204003853    12.000000000000
         C           -6.128665671359     3.582594687021    -0.229002826824    12.000000000000
         C           -3.664583931087     3.564196697967    -0.231927921442    12.000000000000
         C           -4.894302395740     2.861095294123    -0.222758936456    12.000000000000
         C           -2.437339185940     2.847626175307    -0.220096142905    12.000000000000
         C           -1.209232048638     3.547901453201    -0.233775169697    12.000000000000
         C            1.247137381121     3.534695269652    -0.234583776102    12.000000000000
         C            0.015171848527     2.833126357528    -0.222899592878    12.000000000000
         C            2.467640981399     2.821304495478    -0.222799534754    12.000000000000
         C            3.702545283538     3.524674672647    -0.236287495597    12.000000000000
         C            6.144976195342     4.927586884354    -0.230118585525    12.000000000000
         C            6.166584167820     3.516598994165    -0.227952032088    12.000000000000
         C            4.924605767418     2.808422443577    -0.221413285851    12.000000000000
         H            7.089901318599     5.466902284446    -0.233880466374     1.007825032230
         H           -7.031045942143     5.542702471080    -0.234437218804     1.007825032230
         C           -7.339702232165     2.858426052802    -0.230629994266    12.000000000000
         C           -7.364886149100     1.470337889806    -0.228864456138    12.000000000000
         C           -4.903508799989     1.444441330383    -0.233580720330    12.000000000000
         C           -6.132261343652     0.739953875277    -0.221290676347    12.000000000000
         C           -3.676878991558     0.726711660896    -0.222953003930    12.000000000000
         C           -2.445660777107     1.429655651485    -0.233262714131    12.000000000000
         C           -1.223604872343     0.715339019858    -0.221833449600    12.000000000000
         C            0.007633678272     1.417397667460    -0.223367795882    12.000000000000
         C            1.231215616705     0.702131208810    -0.242194381539    12.000000000000
         C            2.460816909489     1.403306554348    -0.222689872648    12.000000000000
         C            3.684426063155     0.687212946435    -0.223518658925    12.000000000000
         C            4.918704710497     1.391749079412    -0.235920480561    12.000000000000
         C            7.369797886919     2.779496721407    -0.229712451880    12.000000000000
         C            7.380158475080     1.391232026078    -0.228165769035    12.000000000000
         C            6.139795348081     0.674133141423    -0.221837427223    12.000000000000
         H           -8.279194990388     3.407132559347    -0.234927546387     1.007825032230
         H            8.315109280438     3.318132614846    -0.233923027680     1.007825032230
         C           -8.591760128623     0.724847071267    -0.228524028521    12.000000000000
         C           -8.599028794745    -0.632625288006    -0.226400903938    12.000000000000
         C           -6.139817330160    -0.674122118931    -0.233390245273    12.000000000000
         C           -7.380188303179    -1.391251671359    -0.225974183732    12.000000000000
         C           -4.918688671298    -1.391740499807    -0.221049747123    12.000000000000
         C           -3.684442486726    -0.687222797513    -0.232081987188    12.000000000000
         C           -2.460821231289    -1.403330660602    -0.221538900998    12.000000000000
         C           -1.231166203362    -0.702159346658    -0.233659279790    12.000000000000
         C           -0.007573816429    -1.417404331188    -0.226202755487    12.000000000000
         C            1.223643524847    -0.715260859041    -0.216197133538    12.000000000000
         C            2.445666458290    -1.429628770784    -0.227947146298    12.000000000000
         C            3.676862511805    -0.726692913333    -0.232087730693    12.000000000000
         C            6.132244655378    -0.739964321627    -0.233615704905    12.000000000000
         C            4.903514954462    -1.444443002318    -0.219774630365    12.000000000000
         C            8.599010657649     0.632618384891    -0.228303652891    12.000000000000
         C            8.591741297059    -0.724836348971    -0.226567272629    12.000000000000
         C            7.364858573348    -1.470318147383    -0.226797449322    12.000000000000
         H           -9.528310162860     1.276861967415    -0.229993955485     1.007825032230
         H            9.541406783565     1.174587006667    -0.229355685152     1.007825032230
         C           -7.369842100810    -2.779530627711    -0.224165975310    12.000000000000
         C           -4.924603300092    -2.808422739118    -0.231897607746    12.000000000000
         C           -6.166626686709    -3.516637674603    -0.225595767587    12.000000000000
         C           -3.702514550747    -3.524667030898    -0.221573538560    12.000000000000
         C           -2.467651176156    -2.821311444581    -0.233618176917    12.000000000000
         C           -0.015137665149    -2.833127127177    -0.233336588408    12.000000000000
         C           -1.247126032268    -3.534717657340    -0.221772635000    12.000000000000
         C            1.209240878602    -3.547900160421    -0.219233605208    12.000000000000
         C            2.437331831113    -2.847627219953    -0.233373363519    12.000000000000
         C            4.894298152729    -2.861108450063    -0.232552623448    12.000000000000
         C            3.664611063999    -3.564205327309    -0.219673203507    12.000000000000
         C            6.128634823704    -3.582569539495    -0.226327361550    12.000000000000
         C            7.339668473654    -2.858398789148    -0.224812135468    12.000000000000
         H           -9.541453302301    -1.174548948442    -0.225031487765     1.007825032230
         H            9.528257677030    -1.276904555682    -0.225317464868     1.007825032230
         H           -8.315169234890    -3.318135334990    -0.219993746779     1.007825032230
         H            8.279150951450    -3.407126271671    -0.220472579485     1.007825032230
         C           -6.144998379744    -4.927632754561    -0.224269769527    12.000000000000
         C           -3.706787539039    -4.941247195895    -0.234090737615    12.000000000000
         C           -4.955594249043    -5.643479455272    -0.226123602970    12.000000000000
         C           -2.486125517268    -5.654771056187    -0.221151066570    12.000000000000
         C           -1.254062526522    -4.956107531779    -0.232326672556    12.000000000000
         C            1.201008382827    -4.969265869970    -0.231145548298    12.000000000000
         C           -0.030340865455    -5.669505784916    -0.223302348634    12.000000000000
         C            3.653745910287    -4.980729257192    -0.230387548550    12.000000000000
         C            2.425488504834    -5.681160117305    -0.221010617998    12.000000000000
         C            6.091961426769    -4.993243445164    -0.224033134876    12.000000000000
         C            4.894972253569    -5.696333902735    -0.225269330707    12.000000000000
         H           -7.089896579082    -5.466985324016    -0.219867007846     1.007825032230
         H            7.031051018158    -5.542644018110    -0.220453355113     1.007825032230
         C           -4.923549513240    -7.078806581455    -0.226678371875    12.000000000000
         C           -2.485346279279    -7.087713559707    -0.229188264311    12.000000000000
         C           -3.751690082821    -7.763932639414    -0.228993585386    12.000000000000
         C           -0.037953148030    -7.099450356247    -0.228972539163    12.000000000000
         C           -1.277960291443    -7.772889866444    -0.230957231925    12.000000000000
         C            2.409440129685    -7.114007493780    -0.228109338352    12.000000000000
         C            1.194745746111    -7.786170847340    -0.230261629234    12.000000000000
         C            4.847616861456    -7.131247592357    -0.225602523693    12.000000000000
         C            3.668467414834    -7.803773474721    -0.227950958056    12.000000000000
         H           -5.869944541458    -7.613816079819    -0.225134335009     1.007825032230
         H            5.788245434347    -7.676317671092    -0.224475404211     1.007825032230
         H           -3.753531130491    -8.851057051013    -0.230829499814     1.007825032230
         H           -1.284308596936    -8.860860874274    -0.235384615783     1.007825032230
         H            1.189217383654    -8.874146102367    -0.234354265924     1.007825032230
         H            3.658542423782    -8.890846115831    -0.229605499479     1.007825032230

  Charge       = 0
  Multiplicity = 1
  Basis Set: JUN-CC-PVDZ
    Blend: JUN-CC-PVDZ
  Basis Set: (JUN-CC-PVDZ AUX)
    Blend: JUN-CC-PVDZ-JKFIT

    Orbital Energies [Eh]
    ---------------------

    Doubly Occupied:

       1A    -11.264093     2A    -11.263767     3A    -11.263692
       4A    -11.263326     5A    -11.263294     6A    -11.263271
       7A    -11.263145     8A    -11.263120     9A    -11.263097
      10A    -11.262886    11A    -11.262762    12A    -11.262756
      13A    -11.262268    14A    -11.262265    15A    -11.262253
      16A    -11.262220    17A    -11.262125    18A    -11.262120
      19A    -11.262074    20A    -11.262039    21A    -11.262023
      22A    -11.261936    23A    -11.261903    24A    -11.261766
      25A    -11.261762    26A    -11.261742    27A    -11.261725
      28A    -11.261698    29A    -11.261679    30A    -11.261590
      31A    -11.261569    32A    -11.261566    33A    -11.261558
      34A    -11.261539    35A    -11.261533    36A    -11.261514
      37A    -11.261345    38A    -11.261338    39A    -11.261330
      40A    -11.261327    41A    -11.261318    42A    -11.261315
      43A    -11.261298    44A    -11.261280    45A    -11.261278
      46A    -11.261254    47A    -11.261249    48A    -11.261244
      49A    -11.261064    50A    -11.261034    51A    -11.261026
      52A    -11.260961    53A    -11.260941    54A    -11.260890
      55A    -11.259929    56A    -11.259915    57A    -11.259913
      58A    -11.259883    59A    -11.259881    60A    -11.259865
      61A    -11.259298    62A    -11.259273    63A    -11.259268
      64A    -11.259217    65A    -11.259213    66A    -11.259184
      67A    -11.258931    68A    -11.258913    69A    -11.258911
      70A    -11.258883    71A    -11.258880    72A    -11.258868
      73A    -11.254541    74A    -11.254540    75A    -11.254534
      76A    -11.254532    77A    -11.254530    78A    -11.254530
      79A    -11.253669    80A    -11.253666    81A    -11.253662
      82A    -11.253660    83A    -11.253658    84A    -11.253657
      85A    -11.253585    86A    -11.253581    87A    -11.253578
      88A    -11.253575    89A    -11.253573    90A    -11.253572
      91A    -11.253069    92A    -11.253067    93A    -11.253061
      94A    -11.253060    95A    -11.253059    96A    -11.253058
      97A     -1.253928    98A     -1.238999    99A     -1.238998
     100A     -1.220470   101A     -1.220468   102A     -1.215421
     103A     -1.201052   104A     -1.195615   105A     -1.188131
     106A     -1.188129   107A     -1.173776   108A     -1.173772
     109A     -1.155628   110A     -1.155625   111A     -1.152701
     112A     -1.144735   113A     -1.144730   114A     -1.128574
     115A     -1.114714   116A     -1.113173   117A     -1.112467
     118A     -1.112457   119A     -1.111631   120A     -1.088434
     121A     -1.088415   122A     -1.076972   123A     -1.076970
     124A     -1.067616   125A     -1.067586   126A     -1.064963
     127A     -1.046807   128A     -1.046800   129A     -1.040487
     130A     -1.038746   131A     -1.038745   132A     -1.025235
     133A     -1.021368   134A     -1.021320   135A     -1.007188
     136A     -1.006819   137A     -1.003801   138A     -1.000487
     139A     -1.000437   140A     -0.991086   141A     -0.970989
     142A     -0.970941   143A     -0.955891   144A     -0.955834
     145A     -0.905582   146A     -0.905561   147A     -0.905542
     148A     -0.905521   149A     -0.904319   150A     -0.892361
     151A     -0.892307   152A     -0.890358   153A     -0.890299
     154A     -0.889460   155A     -0.872226   156A     -0.869069
     157A     -0.851547   158A     -0.847865   159A     -0.847845
     160A     -0.845592   161A     -0.843022   162A     -0.834572
     163A     -0.834557   164A     -0.828124   165A     -0.828121
     166A     -0.784553   167A     -0.784543   168A     -0.783654
     169A     -0.783632   170A     -0.782289   171A     -0.782272
     172A     -0.782031   173A     -0.766999   174A     -0.760789
     175A     -0.750565   176A     -0.733493   177A     -0.727077
     178A     -0.727063   179A     -0.725086   180A     -0.724548
     181A     -0.724529   182A     -0.718476   183A     -0.713767
     184A     -0.713761   185A     -0.699579   186A     -0.699569
     187A     -0.686111   188A     -0.685965   189A     -0.685963
     190A     -0.682182   191A     -0.682170   192A     -0.678763
     193A     -0.653624   194A     -0.650871   195A     -0.650843
     196A     -0.649802   197A     -0.649790   198A     -0.649573
     199A     -0.640916   200A     -0.640893   201A     -0.640096
     202A     -0.639171   203A     -0.636015   204A     -0.635988
     205A     -0.629147   206A     -0.617710   207A     -0.615312
     208A     -0.615292   209A     -0.608806   210A     -0.608799
     211A     -0.599132   212A     -0.599076   213A     -0.598742
     214A     -0.598610   215A     -0.598585   216A     -0.598019
     217A     -0.595074   218A     -0.595061   219A     -0.594723
     220A     -0.594221   221A     -0.591952   222A     -0.591949
     223A     -0.587380   224A     -0.577805   225A     -0.577794
     226A     -0.575657   227A     -0.575654   228A     -0.573387
     229A     -0.569575   230A     -0.568125   231A     -0.568107
     232A     -0.566753   233A     -0.566741   234A     -0.560921
     235A     -0.558713   236A     -0.558693   237A     -0.558434
     238A     -0.554368   239A     -0.550551   240A     -0.547483
     241A     -0.544259   242A     -0.535033   243A     -0.534959
     244A     -0.533533   245A     -0.533513   246A     -0.528080
     247A     -0.528066   248A     -0.527780   249A     -0.517148
     250A     -0.517115   251A     -0.515350   252A     -0.515344
     253A     -0.509647   254A     -0.509631   255A     -0.498031
     256A     -0.496450   257A     -0.496420   258A     -0.493775
     259A     -0.493758   260A     -0.489431   261A     -0.481456
     262A     -0.477420   263A     -0.477412   264A     -0.473998
     265A     -0.469439   266A     -0.466524   267A     -0.466519
     268A     -0.458788   269A     -0.446670   270A     -0.446609
     271A     -0.441019   272A     -0.440760   273A     -0.440741
     274A     -0.434686   275A     -0.433908   276A     -0.407369
     277A     -0.407338   278A     -0.386391   279A     -0.386325
     280A     -0.385736   281A     -0.385728   282A     -0.383728
     283A     -0.354308   284A     -0.354305   285A     -0.350650
     286A     -0.338053   287A     -0.335566   288A     -0.335491
     289A     -0.332710   290A     -0.332708   291A     -0.307037
     292A     -0.301905   293A     -0.301844   294A     -0.300846
     295A     -0.286160   296A     -0.256487   297A     -0.253463
     298A     -0.253414   299A     -0.204252   300A     -0.204158

  @DF-RHF Final Energy: -3650.33999098491086

   => Energetics <=

    Nuclear Repulsion Energy =          15611.4211649754324753
    One-Electron Energy =              -36072.1461336132560973
    Two-Electron Energy =               16810.3849776529132214
    Total Energy =                      -3650.3399909849104006
 Dipole X            :          0.0002393            0.0001983            0.0004376
 Dipole Y            :          0.0013933           -0.0013163            0.0000770
 Dipole Z            :        257.7080927         -257.7087477           -0.0006550
 Magnitude           :                                                    0.0007915

    SAPT Results
  --------------------------------------------------------------------------------------------------------
    Electrostatics                 -8.78765364 [mEh]      -5.51433591 [kcal/mol]     -23.07198145 [kJ/mol]
      Elst10,r                     -8.78765364 [mEh]      -5.51433591 [kcal/mol]     -23.07198145 [kJ/mol]

    Exchange                       50.31775139 [mEh]      31.57486570 [kcal/mol]     132.10923808 [kJ/mol]
      Exch10                       50.31775139 [mEh]      31.57486570 [kcal/mol]     132.10923808 [kJ/mol]
      Exch10(S^2)                  49.90932209 [mEh]      31.31857244 [kcal/mol]     131.03690709 [kJ/mol]

    Induction                     -26.68344394 [mEh]     -16.74411386 [kcal/mol]     -70.05737240 [kJ/mol]
      Ind20,r                     -42.59372609 [mEh]     -26.72796664 [kcal/mol]    -111.82981244 [kJ/mol]
      Exch-Ind20,r                 20.12531188 [mEh]      12.62882387 [kcal/mol]      52.83899905 [kJ/mol]
      delta HF,r (2)               -4.21502972 [mEh]      -2.64497108 [kcal/mol]     -11.06655902 [kJ/mol]

    Dispersion                    -18.65423642 [mEh]     -11.70571008 [kcal/mol]     -48.97669098 [kJ/mol]
      Disp20                      -23.74872097 [mEh]     -14.90254740 [kcal/mol]     -62.35225832 [kJ/mol]
      Exch-Disp20                   5.09448455 [mEh]       3.19683732 [kcal/mol]      13.37556734 [kJ/mol]
      Disp20 (SS)                 -11.87436049 [mEh]      -7.45127370 [kcal/mol]     -31.17612916 [kJ/mol]
      Disp20 (OS)                 -11.87436049 [mEh]      -7.45127370 [kcal/mol]     -31.17612916 [kJ/mol]
      Exch-Disp20 (SS)              2.80351178 [mEh]       1.75923020 [kcal/mol]       7.36061917 [kJ/mol]
      Exch-Disp20 (OS)              2.29097277 [mEh]       1.43760711 [kcal/mol]       6.01494817 [kJ/mol]

  Total HF                         14.84665382 [mEh]       9.31641592 [kcal/mol]      38.97988423 [kJ/mol]
  Total SAPT0                      -3.80758260 [mEh]      -2.38929416 [kcal/mol]      -9.99680675 [kJ/mol]

  Special recipe for scaled SAPT0 (see Manual):
    Electrostatics sSAPT0          -8.78765364 [mEh]      -5.51433591 [kcal/mol]     -23.07198145 [kJ/mol]
    Exchange sSAPT0                50.31775139 [mEh]      31.57486570 [kcal/mol]     132.10923808 [kJ/mol]
    Induction sSAPT0              -26.18530755 [mEh]     -16.43152856 [kcal/mol]     -68.74951550 [kJ/mol]
    Dispersion sSAPT0             -18.52813909 [mEh]     -11.62658281 [kcal/mol]     -48.64562248 [kJ/mol]
  Total sSAPT0                     -3.18334888 [mEh]      -1.99758158 [kcal/mol]      -8.35788134 [kJ/mol]
  --------------------------------------------------------------------------------------------------------

*** Psi4 exiting successfully. Buy a developer a beer!
