                               Psi4 1.9 release

  ==> Input File <==

--------------------------------------------------------------------------
memory 48 GB # how much memory is available ! Depends on the nodes/cores !

molecule dimer {
# monomer A
+1 1    # Charge and multiplicity
C  0.680067 -0.008042 -5.315929
C -0.680504 -0.006014 -5.315545
N -1.085635 -0.005016 -3.997221
C  0.000108 -0.001740 -3.215820
C -2.477365  0.044390 -3.529242
N  1.085222 -0.005016 -3.997221
H  1.385146 -0.015870 -6.133368
H -1.385302 -0.006204 -6.133214
H -0.000009  0.000007 -2.134731
C  2.478117 -0.021908 -3.532123
H  2.490592  0.005437 -2.441870
H  2.967028 -0.935354 -3.879299
H  3.001428  0.853575 -3.923595
H -2.857359  1.066461 -3.609201
H -3.082679 -0.625694 -4.142306
H -2.518128 -0.282594 -2.489294
--
# monomer B
0 1     # Charge and multiplicity
C   1.22531237526482      0.70753866091955      0.00613762728373
C   1.22532433589282     -0.70753852257020     -0.00619318228664
C   -0.00000567409046      1.41496628609039     -0.00672680580738
C   2.45644923379077      1.41832825917820      0.00902448468363
C   0.00001130712078     -1.41497612663474      0.00347275151708
C   -1.22530046906674      0.70754574598412      0.00838914760619
C   2.45643823516184     -1.41832293188077     -0.00843833914343
C   -0.00000085313587      2.83680140328112     -0.00913035594137
C   3.68182717731192      0.70931832800114     -0.00808954934571
C   2.45512052870677      2.83422403348893     -0.00819210630633
C   3.68182158506039     -0.70933346742900      0.00798293467272
C   -1.22531311884624     -0.70752714354401     -0.00512042085974
C   1.22670006104402      3.54346985599427      0.00816696660346
C   0.00000526469929     -2.83678176723568      0.00832091913869
C   -2.45643555300670      1.41831729028492      0.00842454345199
C   2.45512389762097     -2.83422965658853      0.00783102630520
C   -1.22671388474763      3.54346943575023      0.00827029982280
C   4.91451777504333      1.42717324448953     -0.00160886631602
C   3.69315067131765      3.54279566454522     -0.00155906667985
C   -2.45643712022637     -1.41831290883911     -0.00846337726810
C   1.22670532178455     -3.54347386990643     -0.00780316414624
C   -2.45512491866593      2.83421703463423     -0.00818572995999
C   4.91452486062398     -1.42718653794377      0.00136387641845
C   1.22142509354026      4.97013443726031      0.00150231067809
C   4.89300870916237      2.82518837202648     -0.00039219795739
C   -1.22669652864725     -3.54347062507680     -0.00753595973677
C   -3.68181849668397      0.70932533873199     -0.00807686886569
C   3.69314758099218     -3.54280096939050      0.00148176697923
C   -1.22143177215231      4.97012866986289      0.00168580605083
C   6.13477145276790      0.68054831910577     -0.00083909176631
C   3.65678936045204      4.97295361556775     -0.00065042889723
C   -2.45512642789169     -2.83421472106065      0.00758666850712
C   -3.68181869921921     -0.70932533146830      0.00810055625144
C   4.89301309775526     -2.82519973363176      0.00021895393805
C   -0.00000059327114      5.65044773803267      0.00045449734393
C   6.13477559217374     -0.68055448207492      0.00042622874941
C   2.47813196269732      5.65357712333155      0.00063835075260
C   1.22142288457925     -4.97012668293268     -0.00129718634452
C   -3.69316190412301      3.54279732619245     -0.00139355922051
C   -1.22142804110313     -4.97011793159564     -0.00140994817719
C   -4.91452132810043      1.42717581899491     -0.00153192130862
C   3.65678749952045     -4.97295485423912      0.00080007163680
C   -2.47813805026426      5.65357479452875      0.00092287576113
C   -3.69314125872231     -3.54278984697859      0.00136564082345
C   -4.91451200321153     -1.42718062802730      0.00139857359209
C   -0.00000552908399     -5.65043791501335      0.00005899322272
C   -4.89302000425900      2.82518897091939     -0.00040227981744
C   2.47812647313991     -5.65357317188818     -0.00029052915548
C   -3.65679823041642      4.97295655404175     -0.00047374852278
C   -4.89299899901461     -2.82519139505969      0.00006491824035
C   -2.47812801824129     -5.65356579800621     -0.00056571680280
C   -6.13477002348955      0.68054913825639     -0.00086464346868
C   -3.65678835334731     -4.97294365097028      0.00058578382008
C   -6.13476456307132     -0.68055354348201      0.00040575295444
H   5.83528897565761      3.36927626695423      0.00396712770529
H   7.07385965258860      1.22821762089947     -0.00037744837300
H   4.60066374401555      5.51238117445323     -0.00014522814529
H   5.83528386714679     -3.36930568472863     -0.00423551337640
H   -0.00001167146422      6.73853104613662     -0.00389474766392
H   7.07386165167227     -1.22822657074368     -0.00008250934481
H   2.47331421164041      6.74068466339473      0.00017162982210
H   4.60066897122302     -5.51237575717576      0.00039007446835
H   -2.47331820069565      6.74068209160650      0.00047297644710
H   -0.00000978838621     -6.73852780445195      0.00458867820736
H   -5.83530143450167      3.36927132229595      0.00410314985360
H   2.47330840367253     -6.74068500242887      0.00027980126949
H   -4.60067436136587      5.51237839860371      0.00002010017831
H   -5.83527902699321     -3.36928859177951     -0.00451481925734
H   -2.47329986759855     -6.74067870613986     -0.00016951527498
H   -7.07385728692578      1.22822084484047     -0.00046143985387
H   -4.60067330624313     -5.51236229778631      0.00021776644566
H   -7.07385645456741     -1.22822025997701     -0.00017736581114

    units angstrom      # Angstroms are the default
    no_reorient         # Geometry fixed, default
    symmetry c1         # C1 symmetry, default
}

set {
    scf_type DF         # Density fitting, faster than exact integrals
    freeze_core True    # Freeze core electrons
    basis jun-cc-pVDZ   # Jun-cc-pVDZ basis set, recommended for sSAPT0 in https://doi.org/10.1063/1.4867135
}

energy('ssapt0')        # Compute sSAPT0 energy, includes also SAPT0
--------------------------------------------------------------------------

  //              Dimer HF             //
    Molecular point group: c1
  Charge       = 1
  Multiplicity = 1
  Basis Set: JUN-CC-PVDZ
    Blend: JUN-CC-PVDZ
  Basis Set: (JUN-CC-PVDZ AUX)
    Blend: JUN-CC-PVDZ-JKFIT
  @DF-RHF Final Energy: -2359.20865103137203
    Total Energy =                      -2359.2086510313729377
 Dipole X            :         -0.0028920            0.0006313           -0.0022607
 Dipole Y            :         -0.0547165            0.0560211            0.0013046
 Dipole Z            :         14.9145884          -19.4851985           -4.5706101
 Magnitude           :                                                    4.5706109
  //            Monomer A HF           //
    Molecular point group: c1
  Multiplicity = 1
  Basis Set: JUN-CC-PVDZ
    Blend: JUN-CC-PVDZ
  Basis Set: (JUN-CC-PVDZ AUX)
    Blend: JUN-CC-PVDZ-JKFIT
  @DF-RHF Final Energy:  -303.29830733142046
    Total Energy =                       -303.2983073314204603
  //            Monomer B HF           //
    Molecular point group: c1

    Geometry (in Angstrom), charge = 0, multiplicity = 1:

       Center              X                  Y                   Z               Mass
    ------------   -----------------  -----------------  -----------------  -----------------
      Gh(C)           0.680066520158    -0.008042372515    -4.794436426406    12.000000000000
      Gh(C)          -0.680504479842    -0.006014372515    -4.794052426406    12.000000000000
      Gh(N)          -1.085635479842    -0.005016372515    -3.475728426406    14.003074004430
      Gh(C)           0.000107520158    -0.001740372515    -2.694327426406    12.000000000000
      Gh(C)          -2.477365479842     0.044389627485    -3.007749426406    12.000000000000
      Gh(N)           1.085221520158    -0.005016372515    -3.475728426406    14.003074004430
      Gh(H)           1.385145520158    -0.015870372515    -5.611875426406     1.007825032230
      Gh(H)          -1.385302479842    -0.006204372515    -5.611721426406     1.007825032230
      Gh(H)          -0.000009479842     0.000006627485    -1.613238426406     1.007825032230
      Gh(C)           2.478116520158    -0.021908372515    -3.010630426406    12.000000000000
      Gh(H)           2.490591520158     0.005436627485    -1.920377426406     1.007825032230
      Gh(H)           2.967027520158    -0.935354372515    -3.357806426406     1.007825032230
      Gh(H)           3.001427520158     0.853574627485    -3.402102426406     1.007825032230
      Gh(H)          -2.857359479842     1.066460627485    -3.087708426406     1.007825032230
      Gh(H)          -3.082679479842    -0.625694372515    -3.620813426406     1.007825032230
      Gh(H)          -2.518128479842    -0.282594372515    -1.967801426406     1.007825032230
         C            1.225311895423     0.707538288405     0.527630200877    12.000000000000
         C            1.225323856051    -0.707538895085     0.515299391307    12.000000000000
         C           -0.000006153932     1.414965913575     0.514765767786    12.000000000000
         C            2.456448753949     1.418327886663     0.530517058277    12.000000000000
         C            0.000010827279    -1.414976499150     0.524965325111    12.000000000000
         C           -1.225300948908     0.707545373469     0.529881721200    12.000000000000
         C            2.456437755320    -1.418323304396     0.513054234450    12.000000000000
         C           -0.000001332978     2.836801030766     0.512362217652    12.000000000000
         C            3.681826697470     0.709317955486     0.513403024248    12.000000000000
         C            2.455120048865     2.834223660974     0.513300467287    12.000000000000
         C            3.681821105219    -0.709333839944     0.529475508266    12.000000000000
         C           -1.225313598688    -0.707527516059     0.516372152734    12.000000000000
         C            1.226699581202     3.543469483479     0.529659540197    12.000000000000
         C            0.000004784858    -2.836782139751     0.529813492732    12.000000000000
         C           -2.456436032848     1.418316917770     0.529917117046    12.000000000000
         C            2.455123417779    -2.834230029103     0.529323599899    12.000000000000
         C           -1.226714364589     3.543469063235     0.529762873416    12.000000000000
         C            4.914517295202     1.427172871975     0.519883707278    12.000000000000
         C            3.693150191476     3.542795292030     0.519933506914    12.000000000000
         C           -2.456437600068    -1.418313281354     0.513029196325    12.000000000000
         C            1.226704841943    -3.543474242421     0.513689409447    12.000000000000
         C           -2.455125398508     2.834216662119     0.513306843634    12.000000000000
         C            4.914524380782    -1.427186910459     0.522856450012    12.000000000000
         C            1.221424613699     4.970134064745     0.522994884272    12.000000000000
         C            4.893008229321     2.825187999512     0.521100375636    12.000000000000
         C           -1.226697008489    -3.543470997592     0.513956613857    12.000000000000
         C           -3.681818976526     0.709324966217     0.513415704728    12.000000000000
         C            3.693147101150    -3.542801341905     0.522974340573    12.000000000000
         C           -1.221432251994     4.970128297348     0.523178379644    12.000000000000
         C            6.134770972926     0.680547946591     0.520653481827    12.000000000000
         C            3.656788880610     4.972953243053     0.520842144696    12.000000000000
         C           -2.455126907733    -2.834215093576     0.529079242101    12.000000000000
         C           -3.681819179061    -0.709325703983     0.529593129845    12.000000000000
         C            4.893012617914    -2.825200106147     0.521711527532    12.000000000000
         C           -0.000001073113     5.650447365518     0.521947070937    12.000000000000
         C            6.134775112332    -0.680554854590     0.521918802343    12.000000000000
         C            2.478131482856     5.653576750817     0.522130924346    12.000000000000
         C            1.221422404738    -4.970127055448     0.520195387249    12.000000000000
         C           -3.693162383965     3.542796953677     0.520099014373    12.000000000000
         C           -1.221428520945    -4.970118304111     0.520082625416    12.000000000000
         C           -4.914521807942     1.427175446480     0.519960652285    12.000000000000
         C            3.656787019679    -4.972955226754     0.522292645230    12.000000000000
         C           -2.478138530106     5.653574422014     0.522415449355    12.000000000000
         C           -3.693141738564    -3.542790219494     0.522858214417    12.000000000000
         C           -4.914512483053    -1.427181000542     0.522891147186    12.000000000000
         C           -0.000006008926    -5.650438287528     0.521551566816    12.000000000000
         C           -4.893020484101     2.825188598404     0.521090293776    12.000000000000
         C            2.478125993298    -5.653573544403     0.521202044438    12.000000000000
         C           -3.656798710258     4.972956181527     0.521018825071    12.000000000000
         C           -4.892999478856    -2.825191767575     0.521557491834    12.000000000000
         C           -2.478128498083    -5.653566170521     0.520926856791    12.000000000000
         C           -6.134770503331     0.680548765741     0.520627930125    12.000000000000
         C           -3.656788833189    -4.972944023485     0.522078357414    12.000000000000
         C           -6.134765042913    -0.680553915997     0.521898326548    12.000000000000
         H            5.835288495816     3.369275894439     0.525459701299     1.007825032230
         H            7.073859172747     1.228217248385     0.521115125221     1.007825032230
         H            4.600663264174     5.512380801938     0.521347345448     1.007825032230
         H            5.835283387305    -3.369306057244     0.517257060217     1.007825032230
         H           -0.000012151306     6.738530673622     0.517597825930     1.007825032230
         H            7.073861171831    -1.228226943259     0.521410064249     1.007825032230
         H            2.473313731799     6.740684290880     0.521664203416     1.007825032230
         H            4.600668491381    -5.512376129691     0.521882648062     1.007825032230
         H           -2.473318680537     6.740681719092     0.521965550041     1.007825032230
         H           -0.000010268228    -6.738528176967     0.526081251801     1.007825032230
         H           -5.835301914343     3.369270949781     0.525595723447     1.007825032230
         H            2.473307923831    -6.740685374944     0.521772374863     1.007825032230
         H           -4.600674841208     5.512378026089     0.521512673772     1.007825032230
         H           -5.835279506835    -3.369288964294     0.516977754336     1.007825032230
         H           -2.473300347440    -6.740679078655     0.521323058319     1.007825032230
         H           -7.073857766768     1.228220472326     0.521031133740     1.007825032230
         H           -4.600673786085    -5.512362670301     0.521710340039     1.007825032230
         H           -7.073856934409    -1.228220632492     0.521315207782     1.007825032230

  Charge       = 0
  Multiplicity = 1
  Basis Set: JUN-CC-PVDZ
    Blend: JUN-CC-PVDZ
  Basis Set: (JUN-CC-PVDZ AUX)
    Blend: JUN-CC-PVDZ-JKFIT

    Orbital Energies [Eh]
    ---------------------

    Doubly Occupied:

       1A    -11.260592     2A    -11.260174     3A    -11.260104
       4A    -11.259417     5A    -11.259356     6A    -11.259197
       7A    -11.258965     8A    -11.258913     9A    -11.258863
      10A    -11.258569    11A    -11.258553    12A    -11.258450
      13A    -11.258394    14A    -11.258390    15A    -11.258385
      16A    -11.258355    17A    -11.258343    18A    -11.258326
      19A    -11.258325    20A    -11.258313    21A    -11.258311
      22A    -11.258263    23A    -11.258234    24A    -11.258006
      25A    -11.257257    26A    -11.257217    27A    -11.257169
      28A    -11.257079    29A    -11.257032    30A    -11.256970
      31A    -11.256358    32A    -11.256314    33A    -11.256250
      34A    -11.256188    35A    -11.256142    36A    -11.256114
      37A    -11.252209    38A    -11.252205    39A    -11.252204
      40A    -11.252199    41A    -11.252173    42A    -11.252168
      43A    -11.251302    44A    -11.251296    45A    -11.251288
      46A    -11.251281    47A    -11.251277    48A    -11.251274
      49A    -11.250771    50A    -11.250765    51A    -11.250765
      52A    -11.250760    53A    -11.250734    54A    -11.250729
      55A     -1.243880    56A     -1.219661    57A     -1.219625
      58A     -1.189392    59A     -1.189371    60A     -1.180779
      61A     -1.157416    62A     -1.148828    63A     -1.135338
      64A     -1.135298    65A     -1.113052    66A     -1.113046
      67A     -1.082264    68A     -1.082252    69A     -1.078440
      70A     -1.065848    71A     -1.065838    72A     -1.039242
      73A     -1.024090    74A     -1.021601    75A     -1.021528
      76A     -1.017586    77A     -1.012669    78A     -0.986861
      79A     -0.986793    80A     -0.961743    81A     -0.961682
      82A     -0.894133    83A     -0.894116    84A     -0.887748
      85A     -0.885986    86A     -0.885950    87A     -0.881214
      88A     -0.881174    89A     -0.861749    90A     -0.837285
      91A     -0.818047    92A     -0.816428    93A     -0.811963
      94A     -0.811957    95A     -0.794547    96A     -0.794532
      97A     -0.746439    98A     -0.744682    99A     -0.733243
     100A     -0.733225   101A     -0.732029   102A     -0.732012
     103A     -0.716335   104A     -0.698835   105A     -0.698787
     106A     -0.693442   107A     -0.693380   108A     -0.661085
     109A     -0.652934   110A     -0.650968   111A     -0.650118
     112A     -0.650102   113A     -0.639222   114A     -0.639187
     115A     -0.629547   116A     -0.627347   117A     -0.627340
     118A     -0.606400   119A     -0.605700   120A     -0.601476
     121A     -0.599601   122A     -0.599514   123A     -0.593459
     124A     -0.591042   125A     -0.590995   126A     -0.585157
     127A     -0.576444   128A     -0.576308   129A     -0.567195
     130A     -0.567164   131A     -0.565781   132A     -0.565774
     133A     -0.558542   134A     -0.554709   135A     -0.554685
     136A     -0.538450   137A     -0.538445   138A     -0.538182
     139A     -0.538129   140A     -0.529558   141A     -0.528124
     142A     -0.522734   143A     -0.522683   144A     -0.500358
     145A     -0.495563   146A     -0.493083   147A     -0.487765
     148A     -0.484893   149A     -0.481589   150A     -0.481580
     151A     -0.470292   152A     -0.470240   153A     -0.450814
     154A     -0.450755   155A     -0.438988   156A     -0.438986
     157A     -0.404666   158A     -0.404623   159A     -0.403278
     160A     -0.375341   161A     -0.375336   162A     -0.349043
     163A     -0.337492   164A     -0.336451   165A     -0.336436
     166A     -0.310992   167A     -0.298037   168A     -0.284227
     169A     -0.284182   170A     -0.224803   171A     -0.224746

  @DF-RHF Final Energy: -2055.89532183897336

   => Energetics <=

    Nuclear Repulsion Energy =           6452.5568002797781446
    One-Electron Energy =              -15636.5275836854762019
    Two-Electron Energy =                7128.0754615667237886
    Total Energy =                      -2055.8953218389733593
 Dipole X            :         -0.0004851           -0.0000085           -0.0004936
 Dipole Y            :          0.0001203            0.0000167            0.0001370
 Dipole Z            :       -337.0295517          337.0320811            0.0025294
 Magnitude           :                                                    0.0025807

    SAPT Results
  --------------------------------------------------------------------------------------------------------
    Electrostatics                -18.96264248 [mEh]     -11.89923780 [kcal/mol]     -49.78641096 [kJ/mol]
      Elst10,r                    -18.96264248 [mEh]     -11.89923780 [kcal/mol]     -49.78641096 [kJ/mol]

    Exchange                       22.89846928 [mEh]      14.36900641 [kcal/mol]      60.11992280 [kJ/mol]
      Exch10                       22.89846928 [mEh]      14.36900641 [kcal/mol]      60.11992280 [kJ/mol]
      Exch10(S^2)                  22.74430052 [mEh]      14.27226405 [kcal/mol]      59.71515279 [kJ/mol]

    Induction                     -18.95768778 [mEh]     -11.89612868 [kcal/mol]     -49.77340241 [kJ/mol]
      Ind20,r                     -20.40210492 [mEh]     -12.80251412 [kcal/mol]     -53.56571908 [kJ/mol]
      Exch-Ind20,r                  5.62496058 [mEh]       3.52971605 [kcal/mol]      14.76833197 [kJ/mol]
      delta HF,r (2)               -4.18054344 [mEh]      -2.62333062 [kcal/mol]     -10.97601530 [kJ/mol]

    Dispersion                    -26.98308721 [mEh]     -16.93214286 [kcal/mol]     -70.84408571 [kJ/mol]
      Disp20                      -28.99768693 [mEh]     -18.19632327 [kcal/mol]     -76.13341655 [kJ/mol]
      Exch-Disp20                   2.01459972 [mEh]       1.26418041 [kcal/mol]       5.28933084 [kJ/mol]
      Disp20 (SS)                 -14.49884347 [mEh]      -9.09816163 [kcal/mol]     -38.06670827 [kJ/mol]
      Disp20 (OS)                 -14.49884347 [mEh]      -9.09816163 [kcal/mol]     -38.06670827 [kJ/mol]
      Exch-Disp20 (SS)              1.19435086 [mEh]       0.74946648 [kcal/mol]       3.13576776 [kJ/mol]
      Exch-Disp20 (OS)              0.82024886 [mEh]       0.51471393 [kcal/mol]       2.15356308 [kJ/mol]

  Total HF                        -15.02186098 [mEh]      -9.42636008 [kcal/mol]     -39.43989056 [kJ/mol]
  Total SAPT0                     -42.00494819 [mEh]     -26.35850293 [kcal/mol]    -110.28397628 [kJ/mol]

  Special recipe for scaled SAPT0 (see Manual):
    Electrostatics sSAPT0         -18.96264248 [mEh]     -11.89923780 [kcal/mol]     -49.78641096 [kJ/mol]
    Exchange sSAPT0                22.89846928 [mEh]      14.36900641 [kcal/mol]      60.11992280 [kJ/mol]
    Induction sSAPT0              -18.84252690 [mEh]     -11.82386414 [kcal/mol]     -49.47104755 [kJ/mol]
    Dispersion sSAPT0             -26.94184193 [mEh]     -16.90626105 [kcal/mol]     -70.73579624 [kJ/mol]
  Total sSAPT0                    -41.84854202 [mEh]     -26.26035658 [kcal/mol]    -109.87333195 [kJ/mol]
  --------------------------------------------------------------------------------------------------------

*** Psi4 exiting successfully. Buy a developer a beer!
