                               Psi4 1.9 release

  ==> Input File <==

--------------------------------------------------------------------------
memory 64 GB # how much memory is available ! Depends on the nodes/cores !

molecule dimer {
# monomer A
-1 1    # Charge and multiplicity
B -0.000046  0.000337 5.799994
F -1.153597  0.000048 6.615641
F  1.153661 -0.000581 6.615641
F -0.000019 -1.153637 4.984360
F -0.000019  1.153978 4.984360
--
# monomer B
0 1     # Charge and multiplicity
C   -3.66844126402057      7.80375217008252      0.00190004133558
C   -4.84759871934653      7.13124183134024     -0.00046653359696
C   -4.89495929917518      5.69633040353158     -0.00103944469517
C   -3.65374067877320      4.98073034095895      0.00662099703436
C   -2.40942512149445      7.11398103667468      0.00209438359570
C   -2.42547734410473      5.68112195090346     -0.00491050527438
C   -1.19474401643570      7.78614419430947      0.00356656413763
C   0.03795902893699      7.09942164575698      0.00139585983271
C   0.03033258741920      5.66948955970466     -0.00408752508301
C   -1.20098450790502      4.96927034791531      0.00488220885047
C   1.27795782581485      7.77285944319479      0.00277170839332
C   2.48535808472416      7.08769688523756      0.00049722048857
C   2.48612868491717      5.65477081024076     -0.00644052849921
C   1.25408291964399      4.95607811366431      0.00518741308898
C   3.75171459140595      7.76391215098033      0.00062407186893
C   4.92356605618520      7.07878077698995     -0.00143240883900
C   4.95560727132542      5.64344746336949     -0.00159282164606
C   3.70680153420475      4.94121020833308      0.00349873852374
H   -3.65852113775815      8.89082741913536      0.00358502958574
H   -1.18921332975660      8.87412108735996      0.00753844057883
H   1.28429423888630      8.86083343548850      0.00693053253426
H   3.75354208679975      8.85103527897216      0.00214659618464
H   5.86995870320703      7.61379483465560     -0.00235777588134
H   -5.78823170750226      7.67630221293400     -0.00202638095293
C   -6.09197395869619      4.99326001364347     -0.00291168518608
C   -6.12866148031747      3.58258016879823     -0.00171050815740
C   -3.66457974004527      3.56418217974434     -0.00463560277484
C   -4.89429820469869      2.86108077590057      0.00453338221034
C   -2.43733499489796      2.84761165708481      0.00719617576166
C   -1.20922785759670      3.54788693497833     -0.00648285103018
C   1.24714157216223      3.53468075142962     -0.00729145743546
C   0.01517603956900      2.83311183930540      0.00439272578912
C   2.46764517244071      2.82128997725533      0.00449278391269
C   3.70254947457969      3.52466015442405     -0.00899517692985
C   6.14498038638375      4.92757236613191     -0.00282626685777
C   6.16658835886151      3.51658447594213     -0.00065971342101
C   4.92460995845939      2.80840792535402      0.00587903281610
H   7.08990550964105      5.46688776622306     -0.00658814770723
H   -7.03104175110130      5.54268795285765     -0.00714490013730
C   -7.33969804112295      2.85841153457957     -0.00333767559888
C   -7.36488195805880      1.47032337158330     -0.00157213747140
C   -4.90350460894690      1.44442681216000     -0.00628840166334
C   -6.13225715261081      0.73993935705394      0.00600164231964
C   -3.67687480051673      0.72669714267312      0.00433931473643
C   -2.44565658606518      1.42964113326212     -0.00597039546461
C   -1.22360068130162      0.71532450163492      0.00545886906656
C   0.00763786931376      1.41738314923765      0.00392452278437
C   1.23121980774686      0.70211669058719     -0.01490206287210
C   2.46082110053113      1.40329203612573      0.00460244601878
C   3.68443025419614      0.68719842821222      0.00377365974158
C   4.91870890153864      1.39173456118907     -0.00862816189375
C   7.36980207796101      2.77948220318441     -0.00242013321349
C   7.38016266612146      1.39121750785509     -0.00087345036788
C   6.13979953912259      0.67411862320065      0.00545489144369
H   -8.27919079934664      3.40711804112415     -0.00763522772059
H   8.31511347147953      3.31811809662368     -0.00663070901292
C   -8.59175593758115      0.72483255304480     -0.00123170985383
C   -8.59902460370342     -0.63263980622873      0.00089141472904
C   -6.13981313911873     -0.67413663715361     -0.00609792660607
C   -7.38018411213749     -1.39126618958160      0.00131813493501
C   -4.91868448025621     -1.39175501803000      0.00624257154343
C   -3.68443829568458     -0.68723731573599     -0.00478966852105
C   -2.46081704024768     -1.40334517882457      0.00575341766833
C   -1.23116201232071     -0.70217386488055     -0.00636696112346
C   -0.00756962538737     -1.41741884941102      0.00108956317991
C   1.22364771588843     -0.71527537726392      0.01109518512883
C   2.44567064933149     -1.42964328900682     -0.00065482763106
C   3.67686670284649     -0.72670743155550     -0.00479541202602
C   6.13224884641929     -0.73997883984993     -0.00632338623858
C   4.90351914550401     -1.44445752054090      0.00751768830159
C   8.59901484869081      0.63260386666793     -0.00101133422380
C   8.59174548810050     -0.72485086719319      0.00072504603735
C   7.36486276438985     -1.47033266560598      0.00049486934466
H   -9.52830597181814      1.27684744919284     -0.00270163681798
H   9.54141097460619      1.17457248844457     -0.00206336648518
C   -7.36983790976868     -2.77954514593389      0.00312634335708
C   -4.92459910905015     -2.80843725734101     -0.00460528907921
C   -6.16662249566744     -3.51665219282533      0.00169655107992
C   -3.70251035970491     -3.52468154912026      0.00571878010666
C   -2.46764698511392     -2.82132596280400     -0.00632585824990
C   -0.01513347410770     -2.83314164539971     -0.00604426974092
C   -1.24712184122656     -3.53473217556300      0.00551968366725
C   1.20924506964357     -3.54791467864352      0.00805871345849
C   2.43733602215464     -2.84764173817541     -0.00608104485234
C   4.89430234377080     -2.86112296828604     -0.00526030478103
C   3.66461525504104     -3.56421984553201      0.00761911515957
C   6.12863901474565     -3.58258405771778      0.00096495711699
C   7.33967266469532     -2.85841330737039      0.00248018319869
H   -9.54144911125902     -1.17456346666430      0.00226083090216
H   9.52826186807155     -1.27691907390448      0.00197485379837
H   -8.31516504384864     -3.31814985321231      0.00729857188773
H   8.27915514249207     -3.40714078989363      0.00681973918158
C   -6.14499418870218     -4.92764727278338      0.00302254913999
C   -3.70678334799751     -4.94126171411716     -0.00679841894792
C   -4.95559005800169     -5.64349397349412      0.00116871569699
C   -2.48612132622665     -5.65478557440947      0.00614125209662
C   -1.25405833548005     -4.95612205000132     -0.00503435388927
C   1.20101257386816     -4.96928038819302     -0.00385322963129
C   -0.03033667441341     -5.66952030313900      0.00398997003238
C   3.65375010132847     -4.98074377541453     -0.00309522988330
C   2.42549269587528     -5.68117463552727      0.00628170066869
C   6.09196561781097     -4.99325796338655      0.00325918379042
C   4.89497644461045     -5.69634842095790      0.00202298796027
H   -7.08989238804069     -5.46699984223871      0.00742531082125
H   7.03105520920009     -5.54265853633254      0.00683896355417
C   -4.92354532219813     -7.07882109967734      0.00061394679214
C   -2.48534208823777     -7.08772807792913     -0.00189594564379
C   -3.75168589177895     -7.76394715763627     -0.00170126671874
C   -0.03794895698805     -7.09946487446944     -0.00168022049625
C   -1.27795610040136     -7.77290438466689     -0.00366491325785
C   2.40944432072629     -7.11402201200282     -0.00081701968533
C   1.19474993715296     -7.78618536556242     -0.00296931056689
C   4.84762105249800     -7.13126211057943      0.00168979497423
C   3.66847160587561     -7.80378799294376     -0.00065863938960
H   -5.86994035041618     -7.61383059804164      0.00215798365757
H   5.78824962538815     -7.67633218931421      0.00281691445618
H   -3.75352693944918     -8.85107156923607     -0.00353718114765
H   -1.28430440589466     -8.86087539249706     -0.00809229711623
H   1.18922157469537     -8.87416062058945     -0.00706194725726
H   3.65854661482387     -8.89086063405326     -0.00231318081200

    units angstrom      # Angstroms are the default
    no_reorient         # Geometry fixed, default
    symmetry c1         # C1 symmetry, default
}

set {
    scf_type DF         # Density fitting, faster than exact integrals
    freeze_core True    # Freeze core electrons
    basis jun-cc-pVDZ   # Jun-cc-pVDZ basis set, recommended for sSAPT0 in https://doi.org/10.1063/1.4867135
}

energy('ssapt0')        # Compute sSAPT0 energy, includes also SAPT0
--------------------------------------------------------------------------

  //              Dimer HF             //
    Molecular point group: c1
  Charge       = -1
  Multiplicity = 1
  Basis Set: JUN-CC-PVDZ
    Blend: JUN-CC-PVDZ
  Basis Set: (JUN-CC-PVDZ AUX)
    Blend: JUN-CC-PVDZ-JKFIT
  @DF-RHF Final Energy: -4073.10532235323490
    Total Energy =                      -4073.1053223532362608
 Dipole X            :          0.0000137           -0.0001188           -0.0001051
 Dipole Y            :          0.0012214           -0.0002727            0.0009487
 Dipole Z            :         25.4433941          -34.5170092           -9.0736151
 Magnitude           :                                                    9.0736152
  //            Monomer A HF           //
    Molecular point group: c1
  Multiplicity = 1
  Basis Set: JUN-CC-PVDZ
    Blend: JUN-CC-PVDZ
  Basis Set: (JUN-CC-PVDZ AUX)
    Blend: JUN-CC-PVDZ-JKFIT
  @DF-RHF Final Energy:  -422.77170175095233
    Total Energy =                       -422.7717017509523316
  //            Monomer B HF           //
    Molecular point group: c1

    Geometry (in Angstrom), charge = 0, multiplicity = 1:

       Center              X                  Y                   Z               Mass
    ------------   -----------------  -----------------  -----------------  -----------------
      Gh(B)          -0.000050191042     0.000351518223     5.400512880551    11.009305360000
      Gh(F)          -1.153601191042     0.000062518223     6.216159880551    18.998403162730
      Gh(F)           1.153656808958    -0.000566481777     6.216159880551    18.998403162730
      Gh(F)          -0.000023191042    -1.153622481777     4.584878880551    18.998403162730
      Gh(F)          -0.000023191042     1.153992518223     4.584878880551    18.998403162730
         C           -3.668445455062     7.803766688305    -0.397581078114    12.000000000000
         C           -4.847602910388     7.131256349563    -0.399947653046    12.000000000000
         C           -4.894963490217     5.696344921754    -0.400520564145    12.000000000000
         C           -3.653744869815     4.980744859182    -0.392860122415    12.000000000000
         C           -2.409429312536     7.113995554897    -0.397386735854    12.000000000000
         C           -2.425481535146     5.681136469126    -0.404391624724    12.000000000000
         C           -1.194748207477     7.786158712532    -0.395914555312    12.000000000000
         C            0.037954837895     7.099436163980    -0.398085259617    12.000000000000
         C            0.030328396378     5.669504077927    -0.403568644533    12.000000000000
         C           -1.200988698947     4.969284866138    -0.394598910599    12.000000000000
         C            1.277953634773     7.772873961417    -0.396709411056    12.000000000000
         C            2.485353893683     7.087711403460    -0.398983898961    12.000000000000
         C            2.486124493876     5.654785328463    -0.405921647949    12.000000000000
         C            1.254078728602     4.956092631887    -0.394293706361    12.000000000000
         C            3.751710400364     7.763926669203    -0.398857047581    12.000000000000
         C            4.923561865144     7.078795295213    -0.400913528288    12.000000000000
         C            4.955603080284     5.643461981592    -0.401073941096    12.000000000000
         C            3.706797343163     4.941224726556    -0.395982380926    12.000000000000
         H           -3.658525328800     8.890841937358    -0.395896089864     1.007825032230
         H           -1.189217520798     8.874135605583    -0.391942678871     1.007825032230
         H            1.284290047845     8.860847953711    -0.392550586915     1.007825032230
         H            3.753537895758     8.851049797195    -0.397334523265     1.007825032230
         H            5.869954512165     7.613809352878    -0.401838895331     1.007825032230
         H           -5.788235898544     7.676316731157    -0.401507500402     1.007825032230
         C           -6.091978149738     4.993274531866    -0.402392804636    12.000000000000
         C           -6.128665671359     3.582594687021    -0.401191627607    12.000000000000
         C           -3.664583931087     3.564196697967    -0.404116722224    12.000000000000
         C           -4.894302395740     2.861095294123    -0.394947737239    12.000000000000
         C           -2.437339185940     2.847626175307    -0.392284943688    12.000000000000
         C           -1.209232048638     3.547901453201    -0.405963970480    12.000000000000
         C            1.247137381121     3.534695269652    -0.406772576885    12.000000000000
         C            0.015171848527     2.833126357528    -0.395088393660    12.000000000000
         C            2.467640981399     2.821304495478    -0.394988335537    12.000000000000
         C            3.702545283538     3.524674672647    -0.408476296379    12.000000000000
         C            6.144976195342     4.927586884354    -0.402307386307    12.000000000000
         C            6.166584167820     3.516598994165    -0.400140832871    12.000000000000
         C            4.924605767418     2.808422443577    -0.393602086633    12.000000000000
         H            7.089901318599     5.466902284446    -0.406069267157     1.007825032230
         H           -7.031045942143     5.542702471080    -0.406626019587     1.007825032230
         C           -7.339702232165     2.858426052802    -0.402818795048    12.000000000000
         C           -7.364886149100     1.470337889806    -0.401053256921    12.000000000000
         C           -4.903508799989     1.444441330383    -0.405769521113    12.000000000000
         C           -6.132261343652     0.739953875277    -0.393479477130    12.000000000000
         C           -3.676878991558     0.726711660896    -0.395141804713    12.000000000000
         C           -2.445660777107     1.429655651485    -0.405451514914    12.000000000000
         C           -1.223604872343     0.715339019858    -0.394022250383    12.000000000000
         C            0.007633678272     1.417397667460    -0.395556596665    12.000000000000
         C            1.231215616705     0.702131208810    -0.414383182322    12.000000000000
         C            2.460816909489     1.403306554348    -0.394878673431    12.000000000000
         C            3.684426063155     0.687212946435    -0.395707459708    12.000000000000
         C            4.918704710497     1.391749079412    -0.408109281343    12.000000000000
         C            7.369797886919     2.779496721407    -0.401901252663    12.000000000000
         C            7.380158475080     1.391232026078    -0.400354569817    12.000000000000
         C            6.139795348081     0.674133141423    -0.394026228006    12.000000000000
         H           -8.279194990388     3.407132559347    -0.407116347170     1.007825032230
         H            8.315109280438     3.318132614846    -0.406111828462     1.007825032230
         C           -8.591760128623     0.724847071267    -0.400712829303    12.000000000000
         C           -8.599028794745    -0.632625288006    -0.398589704720    12.000000000000
         C           -6.139817330160    -0.674122118931    -0.405579046056    12.000000000000
         C           -7.380188303179    -1.391251671359    -0.398162984514    12.000000000000
         C           -4.918688671298    -1.391740499807    -0.393238547906    12.000000000000
         C           -3.684442486726    -0.687222797513    -0.404270787971    12.000000000000
         C           -2.460821231289    -1.403330660602    -0.393727701781    12.000000000000
         C           -1.231166203362    -0.702159346658    -0.405848080573    12.000000000000
         C           -0.007573816429    -1.417404331188    -0.398391556270    12.000000000000
         C            1.223643524847    -0.715260859041    -0.388385934321    12.000000000000
         C            2.445666458290    -1.429628770784    -0.400135947081    12.000000000000
         C            3.676862511805    -0.726692913333    -0.404276531476    12.000000000000
         C            6.132244655378    -0.739964321627    -0.405804505688    12.000000000000
         C            4.903514954462    -1.444443002318    -0.391963431148    12.000000000000
         C            8.599010657649     0.632618384891    -0.400492453673    12.000000000000
         C            8.591741297059    -0.724836348971    -0.398756073412    12.000000000000
         C            7.364858573348    -1.470318147383    -0.398986250105    12.000000000000
         H           -9.528310162860     1.276861967415    -0.402182756267     1.007825032230
         H            9.541406783565     1.174587006667    -0.401544485935     1.007825032230
         C           -7.369842100810    -2.779530627711    -0.396354776092    12.000000000000
         C           -4.924603300092    -2.808422739118    -0.404086408529    12.000000000000
         C           -6.166626686709    -3.516637674603    -0.397784568370    12.000000000000
         C           -3.702514550747    -3.524667030898    -0.393762339343    12.000000000000
         C           -2.467651176156    -2.821311444581    -0.405806977699    12.000000000000
         C           -0.015137665149    -2.833127127177    -0.405525389190    12.000000000000
         C           -1.247126032268    -3.534717657340    -0.393961435782    12.000000000000
         C            1.209240878602    -3.547900160421    -0.391422405991    12.000000000000
         C            2.437331831113    -2.847627219953    -0.405562164302    12.000000000000
         C            4.894298152729    -2.861108450063    -0.404741424231    12.000000000000
         C            3.664611063999    -3.564205327309    -0.391862004290    12.000000000000
         C            6.128634823704    -3.582569539495    -0.398516162333    12.000000000000
         C            7.339668473654    -2.858398789148    -0.397000936251    12.000000000000
         H           -9.541453302301    -1.174548948442    -0.397220288547     1.007825032230
         H            9.528257677030    -1.276904555682    -0.397506265651     1.007825032230
         H           -8.315169234890    -3.318135334990    -0.392182547562     1.007825032230
         H            8.279150951450    -3.407126271671    -0.392661380268     1.007825032230
         C           -6.144998379744    -4.927632754561    -0.396458570310    12.000000000000
         C           -3.706787539039    -4.941247195895    -0.406279538397    12.000000000000
         C           -4.955594249043    -5.643479455272    -0.398312403753    12.000000000000
         C           -2.486125517268    -5.654771056187    -0.393339867353    12.000000000000
         C           -1.254062526522    -4.956107531779    -0.404515473339    12.000000000000
         C            1.201008382827    -4.969265869970    -0.403334349081    12.000000000000
         C           -0.030340865455    -5.669505784916    -0.395491149417    12.000000000000
         C            3.653745910287    -4.980729257192    -0.402576349333    12.000000000000
         C            2.425488504834    -5.681160117305    -0.393199418781    12.000000000000
         C            6.091961426769    -4.993243445164    -0.396221935659    12.000000000000
         C            4.894972253569    -5.696333902735    -0.397458131489    12.000000000000
         H           -7.089896579082    -5.466985324016    -0.392055808628     1.007825032230
         H            7.031051018158    -5.542644018110    -0.392642155895     1.007825032230
         C           -4.923549513240    -7.078806581455    -0.398867172657    12.000000000000
         C           -2.485346279279    -7.087713559707    -0.401377065093    12.000000000000
         C           -3.751690082821    -7.763932639414    -0.401182386168    12.000000000000
         C           -0.037953148030    -7.099450356247    -0.401161339946    12.000000000000
         C           -1.277960291443    -7.772889866444    -0.403146032707    12.000000000000
         C            2.409440129685    -7.114007493780    -0.400298139135    12.000000000000
         C            1.194745746111    -7.786170847340    -0.402450430016    12.000000000000
         C            4.847616861456    -7.131247592357    -0.397791324475    12.000000000000
         C            3.668467414834    -7.803773474721    -0.400139758839    12.000000000000
         H           -5.869944541458    -7.613816079819    -0.397323135792     1.007825032230
         H            5.788245434347    -7.676317671092    -0.396664204993     1.007825032230
         H           -3.753531130491    -8.851057051013    -0.403018300597     1.007825032230
         H           -1.284308596936    -8.860860874274    -0.407573416566     1.007825032230
         H            1.189217383654    -8.874146102367    -0.406543066707     1.007825032230
         H            3.658542423782    -8.890846115831    -0.401794300261     1.007825032230

  Charge       = 0
  Multiplicity = 1
  Basis Set: JUN-CC-PVDZ
    Blend: JUN-CC-PVDZ
  Basis Set: (JUN-CC-PVDZ AUX)
    Blend: JUN-CC-PVDZ-JKFIT

    Orbital Energies [Eh]
    ---------------------

    Doubly Occupied:

       1A    -11.264030     2A    -11.263719     3A    -11.263706
       4A    -11.263369     5A    -11.263363     6A    -11.263330
       7A    -11.263172     8A    -11.263153     9A    -11.263142
      10A    -11.262985    11A    -11.262826    12A    -11.262823
      13A    -11.262345    14A    -11.262342    15A    -11.262274
      16A    -11.262269    17A    -11.262218    18A    -11.262186
      19A    -11.262141    20A    -11.262104    21A    -11.262101
      22A    -11.261953    23A    -11.261943    24A    -11.261828
      25A    -11.261814    26A    -11.261801    27A    -11.261795
      28A    -11.261749    29A    -11.261740    30A    -11.261666
      31A    -11.261639    32A    -11.261637    33A    -11.261610
      34A    -11.261608    35A    -11.261587    36A    -11.261540
      37A    -11.261405    38A    -11.261395    39A    -11.261388
      40A    -11.261381    41A    -11.261377    42A    -11.261368
      43A    -11.261362    44A    -11.261347    45A    -11.261342
      46A    -11.261319    47A    -11.261316    48A    -11.261312
      49A    -11.261151    50A    -11.261118    51A    -11.261117
      52A    -11.261035    53A    -11.261032    54A    -11.260962
      55A    -11.260004    56A    -11.259990    57A    -11.259988
      58A    -11.259959    59A    -11.259957    60A    -11.259941
      61A    -11.259380    62A    -11.259354    63A    -11.259352
      64A    -11.259299    65A    -11.259298    66A    -11.259268
      67A    -11.259008    68A    -11.258990    69A    -11.258988
      70A    -11.258961    71A    -11.258958    72A    -11.258947
      73A    -11.254583    74A    -11.254582    75A    -11.254580
      76A    -11.254577    77A    -11.254572    78A    -11.254570
      79A    -11.253731    80A    -11.253729    81A    -11.253725
      82A    -11.253724    83A    -11.253722    84A    -11.253717
      85A    -11.253646    86A    -11.253644    87A    -11.253641
      88A    -11.253640    89A    -11.253638    90A    -11.253633
      91A    -11.253111    92A    -11.253109    93A    -11.253108
      94A    -11.253105    95A    -11.253100    96A    -11.253098
      97A     -1.254097    98A     -1.239123    99A     -1.239117
     100A     -1.220570   101A     -1.220564   102A     -1.215574
     103A     -1.201134   104A     -1.195702   105A     -1.188273
     106A     -1.188268   107A     -1.173855   108A     -1.173851
     109A     -1.155752   110A     -1.155748   111A     -1.152847
     112A     -1.144808   113A     -1.144805   114A     -1.128680
     115A     -1.114834   116A     -1.113249   117A     -1.112607
     118A     -1.112598   119A     -1.111700   120A     -1.088541
     121A     -1.088524   122A     -1.077045   123A     -1.077044
     124A     -1.067731   125A     -1.067703   126A     -1.065096
     127A     -1.046903   128A     -1.046896   129A     -1.040589
     130A     -1.038818   131A     -1.038817   132A     -1.025365
     133A     -1.021526   134A     -1.021479   135A     -1.007275
     136A     -1.006919   137A     -1.003893   138A     -1.000610
     139A     -1.000561   140A     -0.991154   141A     -0.971100
     142A     -0.971053   143A     -0.955975   144A     -0.955919
     145A     -0.905731   146A     -0.905689   147A     -0.905627
     148A     -0.905587   149A     -0.904482   150A     -0.892503
     151A     -0.892447   152A     -0.890491   153A     -0.890432
     154A     -0.889572   155A     -0.872305   156A     -0.869125
     157A     -0.851634   158A     -0.847989   159A     -0.847966
     160A     -0.845722   161A     -0.843134   162A     -0.834666
     163A     -0.834653   164A     -0.828198   165A     -0.828196
     166A     -0.784653   167A     -0.784642   168A     -0.783776
     169A     -0.783748   170A     -0.782398   171A     -0.782379
     172A     -0.782157   173A     -0.767093   174A     -0.760926
     175A     -0.750701   176A     -0.733571   177A     -0.727172
     178A     -0.727161   179A     -0.725194   180A     -0.724640
     181A     -0.724624   182A     -0.718625   183A     -0.713894
     184A     -0.713889   185A     -0.699674   186A     -0.699664
     187A     -0.686258   188A     -0.686046   189A     -0.686044
     190A     -0.682269   191A     -0.682256   192A     -0.678887
     193A     -0.653725   194A     -0.650973   195A     -0.650944
     196A     -0.649938   197A     -0.649923   198A     -0.649653
     199A     -0.641054   200A     -0.641033   201A     -0.640178
     202A     -0.639245   203A     -0.636134   204A     -0.636109
     205A     -0.629244   206A     -0.617691   207A     -0.615388
     208A     -0.615368   209A     -0.608897   210A     -0.608890
     211A     -0.599175   212A     -0.599128   213A     -0.598848
     214A     -0.598725   215A     -0.598696   216A     -0.598163
     217A     -0.595154   218A     -0.595142   219A     -0.594821
     220A     -0.594369   221A     -0.592064   222A     -0.592061
     223A     -0.587525   224A     -0.577865   225A     -0.577855
     226A     -0.575717   227A     -0.575715   228A     -0.573473
     229A     -0.569580   230A     -0.568262   231A     -0.568241
     232A     -0.566857   233A     -0.566845   234A     -0.560984
     235A     -0.558830   236A     -0.558812   237A     -0.558500
     238A     -0.554468   239A     -0.550615   240A     -0.547544
     241A     -0.544325   242A     -0.535050   243A     -0.534982
     244A     -0.533631   245A     -0.533608   246A     -0.528163
     247A     -0.528148   248A     -0.527923   249A     -0.517282
     250A     -0.517249   251A     -0.515411   252A     -0.515405
     253A     -0.509727   254A     -0.509710   255A     -0.498120
     256A     -0.496548   257A     -0.496521   258A     -0.493829
     259A     -0.493815   260A     -0.489470   261A     -0.481535
     262A     -0.477475   263A     -0.477471   264A     -0.474085
     265A     -0.469549   266A     -0.466627   267A     -0.466622
     268A     -0.458859   269A     -0.446823   270A     -0.446762
     271A     -0.441084   272A     -0.440811   273A     -0.440793
     274A     -0.434743   275A     -0.433960   276A     -0.407431
     277A     -0.407409   278A     -0.386467   279A     -0.386418
     280A     -0.385785   281A     -0.385783   282A     -0.383812
     283A     -0.354382   284A     -0.354367   285A     -0.350720
     286A     -0.338148   287A     -0.335655   288A     -0.335573
     289A     -0.332767   290A     -0.332760   291A     -0.307144
     292A     -0.302004   293A     -0.301945   294A     -0.300898
     295A     -0.286227   296A     -0.256515   297A     -0.253561
     298A     -0.253505   299A     -0.204318   300A     -0.204231

  @DF-RHF Final Energy: -3650.33803475054629

   => Energetics <=

    Nuclear Repulsion Energy =          15611.4211649754324753
    One-Electron Energy =              -36072.0915885903887101
    Two-Electron Energy =               16810.3323888644081308
    Total Energy =                      -3650.3380347505481041
 Dipole X            :         -0.0008236            0.0001983           -0.0006253
 Dipole Y            :          0.0011124           -0.0013163           -0.0002039
 Dipole Z            :        452.9369050         -452.9425529           -0.0056479
 Magnitude           :                                                    0.0056861

    SAPT Results
  --------------------------------------------------------------------------------------------------------
    Electrostatics                 10.01779369 [mEh]       6.28626045 [kcal/mol]      26.30171370 [kJ/mol]
      Elst10,r                     10.01779369 [mEh]       6.28626045 [kcal/mol]      26.30171370 [kJ/mol]

    Exchange                        0.00447824 [mEh]       0.00281014 [kcal/mol]       0.01175762 [kJ/mol]
      Exch10                        0.00447824 [mEh]       0.00281014 [kcal/mol]       0.01175762 [kJ/mol]
      Exch10(S^2)                   0.00447830 [mEh]       0.00281017 [kcal/mol]       0.01175777 [kJ/mol]

    Induction                      -5.60812367 [mEh]      -3.51915073 [kcal/mol]     -14.72412666 [kJ/mol]
      Ind20,r                      -5.64850808 [mEh]      -3.54449234 [kcal/mol]     -14.83015593 [kJ/mol]
      Exch-Ind20,r                  0.00277227 [mEh]       0.00173962 [kcal/mol]       0.00727859 [kJ/mol]
      delta HF,r (2)                0.03761215 [mEh]       0.02360198 [kcal/mol]       0.09875069 [kJ/mol]

    Dispersion                     -1.17630988 [mEh]      -0.73814559 [kcal/mol]      -3.08840115 [kJ/mol]
      Disp20                       -1.17967558 [mEh]      -0.74025761 [kcal/mol]      -3.09723782 [kJ/mol]
      Exch-Disp20                   0.00336571 [mEh]       0.00211201 [kcal/mol]       0.00883667 [kJ/mol]
      Disp20 (SS)                  -0.58983779 [mEh]      -0.37012880 [kcal/mol]      -1.54861891 [kJ/mol]
      Disp20 (OS)                  -0.58983779 [mEh]      -0.37012880 [kcal/mol]      -1.54861891 [kJ/mol]
      Exch-Disp20 (SS)              0.00253542 [mEh]       0.00159100 [kcal/mol]       0.00665674 [kJ/mol]
      Exch-Disp20 (OS)              0.00083029 [mEh]       0.00052101 [kcal/mol]       0.00217993 [kJ/mol]

  Total HF                          4.41414826 [mEh]       2.76991985 [kcal/mol]      11.58934467 [kJ/mol]
  Total SAPT0                       3.23783839 [mEh]       2.03177426 [kcal/mol]       8.50094352 [kJ/mol]

  Special recipe for scaled SAPT0 (see Manual):
    Electrostatics sSAPT0          10.01779369 [mEh]       6.28626045 [kcal/mol]      26.30171370 [kJ/mol]
    Exchange sSAPT0                 0.00447824 [mEh]       0.00281014 [kcal/mol]       0.01175762 [kJ/mol]
    Induction sSAPT0               -5.60812367 [mEh]      -3.51915073 [kcal/mol]     -14.72412666 [kJ/mol]
    Dispersion sSAPT0              -1.17630988 [mEh]      -0.73814559 [kcal/mol]      -3.08840115 [kJ/mol]
  Total sSAPT0                      3.23783839 [mEh]       2.03177426 [kcal/mol]       8.50094352 [kJ/mol]
  --------------------------------------------------------------------------------------------------------

*** Psi4 exiting successfully. Buy a developer a beer!
