                               Psi4 1.9 release

  ==> Input File <==

--------------------------------------------------------------------------
memory 32 GB # how much memory is available ! Depends on the nodes/cores !

molecule dimer {
# monomer A
-1 1    # Charge and multiplicity
B -1.977592e-04  2.742729e-04 -4.199966
F  1.123153e-16  1.430594e-17 -2.787181
F  1.147860e+00  6.757812e-01 -4.671107
F  1.191806e-02 -1.332011e+00 -4.670905
F -1.159666e+00  6.560735e-01 -4.670826
--
# monomer B
0 1     # Charge and multiplicity
C   1.22531237526482      0.70753866091955      0.00613762728373
C   1.22532433589282     -0.70753852257020     -0.00619318228664
C   -0.00000567409046      1.41496628609039     -0.00672680580738
C   2.45644923379077      1.41832825917820      0.00902448468363
C   0.00001130712078     -1.41497612663474      0.00347275151708
C   -1.22530046906674      0.70754574598412      0.00838914760619
C   2.45643823516184     -1.41832293188077     -0.00843833914343
C   -0.00000085313587      2.83680140328112     -0.00913035594137
C   3.68182717731192      0.70931832800114     -0.00808954934571
C   2.45512052870677      2.83422403348893     -0.00819210630633
C   3.68182158506039     -0.70933346742900      0.00798293467272
C   -1.22531311884624     -0.70752714354401     -0.00512042085974
C   1.22670006104402      3.54346985599427      0.00816696660346
C   0.00000526469929     -2.83678176723568      0.00832091913869
C   -2.45643555300670      1.41831729028492      0.00842454345199
C   2.45512389762097     -2.83422965658853      0.00783102630520
C   -1.22671388474763      3.54346943575023      0.00827029982280
C   4.91451777504333      1.42717324448953     -0.00160886631602
C   3.69315067131765      3.54279566454522     -0.00155906667985
C   -2.45643712022637     -1.41831290883911     -0.00846337726810
C   1.22670532178455     -3.54347386990643     -0.00780316414624
C   -2.45512491866593      2.83421703463423     -0.00818572995999
C   4.91452486062398     -1.42718653794377      0.00136387641845
C   1.22142509354026      4.97013443726031      0.00150231067809
C   4.89300870916237      2.82518837202648     -0.00039219795739
C   -1.22669652864725     -3.54347062507680     -0.00753595973677
C   -3.68181849668397      0.70932533873199     -0.00807686886569
C   3.69314758099218     -3.54280096939050      0.00148176697923
C   -1.22143177215231      4.97012866986289      0.00168580605083
C   6.13477145276790      0.68054831910577     -0.00083909176631
C   3.65678936045204      4.97295361556775     -0.00065042889723
C   -2.45512642789169     -2.83421472106065      0.00758666850712
C   -3.68181869921921     -0.70932533146830      0.00810055625144
C   4.89301309775526     -2.82519973363176      0.00021895393805
C   -0.00000059327114      5.65044773803267      0.00045449734393
C   6.13477559217374     -0.68055448207492      0.00042622874941
C   2.47813196269732      5.65357712333155      0.00063835075260
C   1.22142288457925     -4.97012668293268     -0.00129718634452
C   -3.69316190412301      3.54279732619245     -0.00139355922051
C   -1.22142804110313     -4.97011793159564     -0.00140994817719
C   -4.91452132810043      1.42717581899491     -0.00153192130862
C   3.65678749952045     -4.97295485423912      0.00080007163680
C   -2.47813805026426      5.65357479452875      0.00092287576113
C   -3.69314125872231     -3.54278984697859      0.00136564082345
C   -4.91451200321153     -1.42718062802730      0.00139857359209
C   -0.00000552908399     -5.65043791501335      0.00005899322272
C   -4.89302000425900      2.82518897091939     -0.00040227981744
C   2.47812647313991     -5.65357317188818     -0.00029052915548
C   -3.65679823041642      4.97295655404175     -0.00047374852278
C   -4.89299899901461     -2.82519139505969      0.00006491824035
C   -2.47812801824129     -5.65356579800621     -0.00056571680280
C   -6.13477002348955      0.68054913825639     -0.00086464346868
C   -3.65678835334731     -4.97294365097028      0.00058578382008
C   -6.13476456307132     -0.68055354348201      0.00040575295444
H   5.83528897565761      3.36927626695423      0.00396712770529
H   7.07385965258860      1.22821762089947     -0.00037744837300
H   4.60066374401555      5.51238117445323     -0.00014522814529
H   5.83528386714679     -3.36930568472863     -0.00423551337640
H   -0.00001167146422      6.73853104613662     -0.00389474766392
H   7.07386165167227     -1.22822657074368     -0.00008250934481
H   2.47331421164041      6.74068466339473      0.00017162982210
H   4.60066897122302     -5.51237575717576      0.00039007446835
H   -2.47331820069565      6.74068209160650      0.00047297644710
H   -0.00000978838621     -6.73852780445195      0.00458867820736
H   -5.83530143450167      3.36927132229595      0.00410314985360
H   2.47330840367253     -6.74068500242887      0.00027980126949
H   -4.60067436136587      5.51237839860371      0.00002010017831
H   -5.83527902699321     -3.36928859177951     -0.00451481925734
H   -2.47329986759855     -6.74067870613986     -0.00016951527498
H   -7.07385728692578      1.22822084484047     -0.00046143985387
H   -4.60067330624313     -5.51236229778631      0.00021776644566
H   -7.07385645456741     -1.22822025997701     -0.00017736581114

    units angstrom      # Angstroms are the default
    no_reorient         # Geometry fixed, default
    symmetry c1         # C1 symmetry, default
}

set {
    scf_type DF         # Density fitting, faster than exact integrals
    freeze_core True    # Freeze core electrons
    basis jun-cc-pVDZ   # Jun-cc-pVDZ basis set, recommended for sSAPT0 in https://doi.org/10.1063/1.4867135
}

energy('ssapt0')        # Compute sSAPT0 energy, includes also SAPT0
--------------------------------------------------------------------------

  //              Dimer HF             //
    Molecular point group: c1
  Charge       = -1
  Multiplicity = 1
  Basis Set: JUN-CC-PVDZ
    Blend: JUN-CC-PVDZ
  Basis Set: (JUN-CC-PVDZ AUX)
    Blend: JUN-CC-PVDZ-JKFIT
  @DF-RHF Final Energy: -2478.66084656789462
    Total Energy =                      -2478.6608465678946231
 Dipole X            :         -0.0004205            0.0000481           -0.0003724
 Dipole Y            :          0.0008706           -0.0001453            0.0007253
 Dipole Z            :        -19.9957757           25.7475563            5.7517807
 Magnitude           :                                                    5.7517807
  //            Monomer A HF           //
    Molecular point group: c1
  Multiplicity = 1
  Basis Set: JUN-CC-PVDZ
    Blend: JUN-CC-PVDZ
  Basis Set: (JUN-CC-PVDZ AUX)
    Blend: JUN-CC-PVDZ-JKFIT
  @DF-RHF Final Energy:  -422.77254944660740
    Total Energy =                       -422.7725494466073997
  //            Monomer B HF           //
    Molecular point group: c1

    Geometry (in Angstrom), charge = 0, multiplicity = 1:

       Center              X                  Y                   Z               Mass
    ------------   -----------------  -----------------  -----------------  -----------------
      Gh(B)          -0.000198161052     0.000273808717    -3.714781183723    11.009305360000
      Gh(F)          -0.000000401852    -0.000000464183    -2.301996183723    18.998403162730
      Gh(F)           1.147859598148     0.675780735817    -4.185922183723    18.998403162730
      Gh(F)           0.011917658148    -1.332011464183    -4.185720183723    18.998403162730
      Gh(F)          -1.159666401852     0.656073035817    -4.185641183723    18.998403162730
         C            1.225311973413     0.707538196736     0.491322443561    12.000000000000
         C            1.225323934041    -0.707538986754     0.478991633991    12.000000000000
         C           -0.000006075942     1.414965821907     0.478458010470    12.000000000000
         C            2.456448831939     1.418327794995     0.494209300961    12.000000000000
         C            0.000010905269    -1.414976590818     0.488657567795    12.000000000000
         C           -1.225300870919     0.707545281801     0.493573963884    12.000000000000
         C            2.456437833310    -1.418323396064     0.476746477134    12.000000000000
         C           -0.000001254988     2.836800939098     0.476054460336    12.000000000000
         C            3.681826775460     0.709317863818     0.477095266932    12.000000000000
         C            2.455120126855     2.834223569306     0.476992709971    12.000000000000
         C            3.681821183209    -0.709333931612     0.493167750950    12.000000000000
         C           -1.225313520698    -0.707527607727     0.480064395418    12.000000000000
         C            1.226699659192     3.543469391811     0.493351782881    12.000000000000
         C            0.000004862847    -2.836782231419     0.493505735416    12.000000000000
         C           -2.456435954859     1.418316826102     0.493609359729    12.000000000000
         C            2.455123495769    -2.834230120772     0.493015842583    12.000000000000
         C           -1.226714286599     3.543468971567     0.493455116100    12.000000000000
         C            4.914517373191     1.427172780306     0.483575949961    12.000000000000
         C            3.693150269466     3.542795200362     0.483625749598    12.000000000000
         C           -2.456437522078    -1.418313373022     0.476721439009    12.000000000000
         C            1.226704919933    -3.543474334090     0.477381652131    12.000000000000
         C           -2.455125320518     2.834216570451     0.476999086317    12.000000000000
         C            4.914524458772    -1.427187002127     0.486548692696    12.000000000000
         C            1.221424691688     4.970133973077     0.486687126956    12.000000000000
         C            4.893008307311     2.825187907843     0.484792618320    12.000000000000
         C           -1.226696930499    -3.543471089260     0.477648856541    12.000000000000
         C           -3.681818898536     0.709324874549     0.477107947412    12.000000000000
         C            3.693147179140    -3.542801433574     0.486666583257    12.000000000000
         C           -1.221432174004     4.970128205680     0.486870622328    12.000000000000
         C            6.134771050916     0.680547854922     0.484345724511    12.000000000000
         C            3.656788958600     4.972953151384     0.484534387380    12.000000000000
         C           -2.455126829744    -2.834215185244     0.492771484785    12.000000000000
         C           -3.681819101071    -0.709325795652     0.493285372529    12.000000000000
         C            4.893012695903    -2.825200197815     0.485403770216    12.000000000000
         C           -0.000000995123     5.650447273849     0.485639313621    12.000000000000
         C            6.134775190322    -0.680554946258     0.485611045027    12.000000000000
         C            2.478131560845     5.653576659148     0.485823167030    12.000000000000
         C            1.221422482727    -4.970127147116     0.483887629933    12.000000000000
         C           -3.693162305975     3.542796862009     0.483791257057    12.000000000000
         C           -1.221428442955    -4.970118395779     0.483774868100    12.000000000000
         C           -4.914521729952     1.427175354812     0.483652894969    12.000000000000
         C            3.656787097669    -4.972955318422     0.485984887914    12.000000000000
         C           -2.478138452116     5.653574330345     0.486107692039    12.000000000000
         C           -3.693141660574    -3.542790311162     0.486550457101    12.000000000000
         C           -4.914512405063    -1.427181092211     0.486583389870    12.000000000000
         C           -0.000005930936    -5.650438379197     0.485243809500    12.000000000000
         C           -4.893020406111     2.825188506736     0.484782536460    12.000000000000
         C            2.478126071288    -5.653573636072     0.484894287122    12.000000000000
         C           -3.656798632268     4.972956089858     0.484711067755    12.000000000000
         C           -4.892999400866    -2.825191859243     0.485249734518    12.000000000000
         C           -2.478128420093    -5.653566262190     0.484619099475    12.000000000000
         C           -6.134770425341     0.680548674073     0.484320172809    12.000000000000
         C           -3.656788755199    -4.972944115154     0.485770600098    12.000000000000
         C           -6.134764964923    -0.680554007665     0.485590569232    12.000000000000
         H            5.835288573806     3.369275802771     0.489151943983     1.007825032230
         H            7.073859250737     1.228217156716     0.484807367904     1.007825032230
         H            4.600663342164     5.512380710270     0.485039588132     1.007825032230
         H            5.835283465295    -3.369306148912     0.480949302901     1.007825032230
         H           -0.000012073316     6.738530581953     0.481290068614     1.007825032230
         H            7.073861249820    -1.228227034927     0.485102306933     1.007825032230
         H            2.473313809789     6.740684199211     0.485356446100     1.007825032230
         H            4.600668569371    -5.512376221359     0.485574890746     1.007825032230
         H           -2.473318602548     6.740681627423     0.485657792725     1.007825032230
         H           -0.000010190238    -6.738528268635     0.489773494485     1.007825032230
         H           -5.835301836354     3.369270858113     0.489287966131     1.007825032230
         H            2.473308001821    -6.740685466612     0.485464617547     1.007825032230
         H           -4.600674763218     5.512377934420     0.485204916456     1.007825032230
         H           -5.835279428845    -3.369289055963     0.480669997020     1.007825032230
         H           -2.473300269450    -6.740679170323     0.485015301003     1.007825032230
         H           -7.073857688778     1.228220380657     0.484723376424     1.007825032230
         H           -4.600673708095    -5.512362761970     0.485402582723     1.007825032230
         H           -7.073856856419    -1.228220724160     0.485007450466     1.007825032230

  Charge       = 0
  Multiplicity = 1
  Basis Set: JUN-CC-PVDZ
    Blend: JUN-CC-PVDZ
  Basis Set: (JUN-CC-PVDZ AUX)
    Blend: JUN-CC-PVDZ-JKFIT

    Orbital Energies [Eh]
    ---------------------

    Doubly Occupied:

       1A    -11.260711     2A    -11.260259     3A    -11.260256
       4A    -11.259487     5A    -11.259486     6A    -11.259287
       7A    -11.259048     8A    -11.258978     9A    -11.258976
      10A    -11.258674    11A    -11.258670    12A    -11.258562
      13A    -11.258508    14A    -11.258508    15A    -11.258501
      16A    -11.258468    17A    -11.258461    18A    -11.258445
      19A    -11.258437    20A    -11.258432    21A    -11.258427
      22A    -11.258363    23A    -11.258359    24A    -11.258121
      25A    -11.257342    26A    -11.257281    27A    -11.257280
      28A    -11.257146    29A    -11.257145    30A    -11.257062
      31A    -11.256432    32A    -11.256362    33A    -11.256362
      34A    -11.256254    35A    -11.256253    36A    -11.256207
      37A    -11.252321    38A    -11.252321    39A    -11.252319
      40A    -11.252318    41A    -11.252316    42A    -11.252314
      43A    -11.251430    44A    -11.251427    45A    -11.251426
      46A    -11.251420    47A    -11.251420    48A    -11.251416
      49A    -11.250883    50A    -11.250882    51A    -11.250880
      52A    -11.250878    53A    -11.250877    54A    -11.250875
      55A     -1.244100    56A     -1.219858    57A     -1.219857
      58A     -1.189587    59A     -1.189580    60A     -1.180993
      61A     -1.157609    62A     -1.149024    63A     -1.135531
      64A     -1.135525    65A     -1.113240    66A     -1.113235
      67A     -1.082471    68A     -1.082463    69A     -1.078651
      70A     -1.066028    71A     -1.066024    72A     -1.039446
      73A     -1.024312    74A     -1.021811    75A     -1.021768
      76A     -1.017776    77A     -1.012843    78A     -0.987064
      79A     -0.987018    80A     -0.961927    81A     -0.961877
      82A     -0.894337    83A     -0.894310    84A     -0.887981
      85A     -0.886220    86A     -0.886162    87A     -0.881444
      88A     -0.881396    89A     -0.861944    90A     -0.837459
      91A     -0.818256    92A     -0.816649    93A     -0.812184
      94A     -0.812175    95A     -0.794736    96A     -0.794725
      97A     -0.746673    98A     -0.744898    99A     -0.733455
     100A     -0.733446   101A     -0.732231   102A     -0.732207
     103A     -0.716546   104A     -0.699021   105A     -0.699010
     106A     -0.693631   107A     -0.693615   108A     -0.661277
     109A     -0.653139   110A     -0.651190   111A     -0.650302
     112A     -0.650296   113A     -0.639408   114A     -0.639405
     115A     -0.629760   116A     -0.627569   117A     -0.627553
     118A     -0.606513   119A     -0.605856   120A     -0.601704
     121A     -0.599783   122A     -0.599752   123A     -0.593685
     124A     -0.591259   125A     -0.591248   126A     -0.585326
     127A     -0.576387   128A     -0.576381   129A     -0.567372
     130A     -0.567358   131A     -0.565994   132A     -0.565975
     133A     -0.558761   134A     -0.554891   135A     -0.554885
     136A     -0.538642   137A     -0.538640   138A     -0.538202
     139A     -0.538196   140A     -0.529766   141A     -0.528236
     142A     -0.522916   143A     -0.522910   144A     -0.500551
     145A     -0.495630   146A     -0.493282   147A     -0.487867
     148A     -0.485118   149A     -0.481804   150A     -0.481796
     151A     -0.470382   152A     -0.470364   153A     -0.451059
     154A     -0.450981   155A     -0.439107   156A     -0.439098
     157A     -0.404758   158A     -0.404735   159A     -0.403408
     160A     -0.375459   161A     -0.375457   162A     -0.349151
     163A     -0.337599   164A     -0.336622   165A     -0.336565
     166A     -0.311113   167A     -0.298145   168A     -0.284364
     169A     -0.284310   170A     -0.224948   171A     -0.224882

  @DF-RHF Final Energy: -2055.89315955378788

   => Energetics <=

    Nuclear Repulsion Energy =           6452.5568002797772351
    One-Electron Energy =              -15636.4684896767539612
    Two-Electron Energy =                7128.0185298431888441
    Total Energy =                      -2055.8931595537878820
 Dipole X            :          0.0000303            0.0000419            0.0000722
 Dipole Y            :          0.0000516           -0.0000426            0.0000091
 Dipole Z            :       -313.5649401          313.5668737            0.0019336
 Magnitude           :                                                    0.0019349

    SAPT Results
  --------------------------------------------------------------------------------------------------------
    Electrostatics                  9.86365525 [mEh]       6.18953711 [kcal/mol]      25.89702329 [kJ/mol]
      Elst10,r                      9.86365525 [mEh]       6.18953711 [kcal/mol]      25.89702329 [kJ/mol]

    Exchange                        7.02789057 [mEh]       4.41006791 [kcal/mol]      18.45172414 [kJ/mol]
      Exch10                        7.02789057 [mEh]       4.41006791 [kcal/mol]      18.45172414 [kJ/mol]
      Exch10(S^2)                   7.02603085 [mEh]       4.40890092 [kcal/mol]      18.44684147 [kJ/mol]

    Induction                     -12.02911331 [mEh]      -7.54838256 [kcal/mol]     -31.58243265 [kJ/mol]
      Ind20,r                     -13.35445437 [mEh]      -8.38004663 [kcal/mol]     -35.06211512 [kJ/mol]
      Exch-Ind20,r                  1.71275454 [mEh]       1.07476970 [kcal/mol]       4.49683641 [kJ/mol]
      delta HF,r (2)               -0.38741348 [mEh]      -0.24310563 [kcal/mol]      -1.01715394 [kJ/mol]

    Dispersion                     -6.72551967 [mEh]      -4.22032731 [kcal/mol]     -17.65784946 [kJ/mol]
      Disp20                       -7.61840437 [mEh]      -4.78062091 [kcal/mol]     -20.00211791 [kJ/mol]
      Exch-Disp20                   0.89288470 [mEh]       0.56029361 [kcal/mol]       2.34426845 [kJ/mol]
      Disp20 (SS)                  -3.80920218 [mEh]      -2.39031046 [kcal/mol]     -10.00105895 [kJ/mol]
      Disp20 (OS)                  -3.80920218 [mEh]      -2.39031046 [kcal/mol]     -10.00105895 [kJ/mol]
      Exch-Disp20 (SS)              0.51458380 [mEh]       0.32290621 [kcal/mol]       1.35103957 [kJ/mol]
      Exch-Disp20 (OS)              0.37830090 [mEh]       0.23738740 [kcal/mol]       0.99322888 [kJ/mol]

  Total HF                          4.86243250 [mEh]       3.05122246 [kcal/mol]      12.76631477 [kJ/mol]
  Total SAPT0                      -1.86308717 [mEh]      -1.16910485 [kcal/mol]      -4.89153469 [kJ/mol]

  Special recipe for scaled SAPT0 (see Manual):
    Electrostatics sSAPT0           9.86365525 [mEh]       6.18953711 [kcal/mol]      25.89702329 [kJ/mol]
    Exchange sSAPT0                 7.02789057 [mEh]       4.41006791 [kcal/mol]      18.45172414 [kJ/mol]
    Induction sSAPT0              -12.02775291 [mEh]      -7.54752890 [kcal/mol]     -31.57886092 [kJ/mol]
    Dispersion sSAPT0              -6.72481047 [mEh]      -4.21988228 [kcal/mol]     -17.65598746 [kJ/mol]
  Total sSAPT0                     -1.86101757 [mEh]      -1.16780616 [kcal/mol]      -4.88610096 [kJ/mol]
  --------------------------------------------------------------------------------------------------------

*** Psi4 exiting successfully. Buy a developer a beer!
