                               Psi4 1.9 release

  ==> Input File <==

--------------------------------------------------------------------------
memory 47 GB # how much memory is available ! Depends on the nodes/cores !

molecule dimer {
# monomer A
-1 1    # Charge and multiplicity
B -1.977592e-04  2.742729e-04 -2.799966
F  1.123153e-16  1.430594e-17 -1.387181
F  1.147860e+00  6.757812e-01 -3.271107
F  1.191806e-02 -1.332011e+00 -3.270905
F -1.159666e+00  6.560735e-01 -3.270826
--
# monomer B
0 1     # Charge and multiplicity
C   -3.66844126402057      7.80375217008252      0.00190004133558
C   -4.84759871934653      7.13124183134024     -0.00046653359696
C   -4.89495929917518      5.69633040353158     -0.00103944469517
C   -3.65374067877320      4.98073034095895      0.00662099703436
C   -2.40942512149445      7.11398103667468      0.00209438359570
C   -2.42547734410473      5.68112195090346     -0.00491050527438
C   -1.19474401643570      7.78614419430947      0.00356656413763
C   0.03795902893699      7.09942164575698      0.00139585983271
C   0.03033258741920      5.66948955970466     -0.00408752508301
C   -1.20098450790502      4.96927034791531      0.00488220885047
C   1.27795782581485      7.77285944319479      0.00277170839332
C   2.48535808472416      7.08769688523756      0.00049722048857
C   2.48612868491717      5.65477081024076     -0.00644052849921
C   1.25408291964399      4.95607811366431      0.00518741308898
C   3.75171459140595      7.76391215098033      0.00062407186893
C   4.92356605618520      7.07878077698995     -0.00143240883900
C   4.95560727132542      5.64344746336949     -0.00159282164606
C   3.70680153420475      4.94121020833308      0.00349873852374
H   -3.65852113775815      8.89082741913536      0.00358502958574
H   -1.18921332975660      8.87412108735996      0.00753844057883
H   1.28429423888630      8.86083343548850      0.00693053253426
H   3.75354208679975      8.85103527897216      0.00214659618464
H   5.86995870320703      7.61379483465560     -0.00235777588134
H   -5.78823170750226      7.67630221293400     -0.00202638095293
C   -6.09197395869619      4.99326001364347     -0.00291168518608
C   -6.12866148031747      3.58258016879823     -0.00171050815740
C   -3.66457974004527      3.56418217974434     -0.00463560277484
C   -4.89429820469869      2.86108077590057      0.00453338221034
C   -2.43733499489796      2.84761165708481      0.00719617576166
C   -1.20922785759670      3.54788693497833     -0.00648285103018
C   1.24714157216223      3.53468075142962     -0.00729145743546
C   0.01517603956900      2.83311183930540      0.00439272578912
C   2.46764517244071      2.82128997725533      0.00449278391269
C   3.70254947457969      3.52466015442405     -0.00899517692985
C   6.14498038638375      4.92757236613191     -0.00282626685777
C   6.16658835886151      3.51658447594213     -0.00065971342101
C   4.92460995845939      2.80840792535402      0.00587903281610
H   7.08990550964105      5.46688776622306     -0.00658814770723
H   -7.03104175110130      5.54268795285765     -0.00714490013730
C   -7.33969804112295      2.85841153457957     -0.00333767559888
C   -7.36488195805880      1.47032337158330     -0.00157213747140
C   -4.90350460894690      1.44442681216000     -0.00628840166334
C   -6.13225715261081      0.73993935705394      0.00600164231964
C   -3.67687480051673      0.72669714267312      0.00433931473643
C   -2.44565658606518      1.42964113326212     -0.00597039546461
C   -1.22360068130162      0.71532450163492      0.00545886906656
C   0.00763786931376      1.41738314923765      0.00392452278437
C   1.23121980774686      0.70211669058719     -0.01490206287210
C   2.46082110053113      1.40329203612573      0.00460244601878
C   3.68443025419614      0.68719842821222      0.00377365974158
C   4.91870890153864      1.39173456118907     -0.00862816189375
C   7.36980207796101      2.77948220318441     -0.00242013321349
C   7.38016266612146      1.39121750785509     -0.00087345036788
C   6.13979953912259      0.67411862320065      0.00545489144369
H   -8.27919079934664      3.40711804112415     -0.00763522772059
H   8.31511347147953      3.31811809662368     -0.00663070901292
C   -8.59175593758115      0.72483255304480     -0.00123170985383
C   -8.59902460370342     -0.63263980622873      0.00089141472904
C   -6.13981313911873     -0.67413663715361     -0.00609792660607
C   -7.38018411213749     -1.39126618958160      0.00131813493501
C   -4.91868448025621     -1.39175501803000      0.00624257154343
C   -3.68443829568458     -0.68723731573599     -0.00478966852105
C   -2.46081704024768     -1.40334517882457      0.00575341766833
C   -1.23116201232071     -0.70217386488055     -0.00636696112346
C   -0.00756962538737     -1.41741884941102      0.00108956317991
C   1.22364771588843     -0.71527537726392      0.01109518512883
C   2.44567064933149     -1.42964328900682     -0.00065482763106
C   3.67686670284649     -0.72670743155550     -0.00479541202602
C   6.13224884641929     -0.73997883984993     -0.00632338623858
C   4.90351914550401     -1.44445752054090      0.00751768830159
C   8.59901484869081      0.63260386666793     -0.00101133422380
C   8.59174548810050     -0.72485086719319      0.00072504603735
C   7.36486276438985     -1.47033266560598      0.00049486934466
H   -9.52830597181814      1.27684744919284     -0.00270163681798
H   9.54141097460619      1.17457248844457     -0.00206336648518
C   -7.36983790976868     -2.77954514593389      0.00312634335708
C   -4.92459910905015     -2.80843725734101     -0.00460528907921
C   -6.16662249566744     -3.51665219282533      0.00169655107992
C   -3.70251035970491     -3.52468154912026      0.00571878010666
C   -2.46764698511392     -2.82132596280400     -0.00632585824990
C   -0.01513347410770     -2.83314164539971     -0.00604426974092
C   -1.24712184122656     -3.53473217556300      0.00551968366725
C   1.20924506964357     -3.54791467864352      0.00805871345849
C   2.43733602215464     -2.84764173817541     -0.00608104485234
C   4.89430234377080     -2.86112296828604     -0.00526030478103
C   3.66461525504104     -3.56421984553201      0.00761911515957
C   6.12863901474565     -3.58258405771778      0.00096495711699
C   7.33967266469532     -2.85841330737039      0.00248018319869
H   -9.54144911125902     -1.17456346666430      0.00226083090216
H   9.52826186807155     -1.27691907390448      0.00197485379837
H   -8.31516504384864     -3.31814985321231      0.00729857188773
H   8.27915514249207     -3.40714078989363      0.00681973918158
C   -6.14499418870218     -4.92764727278338      0.00302254913999
C   -3.70678334799751     -4.94126171411716     -0.00679841894792
C   -4.95559005800169     -5.64349397349412      0.00116871569699
C   -2.48612132622665     -5.65478557440947      0.00614125209662
C   -1.25405833548005     -4.95612205000132     -0.00503435388927
C   1.20101257386816     -4.96928038819302     -0.00385322963129
C   -0.03033667441341     -5.66952030313900      0.00398997003238
C   3.65375010132847     -4.98074377541453     -0.00309522988330
C   2.42549269587528     -5.68117463552727      0.00628170066869
C   6.09196561781097     -4.99325796338655      0.00325918379042
C   4.89497644461045     -5.69634842095790      0.00202298796027
H   -7.08989238804069     -5.46699984223871      0.00742531082125
H   7.03105520920009     -5.54265853633254      0.00683896355417
C   -4.92354532219813     -7.07882109967734      0.00061394679214
C   -2.48534208823777     -7.08772807792913     -0.00189594564379
C   -3.75168589177895     -7.76394715763627     -0.00170126671874
C   -0.03794895698805     -7.09946487446944     -0.00168022049625
C   -1.27795610040136     -7.77290438466689     -0.00366491325785
C   2.40944432072629     -7.11402201200282     -0.00081701968533
C   1.19474993715296     -7.78618536556242     -0.00296931056689
C   4.84762105249800     -7.13126211057943      0.00168979497423
C   3.66847160587561     -7.80378799294376     -0.00065863938960
H   -5.86994035041618     -7.61383059804164      0.00215798365757
H   5.78824962538815     -7.67633218931421      0.00281691445618
H   -3.75352693944918     -8.85107156923607     -0.00353718114765
H   -1.28430440589466     -8.86087539249706     -0.00809229711623
H   1.18922157469537     -8.87416062058945     -0.00706194725726
H   3.65854661482387     -8.89086063405326     -0.00231318081200

    units angstrom      # Angstroms are the default
    no_reorient         # Geometry fixed, default
    symmetry c1         # C1 symmetry, default
}

set {
    scf_type DF         # Density fitting, faster than exact integrals
    freeze_core True    # Freeze core electrons
    basis jun-cc-pVDZ   # Jun-cc-pVDZ basis set, recommended for sSAPT0 in https://doi.org/10.1063/1.4867135
}

energy('ssapt0')        # Compute sSAPT0 energy, includes also SAPT0
--------------------------------------------------------------------------

  //              Dimer HF             //
    Molecular point group: c1
  Charge       = -1
  Multiplicity = 1
  Basis Set: JUN-CC-PVDZ
    Blend: JUN-CC-PVDZ
  Basis Set: (JUN-CC-PVDZ AUX)
    Blend: JUN-CC-PVDZ-JKFIT
  @DF-RHF Final Energy: -4072.91790861674008
    Total Energy =                      -4072.9179086167387140
 Dipole X            :          0.0005456           -0.0000548            0.0004909
 Dipole Y            :          0.0000660           -0.0002464           -0.0001804
 Dipole Z            :        -13.6430788           16.6627898            3.0197109
 Magnitude           :                                                    3.0197110
  //            Monomer A HF           //
    Molecular point group: c1
  Multiplicity = 1
  Basis Set: JUN-CC-PVDZ
    Blend: JUN-CC-PVDZ
  Basis Set: (JUN-CC-PVDZ AUX)
    Blend: JUN-CC-PVDZ-JKFIT
  @DF-RHF Final Energy:  -422.77630083420701
    Total Energy =                       -422.7763008342070066
  //            Monomer B HF           //
    Molecular point group: c1

    Geometry (in Angstrom), charge = 0, multiplicity = 1:

       Center              X                  Y                   Z               Mass
    ------------   -----------------  -----------------  -----------------  -----------------
      Gh(B)          -0.000201921932     0.000288800891    -2.607117677536    11.009305360000
      Gh(F)          -0.000004162732     0.000014527991    -1.194332677536    18.998403162730
      Gh(F)           1.147855837268     0.675795727991    -3.078258677536    18.998403162730
      Gh(F)           0.011913897268    -1.331996472009    -3.078056677536    18.998403162730
      Gh(F)          -1.159670162732     0.656088027991    -3.077977677536    18.998403162730
         C           -3.668445426752     7.803766698073     0.194748363800    12.000000000000
         C           -4.847602882078     7.131256359331     0.192381788867    12.000000000000
         C           -4.894963461907     5.696344931522     0.191808877769    12.000000000000
         C           -3.653744841505     4.980744868950     0.199469319499    12.000000000000
         C           -2.409429284226     7.113995564665     0.194942706060    12.000000000000
         C           -2.425481506836     5.681136478894     0.187937817190    12.000000000000
         C           -1.194748179167     7.786158722300     0.196414886602    12.000000000000
         C            0.037954866205     7.099436173748     0.194244182297    12.000000000000
         C            0.030328424687     5.669504087695     0.188760797381    12.000000000000
         C           -1.200988670637     4.969284875906     0.197730531315    12.000000000000
         C            1.277953663083     7.772873971185     0.195620030858    12.000000000000
         C            2.485353921992     7.087711413228     0.193345542953    12.000000000000
         C            2.486124522185     5.654785338231     0.186407793965    12.000000000000
         C            1.254078756912     4.956092641655     0.198035735553    12.000000000000
         C            3.751710428674     7.763926678971     0.193472394333    12.000000000000
         C            4.923561893453     7.078795304981     0.191415913625    12.000000000000
         C            4.955603108594     5.643461991360     0.191255500818    12.000000000000
         C            3.706797371473     4.941224736324     0.196347060988    12.000000000000
         H           -3.658525300490     8.890841947126     0.196433352050     1.007825032230
         H           -1.189217492488     8.874135615351     0.200386763043     1.007825032230
         H            1.284290076155     8.860847963479     0.199778854998     1.007825032230
         H            3.753537924068     8.851049806963     0.194994918649     1.007825032230
         H            5.869954540475     7.613809362646     0.190490546583     1.007825032230
         H           -5.788235870234     7.676316740925     0.190821941511     1.007825032230
         C           -6.091978121428     4.993274541634     0.189936637278    12.000000000000
         C           -6.128665643049     3.582594696789     0.191137814307    12.000000000000
         C           -3.664583902777     3.564196707735     0.188212719689    12.000000000000
         C           -4.894302367430     2.861095303891     0.197381704675    12.000000000000
         C           -2.437339157630     2.847626185075     0.200044498226    12.000000000000
         C           -1.209232020328     3.547901462969     0.186365471434    12.000000000000
         C            1.247137409430     3.534695279420     0.185556865029    12.000000000000
         C            0.015171876837     2.833126367296     0.197241048253    12.000000000000
         C            2.467641009709     2.821304505246     0.197341106377    12.000000000000
         C            3.702545311848     3.524674682415     0.183853145534    12.000000000000
         C            6.144976223652     4.927586894122     0.190022055606    12.000000000000
         C            6.166584196130     3.516599003933     0.192188609043    12.000000000000
         C            4.924605795728     2.808422453345     0.198727355280    12.000000000000
         H            7.089901346909     5.466902294214     0.186260174757     1.007825032230
         H           -7.031045913833     5.542702480848     0.185703422327     1.007825032230
         C           -7.339702203855     2.858426062570     0.189510646865    12.000000000000
         C           -7.364886120791     1.470337899574     0.191276184993    12.000000000000
         C           -4.903508771679     1.444441340151     0.186559920801    12.000000000000
         C           -6.132261315343     0.739953885044     0.198849964784    12.000000000000
         C           -3.676878963248     0.726711670664     0.197187637201    12.000000000000
         C           -2.445660748797     1.429655661253     0.186877927000    12.000000000000
         C           -1.223604844033     0.715339029625     0.198307191531    12.000000000000
         C            0.007633706582     1.417397677228     0.196772845249    12.000000000000
         C            1.231215645015     0.702131218578     0.177946259592    12.000000000000
         C            2.460816937799     1.403306564116     0.197450768483    12.000000000000
         C            3.684426091464     0.687212956203     0.196621982206    12.000000000000
         C            4.918704738807     1.391749089180     0.184220160570    12.000000000000
         C            7.369797915229     2.779496731175     0.190428189251    12.000000000000
         C            7.380158503390     1.391232035846     0.191974872096    12.000000000000
         C            6.139795376391     0.674133151191     0.198303213908    12.000000000000
         H           -8.279194962078     3.407132569115     0.185213094744     1.007825032230
         H            8.315109308748     3.318132624614     0.186217613451     1.007825032230
         C           -8.591760100313     0.724847081035     0.191616612610    12.000000000000
         C           -8.599028766435    -0.632625278238     0.193739737193    12.000000000000
         C           -6.139817301850    -0.674122109163     0.186750395858    12.000000000000
         C           -7.380188274869    -1.391251661591     0.194166457399    12.000000000000
         C           -4.918688642988    -1.391740490039     0.199090894008    12.000000000000
         C           -3.684442458416    -0.687222787745     0.188058653943    12.000000000000
         C           -2.460821202979    -1.403330650834     0.198601740133    12.000000000000
         C           -1.231166175052    -0.702159336890     0.186481361341    12.000000000000
         C           -0.007573788119    -1.417404321420     0.193937885644    12.000000000000
         C            1.223643553157    -0.715260849273     0.203943507593    12.000000000000
         C            2.445666486600    -1.429628761016     0.192193494833    12.000000000000
         C            3.676862540115    -0.726692903565     0.188052910438    12.000000000000
         C            6.132244683688    -0.739964311859     0.186524936226    12.000000000000
         C            4.903514982772    -1.444442992550     0.200366010766    12.000000000000
         C            8.599010685959     0.632618394658     0.191836988240    12.000000000000
         C            8.591741325369    -0.724836339203     0.193573368502    12.000000000000
         C            7.364858601658    -1.470318137615     0.193343191809    12.000000000000
         H           -9.528310134550     1.276861977183     0.190146685646     1.007825032230
         H            9.541406811874     1.174587016435     0.190784955979     1.007825032230
         C           -7.369842072500    -2.779530617943     0.195974665821    12.000000000000
         C           -4.924603271782    -2.808422729350     0.188243033385    12.000000000000
         C           -6.166626658399    -3.516637664835     0.194544873544    12.000000000000
         C           -3.702514522437    -3.524667021130     0.198567102571    12.000000000000
         C           -2.467651147846    -2.821311434813     0.186522464214    12.000000000000
         C           -0.015137636839    -2.833127117409     0.186804052723    12.000000000000
         C           -1.247126003958    -3.534717647572     0.198368006131    12.000000000000
         C            1.209240906912    -3.547900150653     0.200907035923    12.000000000000
         C            2.437331859423    -2.847627210185     0.186767277612    12.000000000000
         C            4.894298181039    -2.861108440295     0.187588017683    12.000000000000
         C            3.664611092309    -3.564205317541     0.200467437624    12.000000000000
         C            6.128634852014    -3.582569529727     0.193813279581    12.000000000000
         C            7.339668501964    -2.858398779380     0.195328505663    12.000000000000
         H           -9.541453273991    -1.174548938674     0.195109153366     1.007825032230
         H            9.528257705340    -1.276904545914     0.194823176263     1.007825032230
         H           -8.315169206580    -3.318135325222     0.200146894352     1.007825032230
         H            8.279150979760    -3.407126261903     0.199668061646     1.007825032230
         C           -6.144998351434    -4.927632744793     0.195870871604    12.000000000000
         C           -3.706787510729    -4.941247186127     0.186049903516    12.000000000000
         C           -4.955594220733    -5.643479445504     0.194017038161    12.000000000000
         C           -2.486125488958    -5.654771046419     0.198989574561    12.000000000000
         C           -1.254062498212    -4.956107522011     0.187813968575    12.000000000000
         C            1.201008411136    -4.969265860202     0.188995092833    12.000000000000
         C           -0.030340837145    -5.669505775148     0.196838292497    12.000000000000
         C            3.653745938597    -4.980729247424     0.189753092581    12.000000000000
         C            2.425488533144    -5.681160107537     0.199130023133    12.000000000000
         C            6.091961455079    -4.993243435396     0.196107506255    12.000000000000
         C            4.894972281879    -5.696333892967     0.194871310424    12.000000000000
         H           -7.089896550772    -5.466985314248     0.200273633285     1.007825032230
         H            7.031051046468    -5.542644008342     0.199687286018     1.007825032230
         C           -4.923549484930    -7.078806571687     0.193462269256    12.000000000000
         C           -2.485346250970    -7.087713549939     0.190952376820    12.000000000000
         C           -3.751690054511    -7.763932629646     0.191147055745    12.000000000000
         C           -0.037953119720    -7.099450346479     0.191168101968    12.000000000000
         C           -1.277960263133    -7.772889856676     0.189183409206    12.000000000000
         C            2.409440157995    -7.114007484012     0.192031302779    12.000000000000
         C            1.194745774421    -7.786170837572     0.189879011897    12.000000000000
         C            4.847616889766    -7.131247582589     0.194538117438    12.000000000000
         C            3.668467443144    -7.803773464953     0.192189683075    12.000000000000
         H           -5.869944513148    -7.613816070051     0.195006306122     1.007825032230
         H            5.788245462656    -7.676317661324     0.195665236920     1.007825032230
         H           -3.753531102181    -8.851057041246     0.189311141317     1.007825032230
         H           -1.284308568626    -8.860860864507     0.184756025348     1.007825032230
         H            1.189217411964    -8.874146092599     0.185786375207     1.007825032230
         H            3.658542452092    -8.890846106063     0.190535141652     1.007825032230

  Charge       = 0
  Multiplicity = 1
  Basis Set: JUN-CC-PVDZ
    Blend: JUN-CC-PVDZ
  Basis Set: (JUN-CC-PVDZ AUX)
    Blend: JUN-CC-PVDZ-JKFIT

    Orbital Energies [Eh]
    ---------------------

    Doubly Occupied:

       1A    -11.264043     2A    -11.263683     3A    -11.263678
       4A    -11.263265     5A    -11.263263     6A    -11.263230
       7A    -11.263078     8A    -11.263076     9A    -11.263073
      10A    -11.262847    11A    -11.262719    12A    -11.262715
      13A    -11.262227    14A    -11.262224    15A    -11.262195
      16A    -11.262195    17A    -11.262089    18A    -11.262085
      19A    -11.262038    20A    -11.262000    21A    -11.261998
      22A    -11.261886    23A    -11.261882    24A    -11.261737
      25A    -11.261731    26A    -11.261711    27A    -11.261703
      28A    -11.261664    29A    -11.261656    30A    -11.261561
      31A    -11.261540    32A    -11.261536    33A    -11.261516
      34A    -11.261507    35A    -11.261504    36A    -11.261483
      37A    -11.261322    38A    -11.261314    39A    -11.261308
      40A    -11.261303    41A    -11.261297    42A    -11.261293
      43A    -11.261273    44A    -11.261255    45A    -11.261251
      46A    -11.261227    47A    -11.261225    48A    -11.261218
      49A    -11.261029    50A    -11.260995    51A    -11.260992
      52A    -11.260913    53A    -11.260910    54A    -11.260851
      55A    -11.259901    56A    -11.259888    57A    -11.259885
      58A    -11.259855    59A    -11.259854    60A    -11.259837
      61A    -11.259272    62A    -11.259247    63A    -11.259243
      64A    -11.259191    65A    -11.259188    66A    -11.259159
      67A    -11.258903    68A    -11.258885    69A    -11.258883
      70A    -11.258855    71A    -11.258852    72A    -11.258840
      73A    -11.254523    74A    -11.254521    75A    -11.254517
      76A    -11.254516    77A    -11.254516    78A    -11.254514
      79A    -11.253642    80A    -11.253642    81A    -11.253640
      82A    -11.253639    83A    -11.253635    84A    -11.253634
      85A    -11.253558    86A    -11.253557    87A    -11.253555
      88A    -11.253554    89A    -11.253550    90A    -11.253550
      91A    -11.253051    92A    -11.253049    93A    -11.253045
      94A    -11.253045    95A    -11.253043    96A    -11.253042
      97A     -1.253862    98A     -1.238956    99A     -1.238954
     100A     -1.220439   101A     -1.220434   102A     -1.215352
     103A     -1.201025   104A     -1.195586   105A     -1.188078
     106A     -1.188076   107A     -1.173749   108A     -1.173746
     109A     -1.155583   110A     -1.155579   111A     -1.152629
     112A     -1.144709   113A     -1.144706   114A     -1.128534
     115A     -1.114671   116A     -1.113144   117A     -1.112414
     118A     -1.112400   119A     -1.111608   120A     -1.088394
     121A     -1.088379   122A     -1.076945   123A     -1.076944
     124A     -1.067574   125A     -1.067545   126A     -1.064902
     127A     -1.046774   128A     -1.046766   129A     -1.040448
     130A     -1.038721   131A     -1.038719   132A     -1.025190
     133A     -1.021299   134A     -1.021249   135A     -1.007155
     136A     -1.006785   137A     -1.003769   138A     -1.000443
     139A     -1.000395   140A     -0.991062   141A     -0.970943
     142A     -0.970895   143A     -0.955861   144A     -0.955805
     145A     -0.905538   146A     -0.905529   147A     -0.905498
     148A     -0.905487   149A     -0.904247   150A     -0.892306
     151A     -0.892247   152A     -0.890312   153A     -0.890254
     154A     -0.889418   155A     -0.872195   156A     -0.869048
     157A     -0.851518   158A     -0.847813   159A     -0.847791
     160A     -0.845549   161A     -0.842983   162A     -0.834538
     163A     -0.834525   164A     -0.828095   165A     -0.828092
     166A     -0.784518   167A     -0.784506   168A     -0.783611
     169A     -0.783585   170A     -0.782247   171A     -0.782227
     172A     -0.781979   173A     -0.766968   174A     -0.760732
     175A     -0.750517   176A     -0.733465   177A     -0.727040
     178A     -0.727026   179A     -0.725048   180A     -0.724516
     181A     -0.724498   182A     -0.718428   183A     -0.713711
     184A     -0.713704   185A     -0.699544   186A     -0.699532
     187A     -0.686049   188A     -0.685937   189A     -0.685934
     190A     -0.682151   191A     -0.682141   192A     -0.678720
     193A     -0.653587   194A     -0.650832   195A     -0.650802
     196A     -0.649751   197A     -0.649735   198A     -0.649544
     199A     -0.640858   200A     -0.640831   201A     -0.640067
     202A     -0.639146   203A     -0.635972   204A     -0.635945
     205A     -0.629110   206A     -0.617730   207A     -0.615284
     208A     -0.615264   209A     -0.608773   210A     -0.608767
     211A     -0.599107   212A     -0.599073   213A     -0.598699
     214A     -0.598567   215A     -0.598545   216A     -0.597969
     217A     -0.595045   218A     -0.595032   219A     -0.594688
     220A     -0.594167   221A     -0.591909   222A     -0.591906
     223A     -0.587328   224A     -0.577782   225A     -0.577772
     226A     -0.575637   227A     -0.575633   228A     -0.573357
     229A     -0.569585   230A     -0.568070   231A     -0.568047
     232A     -0.566712   233A     -0.566701   234A     -0.560898
     235A     -0.558670   236A     -0.558652   237A     -0.558410
     238A     -0.554333   239A     -0.550529   240A     -0.547461
     241A     -0.544241   242A     -0.535010   243A     -0.534973
     244A     -0.533497   245A     -0.533476   246A     -0.528050
     247A     -0.528035   248A     -0.527728   249A     -0.517096
     250A     -0.517062   251A     -0.515330   252A     -0.515324
     253A     -0.509618   254A     -0.509602   255A     -0.497999
     256A     -0.496413   257A     -0.496386   258A     -0.493742
     259A     -0.493731   260A     -0.489451   261A     -0.481428
     262A     -0.477399   263A     -0.477396   264A     -0.473966
     265A     -0.469401   266A     -0.466485   267A     -0.466480
     268A     -0.458760   269A     -0.446611   270A     -0.446551
     271A     -0.441002   272A     -0.440756   273A     -0.440730
     274A     -0.434667   275A     -0.433891   276A     -0.407337
     277A     -0.407313   278A     -0.386353   279A     -0.386304
     280A     -0.385716   281A     -0.385715   282A     -0.383724
     283A     -0.354307   284A     -0.354290   285A     -0.350617
     286A     -0.338028   287A     -0.335521   288A     -0.335452
     289A     -0.332692   290A     -0.332685   291A     -0.307006
     292A     -0.301873   293A     -0.301811   294A     -0.300834
     295A     -0.286138   296A     -0.256458   297A     -0.253418
     298A     -0.253365   299A     -0.204226   300A     -0.204137

  @DF-RHF Final Energy: -3650.34084311123752

   => Energetics <=

    Nuclear Repulsion Energy =          15611.4211649754324753
    One-Electron Energy =              -36072.1678461539777345
    Two-Electron Energy =               16810.4058380673086504
    Total Energy =                      -3650.3408431112366088
 Dipole X            :          0.0004091            0.0002304            0.0006396
 Dipole Y            :          0.0014059           -0.0013052            0.0001007
 Dipole Z            :       -218.6621910          218.6616998           -0.0004911
 Magnitude           :                                                    0.0008126

    SAPT Results
  --------------------------------------------------------------------------------------------------------
    Electrostatics               -159.74483026 [mEh]    -100.24139438 [kcal/mol]    -419.40999407 [kJ/mol]
      Elst10,r                   -159.74483026 [mEh]    -100.24139438 [kcal/mol]    -419.40999407 [kJ/mol]

    Exchange                      401.27684944 [mEh]     251.80502463 [kcal/mol]    1053.55222305 [kJ/mol]
      Exch10                      401.27684944 [mEh]     251.80502463 [kcal/mol]    1053.55222305 [kJ/mol]
      Exch10(S^2)                 385.40433680 [mEh]     241.84487258 [kcal/mol]    1011.87894687 [kJ/mol]

    Induction                     -42.29669047 [mEh]     -26.54157398 [kcal/mol]    -111.04994553 [kJ/mol]
      Ind20,r                    -228.02127553 [mEh]    -143.08551062 [kcal/mol]    -598.66977643 [kJ/mol]
      Exch-Ind20,r                167.67730961 [mEh]     105.21910032 [kcal/mol]     440.23671574 [kJ/mol]
      delta HF,r (2)               18.04727545 [mEh]      11.32483632 [kcal/mol]      47.38311516 [kJ/mol]

    Dispersion                    -48.48454313 [mEh]     -30.42451015 [kcal/mol]    -127.29615046 [kJ/mol]
      Disp20                      -73.95231264 [mEh]     -46.40577679 [kcal/mol]    -194.16177009 [kJ/mol]
      Exch-Disp20                  25.46776951 [mEh]      15.98126664 [kcal/mol]      66.86561963 [kJ/mol]
      Disp20 (SS)                 -36.97615632 [mEh]     -23.20288839 [kcal/mol]     -97.08088504 [kJ/mol]
      Disp20 (OS)                 -36.97615632 [mEh]     -23.20288839 [kcal/mol]     -97.08088504 [kJ/mol]
      Exch-Disp20 (SS)             12.79796382 [mEh]       8.03084354 [kcal/mol]      33.60104938 [kJ/mol]
      Exch-Disp20 (OS)             12.66980569 [mEh]       7.95042310 [kcal/mol]      33.26457025 [kJ/mol]

  Total HF                        199.23532870 [mEh]     125.02205627 [kcal/mol]     523.09228345 [kJ/mol]
  Total SAPT0                     150.75078557 [mEh]      94.59754613 [kcal/mol]     395.79613299 [kJ/mol]

  Special recipe for scaled SAPT0 (see Manual):
    Electrostatics sSAPT0        -159.74483026 [mEh]    -100.24139438 [kcal/mol]    -419.40999407 [kJ/mol]
    Exchange sSAPT0               401.27684944 [mEh]     251.80502463 [kcal/mol]    1053.55222305 [kJ/mol]
    Induction sSAPT0              -20.71487838 [mEh]     -12.99878243 [kcal/mol]     -54.38690570 [kJ/mol]
    Dispersion sSAPT0             -45.20657656 [mEh]     -28.36755507 [kcal/mol]    -118.68985041 [kJ/mol]
  Total sSAPT0                    175.61056423 [mEh]     110.19729275 [kcal/mol]     461.06547287 [kJ/mol]
  --------------------------------------------------------------------------------------------------------

*** Psi4 exiting successfully. Buy a developer a beer!
