                               Psi4 1.9 release

  ==> Input File <==

--------------------------------------------------------------------------
memory 32 GB # how much memory is available ! Depends on the nodes/cores !

molecule dimer {
# monomer A
+1 1    # Charge and multiplicity
C  0.680067 1.417258 -11.215929
C -0.680504 1.419286 -11.215545
N -1.085635 1.420284  -9.897221
C  0.000108 1.423560  -9.115820
C -2.477365 1.469690  -9.429242
N  1.085222 1.420284  -9.897221
H  1.385146 1.409430 -12.033368
H -1.385302 1.419096 -12.033214
H -0.000009 1.425307  -8.034731
C  2.478117 1.403392  -9.432123
H  2.490592 1.430737  -8.341870
H  2.967028 0.489946  -9.779299
H  3.001428 2.278875  -9.823595
H -2.857359 2.491761  -9.509201
H -3.082679 0.799606 -10.042306
H -2.518128 1.142706  -8.389294
--
# monomer B
0 1     # Charge and multiplicity
C   1.22531237526482      0.70753866091955      0.00613762728373
C   1.22532433589282     -0.70753852257020     -0.00619318228664
C   -0.00000567409046      1.41496628609039     -0.00672680580738
C   2.45644923379077      1.41832825917820      0.00902448468363
C   0.00001130712078     -1.41497612663474      0.00347275151708
C   -1.22530046906674      0.70754574598412      0.00838914760619
C   2.45643823516184     -1.41832293188077     -0.00843833914343
C   -0.00000085313587      2.83680140328112     -0.00913035594137
C   3.68182717731192      0.70931832800114     -0.00808954934571
C   2.45512052870677      2.83422403348893     -0.00819210630633
C   3.68182158506039     -0.70933346742900      0.00798293467272
C   -1.22531311884624     -0.70752714354401     -0.00512042085974
C   1.22670006104402      3.54346985599427      0.00816696660346
C   0.00000526469929     -2.83678176723568      0.00832091913869
C   -2.45643555300670      1.41831729028492      0.00842454345199
C   2.45512389762097     -2.83422965658853      0.00783102630520
C   -1.22671388474763      3.54346943575023      0.00827029982280
C   4.91451777504333      1.42717324448953     -0.00160886631602
C   3.69315067131765      3.54279566454522     -0.00155906667985
C   -2.45643712022637     -1.41831290883911     -0.00846337726810
C   1.22670532178455     -3.54347386990643     -0.00780316414624
C   -2.45512491866593      2.83421703463423     -0.00818572995999
C   4.91452486062398     -1.42718653794377      0.00136387641845
C   1.22142509354026      4.97013443726031      0.00150231067809
C   4.89300870916237      2.82518837202648     -0.00039219795739
C   -1.22669652864725     -3.54347062507680     -0.00753595973677
C   -3.68181849668397      0.70932533873199     -0.00807686886569
C   3.69314758099218     -3.54280096939050      0.00148176697923
C   -1.22143177215231      4.97012866986289      0.00168580605083
C   6.13477145276790      0.68054831910577     -0.00083909176631
C   3.65678936045204      4.97295361556775     -0.00065042889723
C   -2.45512642789169     -2.83421472106065      0.00758666850712
C   -3.68181869921921     -0.70932533146830      0.00810055625144
C   4.89301309775526     -2.82519973363176      0.00021895393805
C   -0.00000059327114      5.65044773803267      0.00045449734393
C   6.13477559217374     -0.68055448207492      0.00042622874941
C   2.47813196269732      5.65357712333155      0.00063835075260
C   1.22142288457925     -4.97012668293268     -0.00129718634452
C   -3.69316190412301      3.54279732619245     -0.00139355922051
C   -1.22142804110313     -4.97011793159564     -0.00140994817719
C   -4.91452132810043      1.42717581899491     -0.00153192130862
C   3.65678749952045     -4.97295485423912      0.00080007163680
C   -2.47813805026426      5.65357479452875      0.00092287576113
C   -3.69314125872231     -3.54278984697859      0.00136564082345
C   -4.91451200321153     -1.42718062802730      0.00139857359209
C   -0.00000552908399     -5.65043791501335      0.00005899322272
C   -4.89302000425900      2.82518897091939     -0.00040227981744
C   2.47812647313991     -5.65357317188818     -0.00029052915548
C   -3.65679823041642      4.97295655404175     -0.00047374852278
C   -4.89299899901461     -2.82519139505969      0.00006491824035
C   -2.47812801824129     -5.65356579800621     -0.00056571680280
C   -6.13477002348955      0.68054913825639     -0.00086464346868
C   -3.65678835334731     -4.97294365097028      0.00058578382008
C   -6.13476456307132     -0.68055354348201      0.00040575295444
H   5.83528897565761      3.36927626695423      0.00396712770529
H   7.07385965258860      1.22821762089947     -0.00037744837300
H   4.60066374401555      5.51238117445323     -0.00014522814529
H   5.83528386714679     -3.36930568472863     -0.00423551337640
H   -0.00001167146422      6.73853104613662     -0.00389474766392
H   7.07386165167227     -1.22822657074368     -0.00008250934481
H   2.47331421164041      6.74068466339473      0.00017162982210
H   4.60066897122302     -5.51237575717576      0.00039007446835
H   -2.47331820069565      6.74068209160650      0.00047297644710
H   -0.00000978838621     -6.73852780445195      0.00458867820736
H   -5.83530143450167      3.36927132229595      0.00410314985360
H   2.47330840367253     -6.74068500242887      0.00027980126949
H   -4.60067436136587      5.51237839860371      0.00002010017831
H   -5.83527902699321     -3.36928859177951     -0.00451481925734
H   -2.47329986759855     -6.74067870613986     -0.00016951527498
H   -7.07385728692578      1.22822084484047     -0.00046143985387
H   -4.60067330624313     -5.51236229778631      0.00021776644566
H   -7.07385645456741     -1.22822025997701     -0.00017736581114

    units angstrom      # Angstroms are the default
    no_reorient         # Geometry fixed, default
    symmetry c1         # C1 symmetry, default
}

set {
    scf_type DF         # Density fitting, faster than exact integrals
    freeze_core True    # Freeze core electrons
    basis jun-cc-pVDZ   # Jun-cc-pVDZ basis set, recommended for sSAPT0 in https://doi.org/10.1063/1.4867135
}

energy('ssapt0')        # Compute sSAPT0 energy, includes also SAPT0
--------------------------------------------------------------------------

  //              Dimer HF             //
    Molecular point group: c1
  Charge       = 1
  Multiplicity = 1
  Basis Set: JUN-CC-PVDZ
    Blend: JUN-CC-PVDZ
  Basis Set: (JUN-CC-PVDZ AUX)
    Blend: JUN-CC-PVDZ-JKFIT
  @DF-RHF Final Energy: -2359.19365216222786
    Total Energy =                      -2359.1936521622283180
 Dipole X            :         -0.0010194            0.0006313           -0.0003881
 Dipole Y            :         -5.3749037            7.4856329            2.1107293
 Dipole Z            :         34.7347345          -50.2399237          -15.5051892
 Magnitude           :                                                   15.6481970
  //            Monomer A HF           //
    Molecular point group: c1
  Multiplicity = 1
  Basis Set: JUN-CC-PVDZ
    Blend: JUN-CC-PVDZ
  Basis Set: (JUN-CC-PVDZ AUX)
    Blend: JUN-CC-PVDZ-JKFIT
  @DF-RHF Final Energy:  -303.29716743425331
    Total Energy =                       -303.2971674342533106
  //            Monomer B HF           //
    Molecular point group: c1

    Geometry (in Angstrom), charge = 0, multiplicity = 1:

       Center              X                  Y                   Z               Mass
    ------------   -----------------  -----------------  -----------------  -----------------
      Gh(C)           0.680066520158     1.235968212970    -9.943992628160    12.000000000000
      Gh(C)          -0.680504479842     1.237996212970    -9.943608628160    12.000000000000
      Gh(N)          -1.085635479842     1.238994212970    -8.625284628160    14.003074004430
      Gh(C)           0.000107520158     1.242270212970    -7.843883628160    12.000000000000
      Gh(C)          -2.477365479842     1.288400212970    -8.157305628160    12.000000000000
      Gh(N)           1.085221520158     1.238994212970    -8.625284628160    14.003074004430
      Gh(H)           1.385145520158     1.228140212970   -10.761431628160     1.007825032230
      Gh(H)          -1.385302479842     1.237806212970   -10.761277628160     1.007825032230
      Gh(H)          -0.000009479842     1.244017212970    -6.762794628160     1.007825032230
      Gh(C)           2.478116520158     1.222102212970    -8.160186628160    12.000000000000
      Gh(H)           2.490591520158     1.249447212970    -7.069933628160     1.007825032230
      Gh(H)           2.967027520158     0.308656212970    -8.507362628160     1.007825032230
      Gh(H)           3.001427520158     2.097585212970    -8.551658628160     1.007825032230
      Gh(H)          -2.857359479842     2.310471212970    -8.237264628160     1.007825032230
      Gh(H)          -3.082679479842     0.618316212970    -8.770369628160     1.007825032230
      Gh(H)          -2.518128479842     0.961416212970    -7.117357628160     1.007825032230
         C            1.225311895423     0.526248873889     1.278073999124    12.000000000000
         C            1.225323856051    -0.888828309601     1.265743189553    12.000000000000
         C           -0.000006153932     1.233676499060     1.265209566033    12.000000000000
         C            2.456448753949     1.237038472148     1.280960856524    12.000000000000
         C            0.000010827279    -1.596265913665     1.275409123357    12.000000000000
         C           -1.225300948908     0.526255958954     1.280325519446    12.000000000000
         C            2.456437755320    -1.599612718911     1.263498032697    12.000000000000
         C           -0.000001332978     2.655511616251     1.262806015899    12.000000000000
         C            3.681826697470     0.528028540971     1.263846822494    12.000000000000
         C            2.455120048865     2.652934246459     1.263744265534    12.000000000000
         C            3.681821105219    -0.890623254459     1.279919306513    12.000000000000
         C           -1.225313598688    -0.888816930574     1.266815950980    12.000000000000
         C            1.226699581202     3.362180068964     1.280103338443    12.000000000000
         C            0.000004784858    -3.018071554266     1.280257290979    12.000000000000
         C           -2.456436032848     1.237027503255     1.280360915292    12.000000000000
         C            2.455123417779    -3.015519443619     1.279767398145    12.000000000000
         C           -1.226714364589     3.362179648720     1.280206671663    12.000000000000
         C            4.914517295202     1.245883457459     1.270327505524    12.000000000000
         C            3.693150191476     3.361505877515     1.270377305160    12.000000000000
         C           -2.456437600068    -1.599602695869     1.263472994572    12.000000000000
         C            1.226704841943    -3.724763656937     1.264133207694    12.000000000000
         C           -2.455125398508     2.652927247604     1.263750641880    12.000000000000
         C            4.914524380782    -1.608476324974     1.273300248258    12.000000000000
         C            1.221424613699     4.788844650230     1.273438682518    12.000000000000
         C            4.893008229321     2.643898584996     1.271544173883    12.000000000000
         C           -1.226697008489    -3.724760412107     1.264400412103    12.000000000000
         C           -3.681818976526     0.528035551702     1.263859502974    12.000000000000
         C            3.693147101150    -3.724090756421     1.273418138819    12.000000000000
         C           -1.221432251994     4.788838882833     1.273622177891    12.000000000000
         C            6.134770972926     0.499258532075     1.271097280074    12.000000000000
         C            3.656788880610     4.791663828537     1.271285942943    12.000000000000
         C           -2.455126907733    -3.015504508091     1.279523040347    12.000000000000
         C           -3.681819179061    -0.890615118499     1.280036928091    12.000000000000
         C            4.893012617914    -3.006489520662     1.272155325778    12.000000000000
         C           -0.000001073113     5.469157951002     1.272390869184    12.000000000000
         C            6.134775112332    -0.861844269105     1.272362600589    12.000000000000
         C            2.478131482856     5.472287336301     1.272574722593    12.000000000000
         C            1.221422404738    -5.151416469963     1.270639185495    12.000000000000
         C           -3.693162383965     3.361507539162     1.270542812619    12.000000000000
         C           -1.221428520945    -5.151407718626     1.270526423663    12.000000000000
         C           -4.914521807942     1.245886031965     1.270404450531    12.000000000000
         C            3.656787019679    -5.154244641269     1.272736443477    12.000000000000
         C           -2.478138530106     5.472285007498     1.272859247601    12.000000000000
         C           -3.693141738564    -3.724079634009     1.273302012663    12.000000000000
         C           -4.914512483053    -1.608470415058     1.273334945432    12.000000000000
         C           -0.000006008926    -5.831727702044     1.271995365063    12.000000000000
         C           -4.893020484101     2.643899183889     1.271534092023    12.000000000000
         C            2.478125993298    -5.834862958919     1.271645842685    12.000000000000
         C           -3.656798710258     4.791666767011     1.271462623317    12.000000000000
         C           -4.892999478856    -3.006481182090     1.272001290080    12.000000000000
         C           -2.478128498083    -5.834855585037     1.271370655037    12.000000000000
         C           -6.134770503331     0.499259351226     1.271071728371    12.000000000000
         C           -3.656788833189    -5.154233438001     1.272522155660    12.000000000000
         C           -6.134765042913    -0.861843330512     1.272342124794    12.000000000000
         H            5.835288495816     3.187986479924     1.275903499545     1.007825032230
         H            7.073859172747     1.046927833869     1.271558923467     1.007825032230
         H            4.600663264174     5.331091387423     1.271791143695     1.007825032230
         H            5.835283387305    -3.550595471759     1.267700858464     1.007825032230
         H           -0.000012151306     6.557241259106     1.268041624176     1.007825032230
         H            7.073861171831    -1.409516357774     1.271853862495     1.007825032230
         H            2.473313731799     6.559394876364     1.272108001662     1.007825032230
         H            4.600668491381    -5.693665544206     1.272326446308     1.007825032230
         H           -2.473318680537     6.559392304576     1.272409348287     1.007825032230
         H           -0.000010268228    -6.919817591482     1.276525050047     1.007825032230
         H           -5.835301914343     3.187981535266     1.276039521694     1.007825032230
         H            2.473307923831    -6.921974789459     1.272216173109     1.007825032230
         H           -4.600674841208     5.331088611573     1.271956472018     1.007825032230
         H           -5.835279506835    -3.550578378810     1.267421552583     1.007825032230
         H           -2.473300347440    -6.921968493170     1.271766856565     1.007825032230
         H           -7.073857766768     1.046931057810     1.271474931986     1.007825032230
         H           -4.600673786085    -5.693652084817     1.272154138286     1.007825032230
         H           -7.073856934409    -1.409510047007     1.271759006029     1.007825032230

  Charge       = 0
  Multiplicity = 1
  Basis Set: JUN-CC-PVDZ
    Blend: JUN-CC-PVDZ
  Basis Set: (JUN-CC-PVDZ AUX)
    Blend: JUN-CC-PVDZ-JKFIT

    Orbital Energies [Eh]
    ---------------------

    Doubly Occupied:

       1A    -11.260682     2A    -11.260239     3A    -11.260237
       4A    -11.259527     5A    -11.259526     6A    -11.259357
       7A    -11.259147     8A    -11.259069     9A    -11.259068
      10A    -11.258744    11A    -11.258740    12A    -11.258671
      13A    -11.258608    14A    -11.258603    15A    -11.258600
      16A    -11.258571    17A    -11.258566    18A    -11.258549
      19A    -11.258536    20A    -11.258531    21A    -11.258526
      22A    -11.258428    23A    -11.258425    24A    -11.258127
      25A    -11.257466    26A    -11.257404    27A    -11.257403
      28A    -11.257269    29A    -11.257268    30A    -11.257184
      31A    -11.256562    32A    -11.256491    33A    -11.256490
      34A    -11.256381    35A    -11.256381    36A    -11.256333
      37A    -11.252406    38A    -11.252405    39A    -11.252404
      40A    -11.252402    41A    -11.252400    42A    -11.252398
      43A    -11.251541    44A    -11.251539    45A    -11.251538
      46A    -11.251532    47A    -11.251531    48A    -11.251527
      49A    -11.250968    50A    -11.250967    51A    -11.250965
      52A    -11.250963    53A    -11.250961    54A    -11.250960
      55A     -1.244306    56A     -1.220024    57A     -1.220022
      58A     -1.189732    59A     -1.189724    60A     -1.181176
      61A     -1.157731    62A     -1.149163    63A     -1.135715
      64A     -1.135709    65A     -1.113364    66A     -1.113360
      67A     -1.082639    68A     -1.082632    69A     -1.078823
      70A     -1.066147    71A     -1.066144    72A     -1.039588
      73A     -1.024501    74A     -1.022006    75A     -1.021963
      76A     -1.017896    77A     -1.012958    78A     -0.987232
      79A     -0.987186    80A     -0.962059    81A     -0.962009
      82A     -0.894477    83A     -0.894451    84A     -0.888178
      85A     -0.886424    86A     -0.886366    87A     -0.881611
      88A     -0.881564    89A     -0.862083    90A     -0.837559
      91A     -0.818400    92A     -0.816844    93A     -0.812351
      94A     -0.812342    95A     -0.794864    96A     -0.794853
      97A     -0.746850    98A     -0.745076    99A     -0.733645
     100A     -0.733636   101A     -0.732363   102A     -0.732339
     103A     -0.716711   104A     -0.699159   105A     -0.699149
     106A     -0.693786   107A     -0.693771   108A     -0.661409
     109A     -0.653346   110A     -0.651392   111A     -0.650426
     112A     -0.650421   113A     -0.639539   114A     -0.639536
     115A     -0.629925   116A     -0.627736   117A     -0.627721
     118A     -0.606464   119A     -0.605941   120A     -0.601878
     121A     -0.599929   122A     -0.599898   123A     -0.593834
     124A     -0.591468   125A     -0.591457   126A     -0.585427
     127A     -0.576423   128A     -0.576417   129A     -0.567487
     130A     -0.567472   131A     -0.566178   132A     -0.566158
     133A     -0.558953   134A     -0.555033   135A     -0.555027
     136A     -0.538769   137A     -0.538767   138A     -0.538295
     139A     -0.538289   140A     -0.529906   141A     -0.528211
     142A     -0.523061   143A     -0.523054   144A     -0.500678
     145A     -0.495725   146A     -0.493417   147A     -0.487954
     148A     -0.485277   149A     -0.481958   150A     -0.481950
     151A     -0.470445   152A     -0.470427   153A     -0.451265
     154A     -0.451187   155A     -0.439196   156A     -0.439186
     157A     -0.404877   158A     -0.404854   159A     -0.403498
     160A     -0.375550   161A     -0.375547   162A     -0.349255
     163A     -0.337724   164A     -0.336692   165A     -0.336635
     166A     -0.311231   167A     -0.298217   168A     -0.284489
     169A     -0.284435   170A     -0.225056   171A     -0.224991

  @DF-RHF Final Energy: -2055.89157955416613

   => Energetics <=

    Nuclear Repulsion Energy =           6452.5568002797781446
    One-Electron Energy =              -15636.4232281197291741
    Two-Electron Energy =                7127.9748482857858107
    Total Energy =                      -2055.8915795541661282
 Dipole X            :          0.0001050           -0.0000085            0.0000964
 Dipole Y            :        117.1648543         -117.1648546           -0.0000003
 Dipole Z            :       -822.0336101          822.0336530            0.0000430
 Magnitude           :                                                    0.0001056

    SAPT Results
  --------------------------------------------------------------------------------------------------------
    Electrostatics                 -4.11581937 [mEh]      -2.58271564 [kcal/mol]     -10.80608226 [kJ/mol]
      Elst10,r                     -4.11581937 [mEh]      -2.58271564 [kcal/mol]     -10.80608226 [kJ/mol]

    Exchange                       -0.00001335 [mEh]      -0.00000838 [kcal/mol]      -0.00003505 [kJ/mol]
      Exch10                       -0.00001335 [mEh]      -0.00000838 [kcal/mol]      -0.00003505 [kJ/mol]
      Exch10(S^2)                  -0.00001335 [mEh]      -0.00000838 [kcal/mol]      -0.00003505 [kJ/mol]

    Induction                      -0.78934109 [mEh]      -0.49531901 [kcal/mol]      -2.07241475 [kJ/mol]
      Ind20,r                      -0.78393514 [mEh]      -0.49192673 [kcal/mol]      -2.05822144 [kJ/mol]
      Exch-Ind20,r                  0.00000433 [mEh]       0.00000271 [kcal/mol]       0.00001136 [kJ/mol]
      delta HF,r (2)               -0.00541027 [mEh]      -0.00339500 [kcal/mol]      -0.01420467 [kJ/mol]

    Dispersion                     -0.23461424 [mEh]      -0.14722266 [kcal/mol]      -0.61597960 [kJ/mol]
      Disp20                       -0.23461619 [mEh]      -0.14722388 [kcal/mol]      -0.61598473 [kJ/mol]
      Exch-Disp20                   0.00000196 [mEh]       0.00000123 [kcal/mol]       0.00000514 [kJ/mol]
      Disp20 (SS)                  -0.11730810 [mEh]      -0.07361194 [kcal/mol]      -0.30799237 [kJ/mol]
      Disp20 (OS)                  -0.11730810 [mEh]      -0.07361194 [kcal/mol]      -0.30799237 [kJ/mol]
      Exch-Disp20 (SS)              0.00000146 [mEh]       0.00000092 [kcal/mol]       0.00000384 [kJ/mol]
      Exch-Disp20 (OS)              0.00000049 [mEh]       0.00000031 [kcal/mol]       0.00000129 [kJ/mol]

  Total HF                         -4.90517381 [mEh]      -3.07804304 [kcal/mol]     -12.87853206 [kJ/mol]
  Total SAPT0                      -5.13978805 [mEh]      -3.22526569 [kcal/mol]     -13.49451166 [kJ/mol]

  Special recipe for scaled SAPT0 (see Manual):
    Electrostatics sSAPT0          -4.11581937 [mEh]      -2.58271564 [kcal/mol]     -10.80608226 [kJ/mol]
    Exchange sSAPT0                -0.00001335 [mEh]      -0.00000838 [kcal/mol]      -0.00003505 [kJ/mol]
    Induction sSAPT0               -0.78934109 [mEh]      -0.49531901 [kcal/mol]      -2.07241475 [kJ/mol]
    Dispersion sSAPT0              -0.23461424 [mEh]      -0.14722266 [kcal/mol]      -0.61597960 [kJ/mol]
  Total sSAPT0                     -5.13978805 [mEh]      -3.22526569 [kcal/mol]     -13.49451166 [kJ/mol]
  --------------------------------------------------------------------------------------------------------

*** Psi4 exiting successfully. Buy a developer a beer!
