                               Psi4 1.9 release

  ==> Input File <==

--------------------------------------------------------------------------
memory 64 GB # how much memory is available ! Depends on the nodes/cores !

molecule dimer {
# monomer A
+1 1    # Charge and multiplicity
C  0.680067 -0.008042 -5.215929
C -0.680504 -0.006014 -5.215545
N -1.085635 -0.005016 -3.897221
C  0.000108 -0.001740 -3.115820
C -2.477365  0.044390 -3.429242
N  1.085222 -0.005016 -3.897221
H  1.385146 -0.015870 -6.033368
H -1.385302 -0.006204 -6.033214
H -0.000009  0.000007 -2.034731
C  2.478117 -0.021908 -3.432123
H  2.490592  0.005437 -2.341870
H  2.967028 -0.935354 -3.779299
H  3.001428  0.853575 -3.823595
H -2.857359  1.066461 -3.509201
H -3.082679 -0.625694 -4.042306
H -2.518128 -0.282594 -2.389294
--
# monomer B
0 1     # Charge and multiplicity
C   -3.66844126402057      7.80375217008252      0.00190004133558
C   -4.84759871934653      7.13124183134024     -0.00046653359696
C   -4.89495929917518      5.69633040353158     -0.00103944469517
C   -3.65374067877320      4.98073034095895      0.00662099703436
C   -2.40942512149445      7.11398103667468      0.00209438359570
C   -2.42547734410473      5.68112195090346     -0.00491050527438
C   -1.19474401643570      7.78614419430947      0.00356656413763
C   0.03795902893699      7.09942164575698      0.00139585983271
C   0.03033258741920      5.66948955970466     -0.00408752508301
C   -1.20098450790502      4.96927034791531      0.00488220885047
C   1.27795782581485      7.77285944319479      0.00277170839332
C   2.48535808472416      7.08769688523756      0.00049722048857
C   2.48612868491717      5.65477081024076     -0.00644052849921
C   1.25408291964399      4.95607811366431      0.00518741308898
C   3.75171459140595      7.76391215098033      0.00062407186893
C   4.92356605618520      7.07878077698995     -0.00143240883900
C   4.95560727132542      5.64344746336949     -0.00159282164606
C   3.70680153420475      4.94121020833308      0.00349873852374
H   -3.65852113775815      8.89082741913536      0.00358502958574
H   -1.18921332975660      8.87412108735996      0.00753844057883
H   1.28429423888630      8.86083343548850      0.00693053253426
H   3.75354208679975      8.85103527897216      0.00214659618464
H   5.86995870320703      7.61379483465560     -0.00235777588134
H   -5.78823170750226      7.67630221293400     -0.00202638095293
C   -6.09197395869619      4.99326001364347     -0.00291168518608
C   -6.12866148031747      3.58258016879823     -0.00171050815740
C   -3.66457974004527      3.56418217974434     -0.00463560277484
C   -4.89429820469869      2.86108077590057      0.00453338221034
C   -2.43733499489796      2.84761165708481      0.00719617576166
C   -1.20922785759670      3.54788693497833     -0.00648285103018
C   1.24714157216223      3.53468075142962     -0.00729145743546
C   0.01517603956900      2.83311183930540      0.00439272578912
C   2.46764517244071      2.82128997725533      0.00449278391269
C   3.70254947457969      3.52466015442405     -0.00899517692985
C   6.14498038638375      4.92757236613191     -0.00282626685777
C   6.16658835886151      3.51658447594213     -0.00065971342101
C   4.92460995845939      2.80840792535402      0.00587903281610
H   7.08990550964105      5.46688776622306     -0.00658814770723
H   -7.03104175110130      5.54268795285765     -0.00714490013730
C   -7.33969804112295      2.85841153457957     -0.00333767559888
C   -7.36488195805880      1.47032337158330     -0.00157213747140
C   -4.90350460894690      1.44442681216000     -0.00628840166334
C   -6.13225715261081      0.73993935705394      0.00600164231964
C   -3.67687480051673      0.72669714267312      0.00433931473643
C   -2.44565658606518      1.42964113326212     -0.00597039546461
C   -1.22360068130162      0.71532450163492      0.00545886906656
C   0.00763786931376      1.41738314923765      0.00392452278437
C   1.23121980774686      0.70211669058719     -0.01490206287210
C   2.46082110053113      1.40329203612573      0.00460244601878
C   3.68443025419614      0.68719842821222      0.00377365974158
C   4.91870890153864      1.39173456118907     -0.00862816189375
C   7.36980207796101      2.77948220318441     -0.00242013321349
C   7.38016266612146      1.39121750785509     -0.00087345036788
C   6.13979953912259      0.67411862320065      0.00545489144369
H   -8.27919079934664      3.40711804112415     -0.00763522772059
H   8.31511347147953      3.31811809662368     -0.00663070901292
C   -8.59175593758115      0.72483255304480     -0.00123170985383
C   -8.59902460370342     -0.63263980622873      0.00089141472904
C   -6.13981313911873     -0.67413663715361     -0.00609792660607
C   -7.38018411213749     -1.39126618958160      0.00131813493501
C   -4.91868448025621     -1.39175501803000      0.00624257154343
C   -3.68443829568458     -0.68723731573599     -0.00478966852105
C   -2.46081704024768     -1.40334517882457      0.00575341766833
C   -1.23116201232071     -0.70217386488055     -0.00636696112346
C   -0.00756962538737     -1.41741884941102      0.00108956317991
C   1.22364771588843     -0.71527537726392      0.01109518512883
C   2.44567064933149     -1.42964328900682     -0.00065482763106
C   3.67686670284649     -0.72670743155550     -0.00479541202602
C   6.13224884641929     -0.73997883984993     -0.00632338623858
C   4.90351914550401     -1.44445752054090      0.00751768830159
C   8.59901484869081      0.63260386666793     -0.00101133422380
C   8.59174548810050     -0.72485086719319      0.00072504603735
C   7.36486276438985     -1.47033266560598      0.00049486934466
H   -9.52830597181814      1.27684744919284     -0.00270163681798
H   9.54141097460619      1.17457248844457     -0.00206336648518
C   -7.36983790976868     -2.77954514593389      0.00312634335708
C   -4.92459910905015     -2.80843725734101     -0.00460528907921
C   -6.16662249566744     -3.51665219282533      0.00169655107992
C   -3.70251035970491     -3.52468154912026      0.00571878010666
C   -2.46764698511392     -2.82132596280400     -0.00632585824990
C   -0.01513347410770     -2.83314164539971     -0.00604426974092
C   -1.24712184122656     -3.53473217556300      0.00551968366725
C   1.20924506964357     -3.54791467864352      0.00805871345849
C   2.43733602215464     -2.84764173817541     -0.00608104485234
C   4.89430234377080     -2.86112296828604     -0.00526030478103
C   3.66461525504104     -3.56421984553201      0.00761911515957
C   6.12863901474565     -3.58258405771778      0.00096495711699
C   7.33967266469532     -2.85841330737039      0.00248018319869
H   -9.54144911125902     -1.17456346666430      0.00226083090216
H   9.52826186807155     -1.27691907390448      0.00197485379837
H   -8.31516504384864     -3.31814985321231      0.00729857188773
H   8.27915514249207     -3.40714078989363      0.00681973918158
C   -6.14499418870218     -4.92764727278338      0.00302254913999
C   -3.70678334799751     -4.94126171411716     -0.00679841894792
C   -4.95559005800169     -5.64349397349412      0.00116871569699
C   -2.48612132622665     -5.65478557440947      0.00614125209662
C   -1.25405833548005     -4.95612205000132     -0.00503435388927
C   1.20101257386816     -4.96928038819302     -0.00385322963129
C   -0.03033667441341     -5.66952030313900      0.00398997003238
C   3.65375010132847     -4.98074377541453     -0.00309522988330
C   2.42549269587528     -5.68117463552727      0.00628170066869
C   6.09196561781097     -4.99325796338655      0.00325918379042
C   4.89497644461045     -5.69634842095790      0.00202298796027
H   -7.08989238804069     -5.46699984223871      0.00742531082125
H   7.03105520920009     -5.54265853633254      0.00683896355417
C   -4.92354532219813     -7.07882109967734      0.00061394679214
C   -2.48534208823777     -7.08772807792913     -0.00189594564379
C   -3.75168589177895     -7.76394715763627     -0.00170126671874
C   -0.03794895698805     -7.09946487446944     -0.00168022049625
C   -1.27795610040136     -7.77290438466689     -0.00366491325785
C   2.40944432072629     -7.11402201200282     -0.00081701968533
C   1.19474993715296     -7.78618536556242     -0.00296931056689
C   4.84762105249800     -7.13126211057943      0.00168979497423
C   3.66847160587561     -7.80378799294376     -0.00065863938960
H   -5.86994035041618     -7.61383059804164      0.00215798365757
H   5.78824962538815     -7.67633218931421      0.00281691445618
H   -3.75352693944918     -8.85107156923607     -0.00353718114765
H   -1.28430440589466     -8.86087539249706     -0.00809229711623
H   1.18922157469537     -8.87416062058945     -0.00706194725726
H   3.65854661482387     -8.89086063405326     -0.00231318081200

    units angstrom      # Angstroms are the default
    no_reorient         # Geometry fixed, default
    symmetry c1         # C1 symmetry, default
}

set {
    scf_type DF         # Density fitting, faster than exact integrals
    freeze_core True    # Freeze core electrons
    basis jun-cc-pVDZ   # Jun-cc-pVDZ basis set, recommended for sSAPT0 in https://doi.org/10.1063/1.4867135
}

energy('ssapt0')        # Compute sSAPT0 energy, includes also SAPT0
--------------------------------------------------------------------------

  //              Dimer HF             //
    Molecular point group: c1
  Charge       = 1
  Multiplicity = 1
  Basis Set: JUN-CC-PVDZ
    Blend: JUN-CC-PVDZ
  Basis Set: (JUN-CC-PVDZ AUX)
    Blend: JUN-CC-PVDZ-JKFIT
  @DF-RHF Final Energy: -3953.65335138598221
    Total Energy =                      -3953.6533513859831146
 Dipole X            :         -0.0014796            0.0004804           -0.0009992
 Dipole Y            :         -0.0511794            0.0561130            0.0049336
 Dipole Z            :         17.8038337          -22.4066341           -4.6028004
 Magnitude           :                                                    4.6028032
  //            Monomer A HF           //
    Molecular point group: c1
  Multiplicity = 1
  Basis Set: JUN-CC-PVDZ
    Blend: JUN-CC-PVDZ
  Basis Set: (JUN-CC-PVDZ AUX)
    Blend: JUN-CC-PVDZ-JKFIT
  @DF-RHF Final Energy:  -303.29855829086995
    Total Energy =                       -303.2985582908699485
  //            Monomer B HF           //
    Molecular point group: c1

    Geometry (in Angstrom), charge = 0, multiplicity = 1:

       Center              X                  Y                   Z               Mass
    ------------   -----------------  -----------------  -----------------  -----------------
      Gh(C)           0.680062820275    -0.008027535675    -4.910965675448    12.000000000000
      Gh(C)          -0.680508179725    -0.005999535675    -4.910581675448    12.000000000000
      Gh(N)          -1.085639179725    -0.005001535675    -3.592257675448    14.003074004430
      Gh(C)           0.000103820275    -0.001725535675    -2.810856675448    12.000000000000
      Gh(C)          -2.477369179725     0.044404464325    -3.124278675448    12.000000000000
      Gh(N)           1.085217820275    -0.005001535675    -3.592257675448    14.003074004430
      Gh(H)           1.385141820275    -0.015855535675    -5.728404675448     1.007825032230
      Gh(H)          -1.385306179725    -0.006189535675    -5.728250675448     1.007825032230
      Gh(H)          -0.000013179725     0.000021464325    -1.729767675448     1.007825032230
      Gh(C)           2.478112820275    -0.021893535675    -3.127159675448    12.000000000000
      Gh(H)           2.490587820275     0.005451464325    -2.036906675448     1.007825032230
      Gh(H)           2.967023820275    -0.935339535675    -3.474335675448     1.007825032230
      Gh(H)           3.001423820275     0.853589464325    -3.518631675448     1.007825032230
      Gh(H)          -2.857363179725     1.066475464325    -3.204237675448     1.007825032230
      Gh(H)          -3.082683179725    -0.625679535675    -3.737342675448     1.007825032230
      Gh(H)          -2.518132179725    -0.282579535675    -2.084330675448     1.007825032230
         C           -3.668445443746     7.803766634408     0.306863365888    12.000000000000
         C           -4.847602899072     7.131256295665     0.304496790955    12.000000000000
         C           -4.894963478901     5.696344867857     0.303923879857    12.000000000000
         C           -3.653744858499     4.980744805284     0.311584321587    12.000000000000
         C           -2.409429301220     7.113995501000     0.307057708148    12.000000000000
         C           -2.425481523830     5.681136415228     0.300052819278    12.000000000000
         C           -1.194748196161     7.786158658634     0.308529888690    12.000000000000
         C            0.037954849212     7.099436110082     0.306359184385    12.000000000000
         C            0.030328407694     5.669504024030     0.300875799469    12.000000000000
         C           -1.200988687630     4.969284812240     0.309845533403    12.000000000000
         C            1.277953646089     7.772873907520     0.307735032946    12.000000000000
         C            2.485353904999     7.087711349563     0.305460545041    12.000000000000
         C            2.486124505192     5.654785274566     0.298522796053    12.000000000000
         C            1.254078739919     4.956092577989     0.310150737641    12.000000000000
         C            3.751710411681     7.763926615305     0.305587396421    12.000000000000
         C            4.923561876460     7.078795241315     0.303530915713    12.000000000000
         C            4.955603091600     5.643461927694     0.303370502906    12.000000000000
         C            3.706797354479     4.941224672658     0.308462063076    12.000000000000
         H           -3.658525317484     8.890841883460     0.308548354138     1.007825032230
         H           -1.189217509482     8.874135551685     0.312501765131     1.007825032230
         H            1.284290059161     8.860847899813     0.311893857087     1.007825032230
         H            3.753537907074     8.851049743297     0.307109920737     1.007825032230
         H            5.869954523482     7.613809298981     0.302605548671     1.007825032230
         H           -5.788235887228     7.676316677259     0.302936943599     1.007825032230
         C           -6.091978138422     4.993274477968     0.302051639366    12.000000000000
         C           -6.128665660043     3.582594633123     0.303252816395    12.000000000000
         C           -3.664583919771     3.564196644069     0.300327721777    12.000000000000
         C           -4.894302384424     2.861095240226     0.309496706763    12.000000000000
         C           -2.437339174623     2.847626121410     0.312159500314    12.000000000000
         C           -1.209232037322     3.547901399303     0.298480473522    12.000000000000
         C            1.247137392437     3.534695215755     0.297671867117    12.000000000000
         C            0.015171859844     2.833126303630     0.309356050341    12.000000000000
         C            2.467640992715     2.821304441580     0.309456108465    12.000000000000
         C            3.702545294854     3.524674618749     0.295968147622    12.000000000000
         C            6.144976206658     4.927586830457     0.302137057694    12.000000000000
         C            6.166584179136     3.516598940267     0.304303611131    12.000000000000
         C            4.924605778734     2.808422389679     0.310842357368    12.000000000000
         H            7.089901329916     5.466902230548     0.298375176845     1.007825032230
         H           -7.031045930827     5.542702417183     0.297818424415     1.007825032230
         C           -7.339702220848     2.858425998905     0.301625648953    12.000000000000
         C           -7.364886137784     1.470337835908     0.303391187081    12.000000000000
         C           -4.903508788672     1.444441276485     0.298674922889    12.000000000000
         C           -6.132261332336     0.739953821379     0.310964966872    12.000000000000
         C           -3.676878980242     0.726711606998     0.309302639289    12.000000000000
         C           -2.445660765791     1.429655597587     0.298992929088    12.000000000000
         C           -1.223604861027     0.715338965960     0.310422193619    12.000000000000
         C            0.007633689588     1.417397613563     0.308887847337    12.000000000000
         C            1.231215628021     0.702131154912     0.290061261680    12.000000000000
         C            2.460816920806     1.403306500451     0.309565770571    12.000000000000
         C            3.684426074471     0.687212892537     0.308736984294    12.000000000000
         C            4.918704721813     1.391749025514     0.296335162659    12.000000000000
         C            7.369797898236     2.779496667509     0.302543191339    12.000000000000
         C            7.380158486396     1.391231972180     0.304089874184    12.000000000000
         C            6.139795359397     0.674133087526     0.310418215996    12.000000000000
         H           -8.279194979072     3.407132505449     0.297328096832     1.007825032230
         H            8.315109291754     3.318132560949     0.298332615539     1.007825032230
         C           -8.591760117307     0.724847017370     0.303731614698    12.000000000000
         C           -8.599028783429    -0.632625341904     0.305854739281    12.000000000000
         C           -6.139817318844    -0.674122172829     0.298865397946    12.000000000000
         C           -7.380188291863    -1.391251725257     0.306281459487    12.000000000000
         C           -4.918688659982    -1.391740553705     0.311205896096    12.000000000000
         C           -3.684442475410    -0.687222851411     0.300173656031    12.000000000000
         C           -2.460821219973    -1.403330714500     0.310716742221    12.000000000000
         C           -1.231166192046    -0.702159400556     0.298596363429    12.000000000000
         C           -0.007573805113    -1.417404385086     0.306052887732    12.000000000000
         C            1.223643536163    -0.715260912939     0.316058509681    12.000000000000
         C            2.445666469606    -1.429628824682     0.304308496921    12.000000000000
         C            3.676862523121    -0.726692967231     0.300167912526    12.000000000000
         C            6.132244666694    -0.739964375525     0.298639938314    12.000000000000
         C            4.903514965779    -1.444443056216     0.312481012854    12.000000000000
         C            8.599010668965     0.632618330993     0.303951990328    12.000000000000
         C            8.591741308375    -0.724836402868     0.305688370590    12.000000000000
         C            7.364858584664    -1.470318201281     0.305458193897    12.000000000000
         H           -9.528310151544     1.276861913518     0.302261687734     1.007825032230
         H            9.541406794881     1.174586952770     0.302899958067     1.007825032230
         C           -7.369842089494    -2.779530681609     0.308089667909    12.000000000000
         C           -4.924603288776    -2.808422793016     0.300358035473    12.000000000000
         C           -6.166626675393    -3.516637728500     0.306659875632    12.000000000000
         C           -3.702514539430    -3.524667084795     0.310682104659    12.000000000000
         C           -2.467651164839    -2.821311498479     0.298637466302    12.000000000000
         C           -0.015137653833    -2.833127181075     0.298919054811    12.000000000000
         C           -1.247126020952    -3.534717711238     0.310483008220    12.000000000000
         C            1.209240889918    -3.547900214319     0.313022038011    12.000000000000
         C            2.437331842429    -2.847627273850     0.298882279700    12.000000000000
         C            4.894298164045    -2.861108503961     0.299703019771    12.000000000000
         C            3.664611075316    -3.564205381207     0.312582439712    12.000000000000
         C            6.128634835020    -3.582569593393     0.305928281669    12.000000000000
         C            7.339668484970    -2.858398843045     0.307443507751    12.000000000000
         H           -9.541453290984    -1.174549002339     0.307224155454     1.007825032230
         H            9.528257688346    -1.276904609579     0.306938178351     1.007825032230
         H           -8.315169223574    -3.318135388887     0.312261896440     1.007825032230
         H            8.279150962767    -3.407126325569     0.311783063734     1.007825032230
         C           -6.144998368428    -4.927632808458     0.307985873692    12.000000000000
         C           -3.706787527723    -4.941247249792     0.298164905604    12.000000000000
         C           -4.955594237727    -5.643479509169     0.306132040249    12.000000000000
         C           -2.486125505952    -5.654771110084     0.311104576649    12.000000000000
         C           -1.254062515205    -4.956107585676     0.299928970663    12.000000000000
         C            1.201008394143    -4.969265923868     0.301110094921    12.000000000000
         C           -0.030340854139    -5.669505838814     0.308953294585    12.000000000000
         C            3.653745921603    -4.980729311090     0.301868094669    12.000000000000
         C            2.425488516150    -5.681160171202     0.311245025221    12.000000000000
         C            6.091961438086    -4.993243499062     0.308222508343    12.000000000000
         C            4.894972264885    -5.696333956633     0.306986312513    12.000000000000
         H           -7.089896567766    -5.466985377914     0.312388635374     1.007825032230
         H            7.031051029475    -5.542644072008     0.311802288106     1.007825032230
         C           -4.923549501924    -7.078806635352     0.305577271344    12.000000000000
         C           -2.485346267963    -7.087713613604     0.303067378908    12.000000000000
         C           -3.751690071504    -7.763932693311     0.303262057834    12.000000000000
         C           -0.037953136713    -7.099450410144     0.303283104056    12.000000000000
         C           -1.277960280127    -7.772889920342     0.301298411294    12.000000000000
         C            2.409440141001    -7.114007547678     0.304146304867    12.000000000000
         C            1.194745757428    -7.786170901237     0.301994013985    12.000000000000
         C            4.847616872773    -7.131247646254     0.306653119526    12.000000000000
         C            3.668467426150    -7.803773528619     0.304304685163    12.000000000000
         H           -5.869944530142    -7.613816133717     0.307121308210     1.007825032230
         H            5.788245445663    -7.676317724989     0.307780239008     1.007825032230
         H           -3.753531119175    -8.851057104911     0.301426143405     1.007825032230
         H           -1.284308585620    -8.860860928172     0.296871027436     1.007825032230
         H            1.189217394970    -8.874146156264     0.297901377295     1.007825032230
         H            3.658542435098    -8.890846169728     0.302650143740     1.007825032230

  Charge       = 0
  Multiplicity = 1
  Basis Set: JUN-CC-PVDZ
    Blend: JUN-CC-PVDZ
  Basis Set: (JUN-CC-PVDZ AUX)
    Blend: JUN-CC-PVDZ-JKFIT

    Orbital Energies [Eh]
    ---------------------

    Doubly Occupied:

       1A    -11.264036     2A    -11.263717     3A    -11.263644
       4A    -11.263296     5A    -11.263285     6A    -11.263222
       7A    -11.263126     8A    -11.263088     9A    -11.263047
      10A    -11.262857    11A    -11.262734    12A    -11.262716
      13A    -11.262238    14A    -11.262228    15A    -11.262218
      16A    -11.262160    17A    -11.262082    18A    -11.262065
      19A    -11.262025    20A    -11.261981    21A    -11.261972
      22A    -11.261873    23A    -11.261852    24A    -11.261706
      25A    -11.261704    26A    -11.261675    27A    -11.261667
      28A    -11.261631    29A    -11.261624    30A    -11.261532
      31A    -11.261514    32A    -11.261508    33A    -11.261502
      34A    -11.261488    35A    -11.261469    36A    -11.261459
      37A    -11.261285    38A    -11.261277    39A    -11.261270
      40A    -11.261268    41A    -11.261251    42A    -11.261243
      43A    -11.261236    44A    -11.261223    45A    -11.261214
      46A    -11.261194    47A    -11.261186    48A    -11.261181
      49A    -11.261030    50A    -11.261017    51A    -11.260971
      52A    -11.260934    53A    -11.260889    54A    -11.260850
      55A    -11.259861    56A    -11.259847    57A    -11.259843
      58A    -11.259816    59A    -11.259811    60A    -11.259796
      61A    -11.259231    62A    -11.259209    63A    -11.259197
      64A    -11.259153    65A    -11.259142    66A    -11.259117
      67A    -11.258863    68A    -11.258844    69A    -11.258842
      70A    -11.258816    71A    -11.258809    72A    -11.258799
      73A    -11.254492    74A    -11.254488    75A    -11.254483
      76A    -11.254480    77A    -11.254465    78A    -11.254456
      79A    -11.253614    80A    -11.253607    81A    -11.253595
      82A    -11.253586    83A    -11.253586    84A    -11.253580
      85A    -11.253529    86A    -11.253523    87A    -11.253508
      88A    -11.253500    89A    -11.253499    90A    -11.253492
      91A    -11.253020    92A    -11.253016    93A    -11.253010
      94A    -11.253008    95A    -11.252994    96A    -11.252984
      97A     -1.253825    98A     -1.238910    99A     -1.238868
     100A     -1.220378   101A     -1.220358   102A     -1.215335
     103A     -1.200958   104A     -1.195520   105A     -1.188045
     106A     -1.188017   107A     -1.173685   108A     -1.173684
     109A     -1.155523   110A     -1.155517   111A     -1.152613
     112A     -1.144648   113A     -1.144647   114A     -1.128467
     115A     -1.114609   116A     -1.113091   117A     -1.112389
     118A     -1.112351   119A     -1.111547   120A     -1.088334
     121A     -1.088311   122A     -1.076890   123A     -1.076889
     124A     -1.067521   125A     -1.067478   126A     -1.064868
     127A     -1.046712   128A     -1.046700   129A     -1.040383
     130A     -1.038668   131A     -1.038659   132A     -1.025132
     133A     -1.021275   134A     -1.021203   135A     -1.007098
     136A     -1.006707   137A     -1.003709   138A     -1.000390
     139A     -1.000327   140A     -0.991009   141A     -0.970896
     142A     -0.970839   143A     -0.955807   144A     -0.955745
     145A     -0.905484   146A     -0.905461   147A     -0.905439
     148A     -0.905431   149A     -0.904206   150A     -0.892237
     151A     -0.892186   152A     -0.890249   153A     -0.890198
     154A     -0.889346   155A     -0.872143   156A     -0.868998
     157A     -0.851453   158A     -0.847750   159A     -0.847742
     160A     -0.845485   161A     -0.842907   162A     -0.834464
     163A     -0.834460   164A     -0.828050   165A     -0.828038
     166A     -0.784460   167A     -0.784451   168A     -0.783558
     169A     -0.783546   170A     -0.782183   171A     -0.782166
     172A     -0.781925   173A     -0.766894   174A     -0.760677
     175A     -0.750465   176A     -0.733409   177A     -0.726992
     178A     -0.726941   179A     -0.724978   180A     -0.724455
     181A     -0.724414   182A     -0.718373   183A     -0.713662
     184A     -0.713655   185A     -0.699491   186A     -0.699462
     187A     -0.686012   188A     -0.685875   189A     -0.685858
     190A     -0.682081   191A     -0.682072   192A     -0.678680
     193A     -0.653536   194A     -0.650780   195A     -0.650743
     196A     -0.649695   197A     -0.649688   198A     -0.649481
     199A     -0.640828   200A     -0.640773   201A     -0.639998
     202A     -0.639078   203A     -0.635919   204A     -0.635884
     205A     -0.629039   206A     -0.617706   207A     -0.615226
     208A     -0.615195   209A     -0.608709   210A     -0.608702
     211A     -0.599162   212A     -0.599066   213A     -0.598648
     214A     -0.598488   215A     -0.598465   216A     -0.597923
     217A     -0.594982   218A     -0.594968   219A     -0.594626
     220A     -0.594103   221A     -0.591852   222A     -0.591848
     223A     -0.587265   224A     -0.577733   225A     -0.577709
     226A     -0.575677   227A     -0.575634   228A     -0.573287
     229A     -0.569541   230A     -0.568034   231A     -0.568008
     232A     -0.566651   233A     -0.566644   234A     -0.560842
     235A     -0.558623   236A     -0.558568   237A     -0.558354
     238A     -0.554268   239A     -0.550537   240A     -0.547405
     241A     -0.544217   242A     -0.534978   243A     -0.534933
     244A     -0.533446   245A     -0.533430   246A     -0.527994
     247A     -0.527971   248A     -0.527665   249A     -0.517051
     250A     -0.517030   251A     -0.515300   252A     -0.515295
     253A     -0.509553   254A     -0.509542   255A     -0.497930
     256A     -0.496363   257A     -0.496308   258A     -0.493759
     259A     -0.493701   260A     -0.489388   261A     -0.481361
     262A     -0.477358   263A     -0.477356   264A     -0.473898
     265A     -0.469321   266A     -0.466416   267A     -0.466411
     268A     -0.458759   269A     -0.446545   270A     -0.446497
     271A     -0.440966   272A     -0.440725   273A     -0.440670
     274A     -0.434627   275A     -0.433848   276A     -0.407304
     277A     -0.407289   278A     -0.386335   279A     -0.386274
     280A     -0.385674   281A     -0.385666   282A     -0.383675
     283A     -0.354251   284A     -0.354229   285A     -0.350590
     286A     -0.338007   287A     -0.335495   288A     -0.335473
     289A     -0.332656   290A     -0.332639   291A     -0.306975
     292A     -0.301856   293A     -0.301790   294A     -0.300787
     295A     -0.286093   296A     -0.256425   297A     -0.253396
     298A     -0.253357   299A     -0.204179   300A     -0.204104

  @DF-RHF Final Energy: -3650.34167968146812

   => Energetics <=

    Nuclear Repulsion Energy =          15611.4211649754306563
    One-Electron Energy =              -36072.1955063903587870
    Two-Electron Energy =               16810.4326617334627372
    Total Energy =                      -3650.3416796814672125
 Dipole X            :         -0.0008747            0.0002112           -0.0006635
 Dipole Y            :          0.0018706           -0.0013774            0.0004931
 Dipole Z            :       -345.7773290          345.7816889            0.0043599
 Magnitude           :                                                    0.0044376

    SAPT Results
  --------------------------------------------------------------------------------------------------------
    Electrostatics                -19.70181981 [mEh]     -12.36307858 [kcal/mol]     -51.72712077 [kJ/mol]
      Elst10,r                    -19.70181981 [mEh]     -12.36307858 [kcal/mol]     -51.72712077 [kJ/mol]

    Exchange                       30.85164071 [mEh]      19.35969683 [kcal/mol]      81.00097152 [kJ/mol]
      Exch10                       30.85164071 [mEh]      19.35969683 [kcal/mol]      81.00097152 [kJ/mol]
      Exch10(S^2)                  30.57844490 [mEh]      19.18826387 [kcal/mol]      80.28369603 [kJ/mol]

    Induction                     -24.26323455 [mEh]     -15.22540954 [kcal/mol]     -63.70311353 [kJ/mol]
      Ind20,r                     -26.90382653 [mEh]     -16.88240603 [kcal/mol]     -70.63598681 [kJ/mol]
      Exch-Ind20,r                  7.83698464 [mEh]       4.91778211 [kcal/mol]      20.57600034 [kJ/mol]
      delta HF,r (2)               -5.19639266 [mEh]      -3.26078562 [kcal/mol]     -13.64312705 [kJ/mol]

    Dispersion                    -32.25752046 [mEh]     -20.24189969 [kcal/mol]     -84.69210829 [kJ/mol]
      Disp20                      -34.86995213 [mEh]     -21.88122531 [kcal/mol]     -91.55104671 [kJ/mol]
      Exch-Disp20                   2.61243167 [mEh]       1.63932563 [kcal/mol]       6.85893842 [kJ/mol]
      Disp20 (SS)                 -17.43497607 [mEh]     -10.94061266 [kcal/mol]     -45.77552335 [kJ/mol]
      Disp20 (OS)                 -17.43497607 [mEh]     -10.94061266 [kcal/mol]     -45.77552335 [kJ/mol]
      Exch-Disp20 (SS)              1.55715611 [mEh]       0.97713021 [kcal/mol]       4.08831279 [kJ/mol]
      Exch-Disp20 (OS)              1.05527557 [mEh]       0.66219542 [kcal/mol]       2.77062562 [kJ/mol]

  Total HF                        -13.11341364 [mEh]      -8.22879130 [kcal/mol]     -34.42926278 [kJ/mol]
  Total SAPT0                     -45.37093410 [mEh]     -28.47069098 [kcal/mol]    -119.12137107 [kJ/mol]

  Special recipe for scaled SAPT0 (see Manual):
    Electrostatics sSAPT0         -19.70181981 [mEh]     -12.36307858 [kcal/mol]     -51.72712077 [kJ/mol]
    Exchange sSAPT0                30.85164071 [mEh]      19.35969683 [kcal/mol]      81.00097152 [kJ/mol]
    Induction sSAPT0              -24.05129929 [mEh]     -15.09241816 [kcal/mol]     -63.14667760 [kJ/mol]
    Dispersion sSAPT0             -32.18687257 [mEh]     -20.19756747 [kcal/mol]     -84.50662230 [kJ/mol]
  Total sSAPT0                    -45.08835096 [mEh]     -28.29336739 [kcal/mol]    -118.37944914 [kJ/mol]
  --------------------------------------------------------------------------------------------------------

*** Psi4 exiting successfully. Buy a developer a beer!
