                               Psi4 1.9 release

  ==> Input File <==

--------------------------------------------------------------------------
memory 32 GB # how much memory is available ! Depends on the nodes/cores !

molecule dimer {
# monomer A
-1 1    # Charge and multiplicity
B -1.977592e-04  2.742729e-04 -3.399966
F  1.123153e-16  1.430594e-17 -1.987181
F  1.147860e+00  6.757812e-01 -3.871107
F  1.191806e-02 -1.332011e+00 -3.870905
F -1.159666e+00  6.560735e-01 -3.870826
--
# monomer B
0 1     # Charge and multiplicity
C   1.22531237526482      0.70753866091955      0.00613762728373
C   1.22532433589282     -0.70753852257020     -0.00619318228664
C   -0.00000567409046      1.41496628609039     -0.00672680580738
C   2.45644923379077      1.41832825917820      0.00902448468363
C   0.00001130712078     -1.41497612663474      0.00347275151708
C   -1.22530046906674      0.70754574598412      0.00838914760619
C   2.45643823516184     -1.41832293188077     -0.00843833914343
C   -0.00000085313587      2.83680140328112     -0.00913035594137
C   3.68182717731192      0.70931832800114     -0.00808954934571
C   2.45512052870677      2.83422403348893     -0.00819210630633
C   3.68182158506039     -0.70933346742900      0.00798293467272
C   -1.22531311884624     -0.70752714354401     -0.00512042085974
C   1.22670006104402      3.54346985599427      0.00816696660346
C   0.00000526469929     -2.83678176723568      0.00832091913869
C   -2.45643555300670      1.41831729028492      0.00842454345199
C   2.45512389762097     -2.83422965658853      0.00783102630520
C   -1.22671388474763      3.54346943575023      0.00827029982280
C   4.91451777504333      1.42717324448953     -0.00160886631602
C   3.69315067131765      3.54279566454522     -0.00155906667985
C   -2.45643712022637     -1.41831290883911     -0.00846337726810
C   1.22670532178455     -3.54347386990643     -0.00780316414624
C   -2.45512491866593      2.83421703463423     -0.00818572995999
C   4.91452486062398     -1.42718653794377      0.00136387641845
C   1.22142509354026      4.97013443726031      0.00150231067809
C   4.89300870916237      2.82518837202648     -0.00039219795739
C   -1.22669652864725     -3.54347062507680     -0.00753595973677
C   -3.68181849668397      0.70932533873199     -0.00807686886569
C   3.69314758099218     -3.54280096939050      0.00148176697923
C   -1.22143177215231      4.97012866986289      0.00168580605083
C   6.13477145276790      0.68054831910577     -0.00083909176631
C   3.65678936045204      4.97295361556775     -0.00065042889723
C   -2.45512642789169     -2.83421472106065      0.00758666850712
C   -3.68181869921921     -0.70932533146830      0.00810055625144
C   4.89301309775526     -2.82519973363176      0.00021895393805
C   -0.00000059327114      5.65044773803267      0.00045449734393
C   6.13477559217374     -0.68055448207492      0.00042622874941
C   2.47813196269732      5.65357712333155      0.00063835075260
C   1.22142288457925     -4.97012668293268     -0.00129718634452
C   -3.69316190412301      3.54279732619245     -0.00139355922051
C   -1.22142804110313     -4.97011793159564     -0.00140994817719
C   -4.91452132810043      1.42717581899491     -0.00153192130862
C   3.65678749952045     -4.97295485423912      0.00080007163680
C   -2.47813805026426      5.65357479452875      0.00092287576113
C   -3.69314125872231     -3.54278984697859      0.00136564082345
C   -4.91451200321153     -1.42718062802730      0.00139857359209
C   -0.00000552908399     -5.65043791501335      0.00005899322272
C   -4.89302000425900      2.82518897091939     -0.00040227981744
C   2.47812647313991     -5.65357317188818     -0.00029052915548
C   -3.65679823041642      4.97295655404175     -0.00047374852278
C   -4.89299899901461     -2.82519139505969      0.00006491824035
C   -2.47812801824129     -5.65356579800621     -0.00056571680280
C   -6.13477002348955      0.68054913825639     -0.00086464346868
C   -3.65678835334731     -4.97294365097028      0.00058578382008
C   -6.13476456307132     -0.68055354348201      0.00040575295444
H   5.83528897565761      3.36927626695423      0.00396712770529
H   7.07385965258860      1.22821762089947     -0.00037744837300
H   4.60066374401555      5.51238117445323     -0.00014522814529
H   5.83528386714679     -3.36930568472863     -0.00423551337640
H   -0.00001167146422      6.73853104613662     -0.00389474766392
H   7.07386165167227     -1.22822657074368     -0.00008250934481
H   2.47331421164041      6.74068466339473      0.00017162982210
H   4.60066897122302     -5.51237575717576      0.00039007446835
H   -2.47331820069565      6.74068209160650      0.00047297644710
H   -0.00000978838621     -6.73852780445195      0.00458867820736
H   -5.83530143450167      3.36927132229595      0.00410314985360
H   2.47330840367253     -6.74068500242887      0.00027980126949
H   -4.60067436136587      5.51237839860371      0.00002010017831
H   -5.83527902699321     -3.36928859177951     -0.00451481925734
H   -2.47329986759855     -6.74067870613986     -0.00016951527498
H   -7.07385728692578      1.22822084484047     -0.00046143985387
H   -4.60067330624313     -5.51236229778631      0.00021776644566
H   -7.07385645456741     -1.22822025997701     -0.00017736581114

    units angstrom      # Angstroms are the default
    no_reorient         # Geometry fixed, default
    symmetry c1         # C1 symmetry, default
}

set {
    scf_type DF         # Density fitting, faster than exact integrals
    freeze_core True    # Freeze core electrons
    basis jun-cc-pVDZ   # Jun-cc-pVDZ basis set, recommended for sSAPT0 in https://doi.org/10.1063/1.4867135
}

energy('ssapt0')        # Compute sSAPT0 energy, includes also SAPT0
--------------------------------------------------------------------------

  //              Dimer HF             //
    Molecular point group: c1
  Charge       = -1
  Multiplicity = 1
  Basis Set: JUN-CC-PVDZ
    Blend: JUN-CC-PVDZ
  Basis Set: (JUN-CC-PVDZ AUX)
    Blend: JUN-CC-PVDZ-JKFIT
  @DF-RHF Final Energy: -2478.62778503544860
    Total Energy =                      -2478.6277850354490511
 Dipole X            :         -0.0004472            0.0000481           -0.0003991
 Dipole Y            :          0.0008413           -0.0001453            0.0006960
 Dipole Z            :        -16.6750032           20.8432895            4.1682863
 Magnitude           :                                                    4.1682864
  //            Monomer A HF           //
    Molecular point group: c1
  Multiplicity = 1
  Basis Set: JUN-CC-PVDZ
    Blend: JUN-CC-PVDZ
  Basis Set: (JUN-CC-PVDZ AUX)
    Blend: JUN-CC-PVDZ-JKFIT
  @DF-RHF Final Energy:  -422.77388734144984
    Total Energy =                       -422.7738873414498357
  //            Monomer B HF           //
    Molecular point group: c1

    Geometry (in Angstrom), charge = 0, multiplicity = 1:

       Center              X                  Y                   Z               Mass
    ------------   -----------------  -----------------  -----------------  -----------------
      Gh(B)          -0.000198161052     0.000273808717    -3.007196918024    11.009305360000
      Gh(F)          -0.000000401852    -0.000000464183    -1.594411918024    18.998403162730
      Gh(F)           1.147859598148     0.675780735817    -3.478337918024    18.998403162730
      Gh(F)           0.011917658148    -1.332011464183    -3.478135918024    18.998403162730
      Gh(F)          -1.159666401852     0.656073035817    -3.478056918024    18.998403162730
         C            1.225311973413     0.707538196736     0.398906709260    12.000000000000
         C            1.225323934041    -0.707538986754     0.386575899690    12.000000000000
         C           -0.000006075942     1.414965821907     0.386042276169    12.000000000000
         C            2.456448831939     1.418327794995     0.401793566660    12.000000000000
         C            0.000010905269    -1.414976590818     0.396241833493    12.000000000000
         C           -1.225300870919     0.707545281801     0.401158229582    12.000000000000
         C            2.456437833310    -1.418323396064     0.384330742833    12.000000000000
         C           -0.000001254988     2.836800939098     0.383638726035    12.000000000000
         C            3.681826775460     0.709317863818     0.384679532631    12.000000000000
         C            2.455120126855     2.834223569306     0.384576975670    12.000000000000
         C            3.681821183209    -0.709333931612     0.400752016649    12.000000000000
         C           -1.225313520698    -0.707527607727     0.387648661117    12.000000000000
         C            1.226699659192     3.543469391811     0.400936048580    12.000000000000
         C            0.000004862847    -2.836782231419     0.401090001115    12.000000000000
         C           -2.456435954859     1.418316826102     0.401193625428    12.000000000000
         C            2.455123495769    -2.834230120772     0.400600108281    12.000000000000
         C           -1.226714286599     3.543468971567     0.401039381799    12.000000000000
         C            4.914517373191     1.427172780306     0.391160215660    12.000000000000
         C            3.693150269466     3.542795200362     0.391210015296    12.000000000000
         C           -2.456437522078    -1.418313373022     0.384305704708    12.000000000000
         C            1.226704919933    -3.543474334090     0.384965917830    12.000000000000
         C           -2.455125320518     2.834216570451     0.384583352016    12.000000000000
         C            4.914524458772    -1.427187002127     0.394132958395    12.000000000000
         C            1.221424691688     4.970133973077     0.394271392654    12.000000000000
         C            4.893008307311     2.825187907843     0.392376884019    12.000000000000
         C           -1.226696930499    -3.543471089260     0.385233122239    12.000000000000
         C           -3.681818898536     0.709324874549     0.384692213111    12.000000000000
         C            3.693147179140    -3.542801433574     0.394250848955    12.000000000000
         C           -1.221432174004     4.970128205680     0.394454888027    12.000000000000
         C            6.134771050916     0.680547854922     0.391929990210    12.000000000000
         C            3.656788958600     4.972953151384     0.392118653079    12.000000000000
         C           -2.455126829744    -2.834215185244     0.400355750483    12.000000000000
         C           -3.681819101071    -0.709325795652     0.400869638228    12.000000000000
         C            4.893012695903    -2.825200197815     0.392988035914    12.000000000000
         C           -0.000000995123     5.650447273849     0.393223579320    12.000000000000
         C            6.134775190322    -0.680554946258     0.393195310726    12.000000000000
         C            2.478131560845     5.653576659148     0.393407432729    12.000000000000
         C            1.221422482727    -4.970127147116     0.391471895632    12.000000000000
         C           -3.693162305975     3.542796862009     0.391375522756    12.000000000000
         C           -1.221428442955    -4.970118395779     0.391359133799    12.000000000000
         C           -4.914521729952     1.427175354812     0.391237160668    12.000000000000
         C            3.656787097669    -4.972955318422     0.393569153613    12.000000000000
         C           -2.478138452116     5.653574330345     0.393691957737    12.000000000000
         C           -3.693141660574    -3.542790311162     0.394134722800    12.000000000000
         C           -4.914512405063    -1.427181092211     0.394167655568    12.000000000000
         C           -0.000005930936    -5.650438379197     0.392828075199    12.000000000000
         C           -4.893020406111     2.825188506736     0.392366802159    12.000000000000
         C            2.478126071288    -5.653573636072     0.392478552821    12.000000000000
         C           -3.656798632268     4.972956089858     0.392295333453    12.000000000000
         C           -4.892999400866    -2.825191859243     0.392834000217    12.000000000000
         C           -2.478128420093    -5.653566262190     0.392203365173    12.000000000000
         C           -6.134770425341     0.680548674073     0.391904438508    12.000000000000
         C           -3.656788755199    -4.972944115154     0.393354865796    12.000000000000
         C           -6.134764964923    -0.680554007665     0.393174834931    12.000000000000
         H            5.835288573806     3.369275802771     0.396736209682     1.007825032230
         H            7.073859250737     1.228217156716     0.392391633603     1.007825032230
         H            4.600663342164     5.512380710270     0.392623853831     1.007825032230
         H            5.835283465295    -3.369306148912     0.388533568600     1.007825032230
         H           -0.000012073316     6.738530581953     0.388874334312     1.007825032230
         H            7.073861249820    -1.228227034927     0.392686572631     1.007825032230
         H            2.473313809789     6.740684199211     0.392940711798     1.007825032230
         H            4.600668569371    -5.512376221359     0.393159156445     1.007825032230
         H           -2.473318602548     6.740681627423     0.393242058423     1.007825032230
         H           -0.000010190238    -6.738528268635     0.397357760184     1.007825032230
         H           -5.835301836354     3.369270858113     0.396872231830     1.007825032230
         H            2.473308001821    -6.740685466612     0.393048883246     1.007825032230
         H           -4.600674763218     5.512377934420     0.392789182155     1.007825032230
         H           -5.835279428845    -3.369289055963     0.388254262719     1.007825032230
         H           -2.473300269450    -6.740679170323     0.392599566701     1.007825032230
         H           -7.073857688778     1.228220380657     0.392307642122     1.007825032230
         H           -4.600673708095    -5.512362761970     0.392986848422     1.007825032230
         H           -7.073856856419    -1.228220724160     0.392591716165     1.007825032230

  Charge       = 0
  Multiplicity = 1
  Basis Set: JUN-CC-PVDZ
    Blend: JUN-CC-PVDZ
  Basis Set: (JUN-CC-PVDZ AUX)
    Blend: JUN-CC-PVDZ-JKFIT

    Orbital Energies [Eh]
    ---------------------

    Doubly Occupied:

       1A    -11.260787     2A    -11.260325     3A    -11.260322
       4A    -11.259512     5A    -11.259511     6A    -11.259287
       7A    -11.259017     8A    -11.258952     9A    -11.258950
      10A    -11.258665    11A    -11.258662    12A    -11.258515
      13A    -11.258475    14A    -11.258465    15A    -11.258459
      16A    -11.258422    17A    -11.258416    18A    -11.258399
      19A    -11.258396    20A    -11.258391    21A    -11.258385
      22A    -11.258343    23A    -11.258338    24A    -11.258157
      25A    -11.257292    26A    -11.257233    27A    -11.257232
      28A    -11.257099    29A    -11.257099    30A    -11.257016
      31A    -11.256383    32A    -11.256314    33A    -11.256313
      34A    -11.256206    35A    -11.256206    36A    -11.256160
      37A    -11.252282    38A    -11.252282    39A    -11.252280
      40A    -11.252279    41A    -11.252276    42A    -11.252275
      43A    -11.251385    44A    -11.251383    45A    -11.251382
      46A    -11.251370    47A    -11.251369    48A    -11.251366
      49A    -11.250844    50A    -11.250843    51A    -11.250841
      52A    -11.250839    53A    -11.250837    54A    -11.250836
      55A     -1.244027    56A     -1.219782    57A     -1.219781
      58A     -1.189522    59A     -1.189514    60A     -1.180935
      61A     -1.157551    62A     -1.148962    63A     -1.135459
      64A     -1.135452    65A     -1.113184    66A     -1.113179
      67A     -1.082395    68A     -1.082388    69A     -1.078595
      70A     -1.065976    71A     -1.065973    72A     -1.039378
      73A     -1.024227    74A     -1.021741    75A     -1.021697
      76A     -1.017723    77A     -1.012795    78A     -0.986990
      79A     -0.986944    80A     -0.961872    81A     -0.961822
      82A     -0.894276    83A     -0.894250    84A     -0.887917
      85A     -0.886143    86A     -0.886085    87A     -0.881374
      88A     -0.881326    89A     -0.861881    90A     -0.837413
      91A     -0.818191    92A     -0.816568    93A     -0.812116
      94A     -0.812107    95A     -0.794678    96A     -0.794667
      97A     -0.746604    98A     -0.744824    99A     -0.733383
     100A     -0.733375   101A     -0.732171   102A     -0.732147
     103A     -0.716486   104A     -0.698957   105A     -0.698947
     106A     -0.693567   107A     -0.693552   108A     -0.661216
     109A     -0.653064   110A     -0.651110   111A     -0.650249
     112A     -0.650243   113A     -0.639349   114A     -0.639346
     115A     -0.629700   116A     -0.627499   117A     -0.627484
     118A     -0.606486   119A     -0.605815   120A     -0.601631
     121A     -0.599716   122A     -0.599685   123A     -0.593616
     124A     -0.591181   125A     -0.591171   126A     -0.585279
     127A     -0.576374   128A     -0.576368   129A     -0.567321
     130A     -0.567307   131A     -0.565926   132A     -0.565907
     133A     -0.558687   134A     -0.554833   135A     -0.554827
     136A     -0.538585   137A     -0.538583   138A     -0.538167
     139A     -0.538161   140A     -0.529704   141A     -0.528203
     142A     -0.522855   143A     -0.522849   144A     -0.500493
     145A     -0.495591   146A     -0.493222   147A     -0.487828
     148A     -0.485050   149A     -0.481737   150A     -0.481729
     151A     -0.470385   152A     -0.470367   153A     -0.450981
     154A     -0.450903   155A     -0.439064   156A     -0.439055
     157A     -0.404712   158A     -0.404689   159A     -0.403365
     160A     -0.375430   161A     -0.375427   162A     -0.349107
     163A     -0.337541   164A     -0.336589   165A     -0.336531
     166A     -0.311062   167A     -0.298119   168A     -0.284309
     169A     -0.284256   170A     -0.224895   171A     -0.224829

  @DF-RHF Final Energy: -2055.89389687028824

   => Energetics <=

    Nuclear Repulsion Energy =           6452.5568002797772351
    One-Electron Energy =              -15636.4867480939465167
    Two-Electron Energy =                7128.0360509438814915
    Total Energy =                      -2055.8938968702877901
 Dipole X            :          0.0000224            0.0000419            0.0000643
 Dipole Y            :          0.0000609           -0.0000426            0.0000184
 Dipole Z            :       -253.8388617          253.8398475            0.0009858
 Magnitude           :                                                    0.0009881

    SAPT Results
  --------------------------------------------------------------------------------------------------------
    Electrostatics                -21.10773016 [mEh]     -13.24530064 [kcal/mol]     -55.41833789 [kJ/mol]
      Elst10,r                    -21.10773016 [mEh]     -13.24530064 [kcal/mol]     -55.41833789 [kJ/mol]

    Exchange                       84.37519997 [mEh]      52.94623734 [kcal/mol]     221.52705701 [kJ/mol]
      Exch10                       84.37519997 [mEh]      52.94623734 [kcal/mol]     221.52705701 [kJ/mol]
      Exch10(S^2)                  83.65778946 [mEh]      52.49605544 [kcal/mol]     219.64349596 [kJ/mol]

    Induction                     -23.26829353 [mEh]     -14.60107463 [kcal/mol]     -61.09089625 [kJ/mol]
      Ind20,r                     -50.46972501 [mEh]     -31.67023058 [kcal/mol]    -132.50824475 [kJ/mol]
      Exch-Ind20,r                 30.28362598 [mEh]      19.00326220 [kcal/mol]      79.50964907 [kJ/mol]
      delta HF,r (2)               -3.08219451 [mEh]      -1.93410625 [kcal/mol]      -8.09230056 [kJ/mol]

    Dispersion                    -20.05392343 [mEh]     -12.58402694 [kcal/mol]     -52.65156872 [kJ/mol]
      Disp20                      -27.01728375 [mEh]     -16.95360151 [kcal/mol]     -70.93386871 [kJ/mol]
      Exch-Disp20                   6.96336032 [mEh]       4.36957457 [kcal/mol]      18.28229999 [kJ/mol]
      Disp20 (SS)                 -13.50864187 [mEh]      -8.47680075 [kcal/mol]     -35.46693436 [kJ/mol]
      Disp20 (OS)                 -13.50864187 [mEh]      -8.47680075 [kcal/mol]     -35.46693436 [kJ/mol]
      Exch-Disp20 (SS)              3.76677691 [mEh]       2.36368820 [kcal/mol]       9.88967142 [kJ/mol]
      Exch-Disp20 (OS)              3.19658341 [mEh]       2.00588637 [kcal/mol]       8.39262857 [kJ/mol]

  Total HF                         39.99917629 [mEh]      25.09986206 [kcal/mol]     105.01782288 [kJ/mol]
  Total SAPT0                      19.94525286 [mEh]      12.51583512 [kcal/mol]      52.36625416 [kJ/mol]

  Special recipe for scaled SAPT0 (see Manual):
    Electrostatics sSAPT0         -21.10773016 [mEh]     -13.24530064 [kcal/mol]     -55.41833789 [kJ/mol]
    Exchange sSAPT0                84.37519997 [mEh]      52.94623734 [kcal/mol]     221.52705701 [kJ/mol]
    Induction sSAPT0              -22.48249816 [mEh]     -14.10798059 [kcal/mol]     -59.02779078 [kJ/mol]
    Dispersion sSAPT0             -19.87323912 [mEh]     -12.47064582 [kcal/mol]     -52.17718211 [kJ/mol]
  Total sSAPT0                     20.91173255 [mEh]      13.12231029 [kcal/mol]      54.90374624 [kJ/mol]
  --------------------------------------------------------------------------------------------------------

*** Psi4 exiting successfully. Buy a developer a beer!
