                               Psi4 1.9 release

  ==> Input File <==

--------------------------------------------------------------------------
memory 64 GB # how much memory is available ! Depends on the nodes/cores !

molecule dimer {
# monomer A
+1 1    # Charge and multiplicity
C  0.680067 1.417258 -6.015929
C -0.680504 1.419286 -6.015545
N -1.085635 1.420284 -4.697221
C  0.000108 1.423560 -3.915820
C -2.477365 1.469690 -4.229242
N  1.085222 1.420284 -4.697221
H  1.385146 1.409430 -6.833368
H -1.385302 1.419096 -6.833214
H -0.000009 1.425307 -2.834731
C  2.478117 1.403392 -4.232123
H  2.490592 1.430737 -3.141870
H  2.967028 0.489946 -4.579299
H  3.001428 2.278875 -4.623595
H -2.857359 2.491761 -4.309201
H -3.082679 0.799606 -4.842306
H -2.518128 1.142706 -3.189294
--
# monomer B
0 1     # Charge and multiplicity
C   -3.66844126402057      7.80375217008252      0.00190004133558
C   -4.84759871934653      7.13124183134024     -0.00046653359696
C   -4.89495929917518      5.69633040353158     -0.00103944469517
C   -3.65374067877320      4.98073034095895      0.00662099703436
C   -2.40942512149445      7.11398103667468      0.00209438359570
C   -2.42547734410473      5.68112195090346     -0.00491050527438
C   -1.19474401643570      7.78614419430947      0.00356656413763
C   0.03795902893699      7.09942164575698      0.00139585983271
C   0.03033258741920      5.66948955970466     -0.00408752508301
C   -1.20098450790502      4.96927034791531      0.00488220885047
C   1.27795782581485      7.77285944319479      0.00277170839332
C   2.48535808472416      7.08769688523756      0.00049722048857
C   2.48612868491717      5.65477081024076     -0.00644052849921
C   1.25408291964399      4.95607811366431      0.00518741308898
C   3.75171459140595      7.76391215098033      0.00062407186893
C   4.92356605618520      7.07878077698995     -0.00143240883900
C   4.95560727132542      5.64344746336949     -0.00159282164606
C   3.70680153420475      4.94121020833308      0.00349873852374
H   -3.65852113775815      8.89082741913536      0.00358502958574
H   -1.18921332975660      8.87412108735996      0.00753844057883
H   1.28429423888630      8.86083343548850      0.00693053253426
H   3.75354208679975      8.85103527897216      0.00214659618464
H   5.86995870320703      7.61379483465560     -0.00235777588134
H   -5.78823170750226      7.67630221293400     -0.00202638095293
C   -6.09197395869619      4.99326001364347     -0.00291168518608
C   -6.12866148031747      3.58258016879823     -0.00171050815740
C   -3.66457974004527      3.56418217974434     -0.00463560277484
C   -4.89429820469869      2.86108077590057      0.00453338221034
C   -2.43733499489796      2.84761165708481      0.00719617576166
C   -1.20922785759670      3.54788693497833     -0.00648285103018
C   1.24714157216223      3.53468075142962     -0.00729145743546
C   0.01517603956900      2.83311183930540      0.00439272578912
C   2.46764517244071      2.82128997725533      0.00449278391269
C   3.70254947457969      3.52466015442405     -0.00899517692985
C   6.14498038638375      4.92757236613191     -0.00282626685777
C   6.16658835886151      3.51658447594213     -0.00065971342101
C   4.92460995845939      2.80840792535402      0.00587903281610
H   7.08990550964105      5.46688776622306     -0.00658814770723
H   -7.03104175110130      5.54268795285765     -0.00714490013730
C   -7.33969804112295      2.85841153457957     -0.00333767559888
C   -7.36488195805880      1.47032337158330     -0.00157213747140
C   -4.90350460894690      1.44442681216000     -0.00628840166334
C   -6.13225715261081      0.73993935705394      0.00600164231964
C   -3.67687480051673      0.72669714267312      0.00433931473643
C   -2.44565658606518      1.42964113326212     -0.00597039546461
C   -1.22360068130162      0.71532450163492      0.00545886906656
C   0.00763786931376      1.41738314923765      0.00392452278437
C   1.23121980774686      0.70211669058719     -0.01490206287210
C   2.46082110053113      1.40329203612573      0.00460244601878
C   3.68443025419614      0.68719842821222      0.00377365974158
C   4.91870890153864      1.39173456118907     -0.00862816189375
C   7.36980207796101      2.77948220318441     -0.00242013321349
C   7.38016266612146      1.39121750785509     -0.00087345036788
C   6.13979953912259      0.67411862320065      0.00545489144369
H   -8.27919079934664      3.40711804112415     -0.00763522772059
H   8.31511347147953      3.31811809662368     -0.00663070901292
C   -8.59175593758115      0.72483255304480     -0.00123170985383
C   -8.59902460370342     -0.63263980622873      0.00089141472904
C   -6.13981313911873     -0.67413663715361     -0.00609792660607
C   -7.38018411213749     -1.39126618958160      0.00131813493501
C   -4.91868448025621     -1.39175501803000      0.00624257154343
C   -3.68443829568458     -0.68723731573599     -0.00478966852105
C   -2.46081704024768     -1.40334517882457      0.00575341766833
C   -1.23116201232071     -0.70217386488055     -0.00636696112346
C   -0.00756962538737     -1.41741884941102      0.00108956317991
C   1.22364771588843     -0.71527537726392      0.01109518512883
C   2.44567064933149     -1.42964328900682     -0.00065482763106
C   3.67686670284649     -0.72670743155550     -0.00479541202602
C   6.13224884641929     -0.73997883984993     -0.00632338623858
C   4.90351914550401     -1.44445752054090      0.00751768830159
C   8.59901484869081      0.63260386666793     -0.00101133422380
C   8.59174548810050     -0.72485086719319      0.00072504603735
C   7.36486276438985     -1.47033266560598      0.00049486934466
H   -9.52830597181814      1.27684744919284     -0.00270163681798
H   9.54141097460619      1.17457248844457     -0.00206336648518
C   -7.36983790976868     -2.77954514593389      0.00312634335708
C   -4.92459910905015     -2.80843725734101     -0.00460528907921
C   -6.16662249566744     -3.51665219282533      0.00169655107992
C   -3.70251035970491     -3.52468154912026      0.00571878010666
C   -2.46764698511392     -2.82132596280400     -0.00632585824990
C   -0.01513347410770     -2.83314164539971     -0.00604426974092
C   -1.24712184122656     -3.53473217556300      0.00551968366725
C   1.20924506964357     -3.54791467864352      0.00805871345849
C   2.43733602215464     -2.84764173817541     -0.00608104485234
C   4.89430234377080     -2.86112296828604     -0.00526030478103
C   3.66461525504104     -3.56421984553201      0.00761911515957
C   6.12863901474565     -3.58258405771778      0.00096495711699
C   7.33967266469532     -2.85841330737039      0.00248018319869
H   -9.54144911125902     -1.17456346666430      0.00226083090216
H   9.52826186807155     -1.27691907390448      0.00197485379837
H   -8.31516504384864     -3.31814985321231      0.00729857188773
H   8.27915514249207     -3.40714078989363      0.00681973918158
C   -6.14499418870218     -4.92764727278338      0.00302254913999
C   -3.70678334799751     -4.94126171411716     -0.00679841894792
C   -4.95559005800169     -5.64349397349412      0.00116871569699
C   -2.48612132622665     -5.65478557440947      0.00614125209662
C   -1.25405833548005     -4.95612205000132     -0.00503435388927
C   1.20101257386816     -4.96928038819302     -0.00385322963129
C   -0.03033667441341     -5.66952030313900      0.00398997003238
C   3.65375010132847     -4.98074377541453     -0.00309522988330
C   2.42549269587528     -5.68117463552727      0.00628170066869
C   6.09196561781097     -4.99325796338655      0.00325918379042
C   4.89497644461045     -5.69634842095790      0.00202298796027
H   -7.08989238804069     -5.46699984223871      0.00742531082125
H   7.03105520920009     -5.54265853633254      0.00683896355417
C   -4.92354532219813     -7.07882109967734      0.00061394679214
C   -2.48534208823777     -7.08772807792913     -0.00189594564379
C   -3.75168589177895     -7.76394715763627     -0.00170126671874
C   -0.03794895698805     -7.09946487446944     -0.00168022049625
C   -1.27795610040136     -7.77290438466689     -0.00366491325785
C   2.40944432072629     -7.11402201200282     -0.00081701968533
C   1.19474993715296     -7.78618536556242     -0.00296931056689
C   4.84762105249800     -7.13126211057943      0.00168979497423
C   3.66847160587561     -7.80378799294376     -0.00065863938960
H   -5.86994035041618     -7.61383059804164      0.00215798365757
H   5.78824962538815     -7.67633218931421      0.00281691445618
H   -3.75352693944918     -8.85107156923607     -0.00353718114765
H   -1.28430440589466     -8.86087539249706     -0.00809229711623
H   1.18922157469537     -8.87416062058945     -0.00706194725726
H   3.65854661482387     -8.89086063405326     -0.00231318081200

    units angstrom      # Angstroms are the default
    no_reorient         # Geometry fixed, default
    symmetry c1         # C1 symmetry, default
}

set {
    scf_type DF         # Density fitting, faster than exact integrals
    freeze_core True    # Freeze core electrons
    basis jun-cc-pVDZ   # Jun-cc-pVDZ basis set, recommended for sSAPT0 in https://doi.org/10.1063/1.4867135
}

energy('ssapt0')        # Compute sSAPT0 energy, includes also SAPT0
--------------------------------------------------------------------------

  //              Dimer HF             //
    Molecular point group: c1
  Charge       = 1
  Multiplicity = 1
  Basis Set: JUN-CC-PVDZ
    Blend: JUN-CC-PVDZ
  Basis Set: (JUN-CC-PVDZ AUX)
    Blend: JUN-CC-PVDZ-JKFIT
  @DF-RHF Final Energy: -3953.66056955462045
    Total Energy =                      -3953.6605695546204515
 Dipole X            :         -0.0039093            0.0004804           -0.0034288
 Dipole Y            :         -7.2148349            8.7122315            1.4973967
 Dipole Z            :         20.9695459          -27.2651866           -6.2956406
 Magnitude           :                                                    6.4712672
  //            Monomer A HF           //
    Molecular point group: c1
  Multiplicity = 1
  Basis Set: JUN-CC-PVDZ
    Blend: JUN-CC-PVDZ
  Basis Set: (JUN-CC-PVDZ AUX)
    Blend: JUN-CC-PVDZ-JKFIT
  @DF-RHF Final Energy:  -303.29799289038903
    Total Energy =                       -303.2979928903890254
  //            Monomer B HF           //
    Molecular point group: c1

    Geometry (in Angstrom), charge = 0, multiplicity = 1:

       Center              X                  Y                   Z               Mass
    ------------   -----------------  -----------------  -----------------  -----------------
      Gh(C)           0.680062820275     1.308604348936    -5.649971854981    12.000000000000
      Gh(C)          -0.680508179725     1.310632348936    -5.649587854981    12.000000000000
      Gh(N)          -1.085639179725     1.311630348936    -4.331263854981    14.003074004430
      Gh(C)           0.000103820275     1.314906348936    -3.549862854981    12.000000000000
      Gh(C)          -2.477369179725     1.361036348936    -3.863284854981    12.000000000000
      Gh(N)           1.085217820275     1.311630348936    -4.331263854981    14.003074004430
      Gh(H)           1.385141820275     1.300776348936    -6.467410854981     1.007825032230
      Gh(H)          -1.385306179725     1.310442348936    -6.467256854981     1.007825032230
      Gh(H)          -0.000013179725     1.316653348936    -2.468773854981     1.007825032230
      Gh(C)           2.478112820275     1.294738348936    -3.866165854981    12.000000000000
      Gh(H)           2.490587820275     1.322083348936    -2.775912854981     1.007825032230
      Gh(H)           2.967023820275     0.381292348936    -4.213341854981     1.007825032230
      Gh(H)           3.001423820275     2.170221348936    -4.257637854981     1.007825032230
      Gh(H)          -2.857363179725     2.383107348936    -3.943243854981     1.007825032230
      Gh(H)          -3.082683179725     0.690952348936    -4.476348854981     1.007825032230
      Gh(H)          -2.518132179725     1.034052348936    -2.823336854981     1.007825032230
         C           -3.668445443746     7.695098519018     0.367857186355    12.000000000000
         C           -4.847602899072     7.022588180276     0.365490611422    12.000000000000
         C           -4.894963478901     5.587676752467     0.364917700324    12.000000000000
         C           -3.653744858499     4.872076689895     0.372578142054    12.000000000000
         C           -2.409429301220     7.005327385610     0.368051528615    12.000000000000
         C           -2.425481523830     5.572468299839     0.361046639745    12.000000000000
         C           -1.194748196161     7.677490543245     0.369523709157    12.000000000000
         C            0.037954849212     6.990767994693     0.367353004852    12.000000000000
         C            0.030328407694     5.560835908640     0.361869619936    12.000000000000
         C           -1.200988687630     4.860616696851     0.370839353870    12.000000000000
         C            1.277953646089     7.664205792130     0.368728853413    12.000000000000
         C            2.485353904999     6.979043234173     0.366454365508    12.000000000000
         C            2.486124505192     5.546117159176     0.359516616520    12.000000000000
         C            1.254078739919     4.847424462600     0.371144558108    12.000000000000
         C            3.751710411681     7.655258499916     0.366581216888    12.000000000000
         C            4.923561876460     6.970127125926     0.364524736180    12.000000000000
         C            4.955603091600     5.534793812305     0.364364323373    12.000000000000
         C            3.706797354479     4.832556557269     0.369455883543    12.000000000000
         H           -3.658525317484     8.782173768071     0.369542174605     1.007825032230
         H           -1.189217509482     8.765467436296     0.373495585598     1.007825032230
         H            1.284290059161     8.752179784424     0.372887677553     1.007825032230
         H            3.753537907074     8.742381627908     0.368103741204     1.007825032230
         H            5.869954523482     7.505141183591     0.363599369138     1.007825032230
         H           -5.788235887228     7.567648561870     0.363930764066     1.007825032230
         C           -6.091978138422     4.884606362579     0.363045459833    12.000000000000
         C           -6.128665660043     3.473926517734     0.364246636862    12.000000000000
         C           -3.664583919771     3.455528528680     0.361321542244    12.000000000000
         C           -4.894302384424     2.752427124836     0.370490527230    12.000000000000
         C           -2.437339174623     2.738958006020     0.373153320781    12.000000000000
         C           -1.209232037322     3.439233283914     0.359474293989    12.000000000000
         C            1.247137392437     3.426027100365     0.358665687584    12.000000000000
         C            0.015171859844     2.724458188241     0.370349870808    12.000000000000
         C            2.467640992715     2.712636326191     0.370449928932    12.000000000000
         C            3.702545294854     3.416006503360     0.356961968089    12.000000000000
         C            6.144976206658     4.818918715067     0.363130878161    12.000000000000
         C            6.166584179136     3.407930824878     0.365297431598    12.000000000000
         C            4.924605778734     2.699754274290     0.371836177835    12.000000000000
         H            7.089901329916     5.358234115159     0.359368997312     1.007825032230
         H           -7.031045930827     5.434034301793     0.358812244882     1.007825032230
         C           -7.339702220848     2.749757883515     0.362619469420    12.000000000000
         C           -7.364886137784     1.361669720519     0.364385007548    12.000000000000
         C           -4.903508788672     1.335773161096     0.359668743356    12.000000000000
         C           -6.132261332336     0.631285705989     0.371958787339    12.000000000000
         C           -3.676878980242     0.618043491609     0.370296459756    12.000000000000
         C           -2.445660765791     1.320987482198     0.359986749555    12.000000000000
         C           -1.223604861027     0.606670850570     0.371416014086    12.000000000000
         C            0.007633689588     1.308729498173     0.369881667804    12.000000000000
         C            1.231215628021     0.593463039523     0.351055082147    12.000000000000
         C            2.460816920806     1.294638385061     0.370559591038    12.000000000000
         C            3.684426074471     0.578544777148     0.369730804761    12.000000000000
         C            4.918704721813     1.283080910125     0.357328983125    12.000000000000
         C            7.369797898236     2.670828552120     0.363537011806    12.000000000000
         C            7.380158486396     1.282563856791     0.365083694651    12.000000000000
         C            6.139795359397     0.565464972136     0.371412036463    12.000000000000
         H           -8.279194979072     3.298464390060     0.358321917299     1.007825032230
         H            8.315109291754     3.209464445559     0.359326436006     1.007825032230
         C           -8.591760117307     0.616178901980     0.364725435165    12.000000000000
         C           -8.599028783429    -0.741293457293     0.366848559748    12.000000000000
         C           -6.139817318844    -0.782790288218     0.359859218413    12.000000000000
         C           -7.380188291863    -1.499919840646     0.367275279954    12.000000000000
         C           -4.918688659982    -1.500408669094     0.372199716563    12.000000000000
         C           -3.684442475410    -0.795890966800     0.361167476498    12.000000000000
         C           -2.460821219973    -1.511998829889     0.371710562688    12.000000000000
         C           -1.231166192046    -0.810827515945     0.359590183896    12.000000000000
         C           -0.007573805113    -1.526072500475     0.367046708199    12.000000000000
         C            1.223643536163    -0.823929028328     0.377052330148    12.000000000000
         C            2.445666469606    -1.538296940071     0.365302317388    12.000000000000
         C            3.676862523121    -0.835361082620     0.361161732993    12.000000000000
         C            6.132244666694    -0.848632490914     0.359633758781    12.000000000000
         C            4.903514965779    -1.553111171605     0.373474833321    12.000000000000
         C            8.599010668965     0.523950215603     0.364945810795    12.000000000000
         C            8.591741308375    -0.833504518258     0.366682191057    12.000000000000
         C            7.364858584664    -1.578986316670     0.366452014364    12.000000000000
         H           -9.528310151544     1.168193798128     0.363255508201     1.007825032230
         H            9.541406794881     1.065918837380     0.363893778534     1.007825032230
         C           -7.369842089494    -2.888198796998     0.369083488376    12.000000000000
         C           -4.924603288776    -2.917090908405     0.361351855940    12.000000000000
         C           -6.166626675393    -3.625305843890     0.367653696099    12.000000000000
         C           -3.702514539430    -3.633335200185     0.371675925126    12.000000000000
         C           -2.467651164839    -2.929979613868     0.359631286769    12.000000000000
         C           -0.015137653833    -2.941795296464     0.359912875278    12.000000000000
         C           -1.247126020952    -3.643385826627     0.371476828686    12.000000000000
         C            1.209240889918    -3.656568329708     0.374015858478    12.000000000000
         C            2.437331842429    -2.956295389240     0.359876100167    12.000000000000
         C            4.894298164045    -2.969776619350     0.360696840238    12.000000000000
         C            3.664611075316    -3.672873496596     0.373576260179    12.000000000000
         C            6.128634835020    -3.691237708782     0.366922102136    12.000000000000
         C            7.339668484970    -2.967066958435     0.368437328218    12.000000000000
         H           -9.541453290984    -1.283217117729     0.368217975921     1.007825032230
         H            9.528257688346    -1.385572724969     0.367931998818     1.007825032230
         H           -8.315169223574    -3.426803504277     0.373255716907     1.007825032230
         H            8.279150962767    -3.515794440958     0.372776884201     1.007825032230
         C           -6.144998368428    -5.036300923848     0.368979694159    12.000000000000
         C           -3.706787527723    -5.049915365182     0.359158726071    12.000000000000
         C           -4.955594237727    -5.752147624559     0.367125860716    12.000000000000
         C           -2.486125505952    -5.763439225474     0.372098397116    12.000000000000
         C           -1.254062515205    -5.064775701066     0.360922791130    12.000000000000
         C            1.201008394143    -5.077934039257     0.362103915388    12.000000000000
         C           -0.030340854139    -5.778173954203     0.369947115052    12.000000000000
         C            3.653745921603    -5.089397426479     0.362861915136    12.000000000000
         C            2.425488516150    -5.789828286592     0.372238845688    12.000000000000
         C            6.091961438086    -5.101911614451     0.369216328810    12.000000000000
         C            4.894972264885    -5.805002072022     0.367980132979    12.000000000000
         H           -7.089896567766    -5.575653493303     0.373382455840     1.007825032230
         H            7.031051029475    -5.651312187397     0.372796108573     1.007825032230
         C           -4.923549501924    -7.187474750742     0.366571091811    12.000000000000
         C           -2.485346267963    -7.196381728994     0.364061199375    12.000000000000
         C           -3.751690071504    -7.872600808701     0.364255878300    12.000000000000
         C           -0.037953136713    -7.208118525534     0.364276924523    12.000000000000
         C           -1.277960280127    -7.881558035731     0.362292231761    12.000000000000
         C            2.409440141001    -7.222675663067     0.365140125334    12.000000000000
         C            1.194745757428    -7.894839016627     0.362987834452    12.000000000000
         C            4.847616872773    -7.239915761644     0.367646939993    12.000000000000
         C            3.668467426150    -7.912441644008     0.365298505630    12.000000000000
         H           -5.869944530142    -7.722484249106     0.368115128677     1.007825032230
         H            5.788245445663    -7.784985840379     0.368774059475     1.007825032230
         H           -3.753531119175    -8.959725220301     0.362419963872     1.007825032230
         H           -1.284308585620    -8.969529043562     0.357864847903     1.007825032230
         H            1.189217394970    -8.982814271654     0.358895197762     1.007825032230
         H            3.658542435098    -8.999514285118     0.363643964207     1.007825032230

  Charge       = 0
  Multiplicity = 1
  Basis Set: JUN-CC-PVDZ
    Blend: JUN-CC-PVDZ
  Basis Set: (JUN-CC-PVDZ AUX)
    Blend: JUN-CC-PVDZ-JKFIT

    Orbital Energies [Eh]
    ---------------------

    Doubly Occupied:

       1A    -11.264011     2A    -11.263695     3A    -11.263652
       4A    -11.263338     5A    -11.263311     6A    -11.263269
       7A    -11.263110     8A    -11.263098     9A    -11.263078
      10A    -11.262912    11A    -11.262763    12A    -11.262753
      13A    -11.262277    14A    -11.262270    15A    -11.262202
      16A    -11.262196    17A    -11.262130    18A    -11.262106
      19A    -11.262068    20A    -11.262026    21A    -11.262010
      22A    -11.261880    23A    -11.261870    24A    -11.261738
      25A    -11.261728    26A    -11.261705    27A    -11.261703
      28A    -11.261658    29A    -11.261650    30A    -11.261570
      31A    -11.261546    32A    -11.261545    33A    -11.261521
      34A    -11.261516    35A    -11.261499    36A    -11.261477
      37A    -11.261317    38A    -11.261309    39A    -11.261295
      40A    -11.261287    41A    -11.261278    42A    -11.261275
      43A    -11.261264    44A    -11.261253    45A    -11.261249
      46A    -11.261232    47A    -11.261219    48A    -11.261212
      49A    -11.261064    50A    -11.261037    51A    -11.261035
      52A    -11.260963    53A    -11.260959    54A    -11.260881
      55A    -11.259907    56A    -11.259882    57A    -11.259874
      58A    -11.259854    59A    -11.259841    60A    -11.259824
      61A    -11.259278    62A    -11.259249    63A    -11.259245
      64A    -11.259195    65A    -11.259192    66A    -11.259162
      67A    -11.258908    68A    -11.258882    69A    -11.258873
      70A    -11.258854    71A    -11.258843    72A    -11.258828
      73A    -11.254515    74A    -11.254511    75A    -11.254499
      76A    -11.254493    77A    -11.254489    78A    -11.254486
      79A    -11.253649    80A    -11.253633    81A    -11.253632
      82A    -11.253618    83A    -11.253615    84A    -11.253605
      85A    -11.253564    86A    -11.253547    87A    -11.253546
      88A    -11.253534    89A    -11.253530    90A    -11.253520
      91A    -11.253043    92A    -11.253038    93A    -11.253027
      94A    -11.253021    95A    -11.253016    96A    -11.253014
      97A     -1.253903    98A     -1.238965    99A     -1.238937
     100A     -1.220424   101A     -1.220412   102A     -1.215399
     103A     -1.201000   104A     -1.195562   105A     -1.188113
     106A     -1.188088   107A     -1.173724   108A     -1.173723
     109A     -1.155587   110A     -1.155580   111A     -1.152674
     112A     -1.144684   113A     -1.144681   114A     -1.128523
     115A     -1.114671   116A     -1.113125   117A     -1.112451
     118A     -1.112417   119A     -1.111581   120A     -1.088387
     121A     -1.088372   122A     -1.076925   123A     -1.076922
     124A     -1.067573   125A     -1.067540   126A     -1.064926
     127A     -1.046758   128A     -1.046749   129A     -1.040437
     130A     -1.038699   131A     -1.038695   132A     -1.025196
     133A     -1.021345   134A     -1.021278   135A     -1.007137
     136A     -1.006759   137A     -1.003754   138A     -1.000448
     139A     -1.000394   140A     -0.991040   141A     -0.970945
     142A     -0.970893   143A     -0.955846   144A     -0.955787
     145A     -0.905538   146A     -0.905517   147A     -0.905498
     148A     -0.905471   149A     -0.904279   150A     -0.892312
     151A     -0.892253   152A     -0.890311   153A     -0.890259
     154A     -0.889402   155A     -0.872179   156A     -0.869024
     157A     -0.851496   158A     -0.847810   159A     -0.847799
     160A     -0.845547   161A     -0.842965   162A     -0.834516
     163A     -0.834507   164A     -0.828082   165A     -0.828074
     166A     -0.784508   167A     -0.784499   168A     -0.783614
     169A     -0.783598   170A     -0.782242   171A     -0.782218
     172A     -0.781980   173A     -0.766938   174A     -0.760740
     175A     -0.750528   176A     -0.733446   177A     -0.727030
     178A     -0.726997   179A     -0.725033   180A     -0.724495
     181A     -0.724465   182A     -0.718444   183A     -0.713722
     184A     -0.713715   185A     -0.699537   186A     -0.699513
     187A     -0.686075   188A     -0.685912   189A     -0.685903
     190A     -0.682121   191A     -0.682114   192A     -0.678736
     193A     -0.653584   194A     -0.650828   195A     -0.650795
     196A     -0.649758   197A     -0.649751   198A     -0.649520
     199A     -0.640889   200A     -0.640843   201A     -0.640036
     202A     -0.639114   203A     -0.635976   204A     -0.635943
     205A     -0.629089   206A     -0.617754   207A     -0.615261
     208A     -0.615235   209A     -0.608751   210A     -0.608745
     211A     -0.599154   212A     -0.599117   213A     -0.598695
     214A     -0.598544   215A     -0.598533   216A     -0.597989
     217A     -0.595020   218A     -0.595007   219A     -0.594674
     220A     -0.594175   221A     -0.591906   222A     -0.591902
     223A     -0.587335   224A     -0.577758   225A     -0.577741
     226A     -0.575687   227A     -0.575683   228A     -0.573328
     229A     -0.569549   230A     -0.568094   231A     -0.568067
     232A     -0.566702   233A     -0.566695   234A     -0.560873
     235A     -0.558674   236A     -0.558635   237A     -0.558385
     238A     -0.554317   239A     -0.550549   240A     -0.547434
     241A     -0.544260   242A     -0.534982   243A     -0.534972
     244A     -0.533489   245A     -0.533472   246A     -0.528030
     247A     -0.528013   248A     -0.527736   249A     -0.517117
     250A     -0.517088   251A     -0.515331   252A     -0.515328
     253A     -0.509592   254A     -0.509580   255A     -0.497971
     256A     -0.496402   257A     -0.496364   258A     -0.493773
     259A     -0.493749   260A     -0.489401   261A     -0.481401
     262A     -0.477387   263A     -0.477387   264A     -0.473941
     265A     -0.469376   266A     -0.466465   267A     -0.466464
     268A     -0.458780   269A     -0.446621   270A     -0.446567
     271A     -0.441005   272A     -0.440732   273A     -0.440711
     274A     -0.434654   275A     -0.433871   276A     -0.407343
     277A     -0.407319   278A     -0.386371   279A     -0.386329
     280A     -0.385694   281A     -0.385693   282A     -0.383706
     283A     -0.354286   284A     -0.354265   285A     -0.350622
     286A     -0.338074   287A     -0.335551   288A     -0.335475
     289A     -0.332671   290A     -0.332670   291A     -0.307031
     292A     -0.301912   293A     -0.301845   294A     -0.300801
     295A     -0.286130   296A     -0.256433   297A     -0.253448
     298A     -0.253399   299A     -0.204222   300A     -0.204129

  @DF-RHF Final Energy: -3650.34071962856251

   => Energetics <=

    Nuclear Repulsion Energy =          15611.4211649754306563
    One-Electron Energy =              -36072.1688479439180810
    Two-Electron Energy =               16810.4069633399267332
    Total Energy =                      -3650.3407196285625105
 Dipole X            :         -0.0007098            0.0002112           -0.0004986
 Dipole Y            :        123.2188895         -123.2131634            0.0057261
 Dipole Z            :       -414.9318844          414.9386586            0.0067742
 Magnitude           :                                                    0.0088840

    SAPT Results
  --------------------------------------------------------------------------------------------------------
    Electrostatics                -12.51733773 [mEh]      -7.85474801 [kcal/mol]     -32.86426568 [kJ/mol]
      Elst10,r                    -12.51733773 [mEh]      -7.85474801 [kcal/mol]     -32.86426568 [kJ/mol]

    Exchange                        3.21037546 [mEh]       2.01454102 [kcal/mol]       8.42883962 [kJ/mol]
      Exch10                        3.21037546 [mEh]       2.01454102 [kcal/mol]       8.42883962 [kJ/mol]
      Exch10(S^2)                   3.20699640 [mEh]       2.01242063 [kcal/mol]       8.41996790 [kJ/mol]

    Induction                     -12.55007340 [mEh]      -7.87528996 [kcal/mol]     -32.95021318 [kJ/mol]
      Ind20,r                     -12.10251871 [mEh]      -7.59444515 [kcal/mol]     -31.77515849 [kJ/mol]
      Exch-Ind20,r                  0.74449590 [mEh]       0.46717823 [kcal/mol]       1.95467372 [kJ/mol]
      delta HF,r (2)               -1.19205060 [mEh]      -0.74802304 [kcal/mol]      -3.12972841 [kJ/mol]

    Dispersion                    -12.64245478 [mEh]      -7.93326015 [kcal/mol]     -33.19276046 [kJ/mol]
      Disp20                      -12.95723689 [mEh]      -8.13078890 [kcal/mol]     -34.01922076 [kJ/mol]
      Exch-Disp20                   0.31478210 [mEh]       0.19752875 [kcal/mol]       0.82646029 [kJ/mol]
      Disp20 (SS)                  -6.47861844 [mEh]      -4.06539445 [kcal/mol]     -17.00961038 [kJ/mol]
      Disp20 (OS)                  -6.47861844 [mEh]      -4.06539445 [kcal/mol]     -17.00961038 [kJ/mol]
      Exch-Disp20 (SS)              0.19965170 [mEh]       0.12528333 [kcal/mol]       0.52418546 [kJ/mol]
      Exch-Disp20 (OS)              0.11513040 [mEh]       0.07224542 [kcal/mol]       0.30227483 [kJ/mol]

  Total HF                        -21.85703567 [mEh]     -13.71549695 [kcal/mol]     -57.38563924 [kJ/mol]
  Total SAPT0                     -34.49949045 [mEh]     -21.64875710 [kcal/mol]     -90.57839971 [kJ/mol]

  Special recipe for scaled SAPT0 (see Manual):
    Electrostatics sSAPT0         -12.51733773 [mEh]      -7.85474801 [kcal/mol]     -32.86426568 [kJ/mol]
    Exchange sSAPT0                 3.21037546 [mEh]       2.01454102 [kcal/mol]       8.42883962 [kJ/mol]
    Induction sSAPT0              -12.54771760 [mEh]      -7.87381167 [kcal/mol]     -32.94402803 [kJ/mol]
    Dispersion sSAPT0             -12.64145872 [mEh]      -7.93263511 [kcal/mol]     -33.19014530 [kJ/mol]
  Total sSAPT0                    -34.49613859 [mEh]     -21.64665378 [kcal/mol]     -90.56959940 [kJ/mol]
  --------------------------------------------------------------------------------------------------------

*** Psi4 exiting successfully. Buy a developer a beer!
