                               Psi4 1.9 release

  ==> Input File <==

--------------------------------------------------------------------------
memory 47 GB # how much memory is available ! Depends on the nodes/cores !

molecule dimer {
# monomer A
-1 1    # Charge and multiplicity
B -1.977592e-04  2.742729e-04 -5.999966
F  1.123153e-16  1.430594e-17 -4.587181
F  1.147860e+00  6.757812e-01 -6.471107
F  1.191806e-02 -1.332011e+00 -6.470905
F -1.159666e+00  6.560735e-01 -6.470826
--
# monomer B
0 1     # Charge and multiplicity
C   -3.66844126402057      7.80375217008252      0.00190004133558
C   -4.84759871934653      7.13124183134024     -0.00046653359696
C   -4.89495929917518      5.69633040353158     -0.00103944469517
C   -3.65374067877320      4.98073034095895      0.00662099703436
C   -2.40942512149445      7.11398103667468      0.00209438359570
C   -2.42547734410473      5.68112195090346     -0.00491050527438
C   -1.19474401643570      7.78614419430947      0.00356656413763
C   0.03795902893699      7.09942164575698      0.00139585983271
C   0.03033258741920      5.66948955970466     -0.00408752508301
C   -1.20098450790502      4.96927034791531      0.00488220885047
C   1.27795782581485      7.77285944319479      0.00277170839332
C   2.48535808472416      7.08769688523756      0.00049722048857
C   2.48612868491717      5.65477081024076     -0.00644052849921
C   1.25408291964399      4.95607811366431      0.00518741308898
C   3.75171459140595      7.76391215098033      0.00062407186893
C   4.92356605618520      7.07878077698995     -0.00143240883900
C   4.95560727132542      5.64344746336949     -0.00159282164606
C   3.70680153420475      4.94121020833308      0.00349873852374
H   -3.65852113775815      8.89082741913536      0.00358502958574
H   -1.18921332975660      8.87412108735996      0.00753844057883
H   1.28429423888630      8.86083343548850      0.00693053253426
H   3.75354208679975      8.85103527897216      0.00214659618464
H   5.86995870320703      7.61379483465560     -0.00235777588134
H   -5.78823170750226      7.67630221293400     -0.00202638095293
C   -6.09197395869619      4.99326001364347     -0.00291168518608
C   -6.12866148031747      3.58258016879823     -0.00171050815740
C   -3.66457974004527      3.56418217974434     -0.00463560277484
C   -4.89429820469869      2.86108077590057      0.00453338221034
C   -2.43733499489796      2.84761165708481      0.00719617576166
C   -1.20922785759670      3.54788693497833     -0.00648285103018
C   1.24714157216223      3.53468075142962     -0.00729145743546
C   0.01517603956900      2.83311183930540      0.00439272578912
C   2.46764517244071      2.82128997725533      0.00449278391269
C   3.70254947457969      3.52466015442405     -0.00899517692985
C   6.14498038638375      4.92757236613191     -0.00282626685777
C   6.16658835886151      3.51658447594213     -0.00065971342101
C   4.92460995845939      2.80840792535402      0.00587903281610
H   7.08990550964105      5.46688776622306     -0.00658814770723
H   -7.03104175110130      5.54268795285765     -0.00714490013730
C   -7.33969804112295      2.85841153457957     -0.00333767559888
C   -7.36488195805880      1.47032337158330     -0.00157213747140
C   -4.90350460894690      1.44442681216000     -0.00628840166334
C   -6.13225715261081      0.73993935705394      0.00600164231964
C   -3.67687480051673      0.72669714267312      0.00433931473643
C   -2.44565658606518      1.42964113326212     -0.00597039546461
C   -1.22360068130162      0.71532450163492      0.00545886906656
C   0.00763786931376      1.41738314923765      0.00392452278437
C   1.23121980774686      0.70211669058719     -0.01490206287210
C   2.46082110053113      1.40329203612573      0.00460244601878
C   3.68443025419614      0.68719842821222      0.00377365974158
C   4.91870890153864      1.39173456118907     -0.00862816189375
C   7.36980207796101      2.77948220318441     -0.00242013321349
C   7.38016266612146      1.39121750785509     -0.00087345036788
C   6.13979953912259      0.67411862320065      0.00545489144369
H   -8.27919079934664      3.40711804112415     -0.00763522772059
H   8.31511347147953      3.31811809662368     -0.00663070901292
C   -8.59175593758115      0.72483255304480     -0.00123170985383
C   -8.59902460370342     -0.63263980622873      0.00089141472904
C   -6.13981313911873     -0.67413663715361     -0.00609792660607
C   -7.38018411213749     -1.39126618958160      0.00131813493501
C   -4.91868448025621     -1.39175501803000      0.00624257154343
C   -3.68443829568458     -0.68723731573599     -0.00478966852105
C   -2.46081704024768     -1.40334517882457      0.00575341766833
C   -1.23116201232071     -0.70217386488055     -0.00636696112346
C   -0.00756962538737     -1.41741884941102      0.00108956317991
C   1.22364771588843     -0.71527537726392      0.01109518512883
C   2.44567064933149     -1.42964328900682     -0.00065482763106
C   3.67686670284649     -0.72670743155550     -0.00479541202602
C   6.13224884641929     -0.73997883984993     -0.00632338623858
C   4.90351914550401     -1.44445752054090      0.00751768830159
C   8.59901484869081      0.63260386666793     -0.00101133422380
C   8.59174548810050     -0.72485086719319      0.00072504603735
C   7.36486276438985     -1.47033266560598      0.00049486934466
H   -9.52830597181814      1.27684744919284     -0.00270163681798
H   9.54141097460619      1.17457248844457     -0.00206336648518
C   -7.36983790976868     -2.77954514593389      0.00312634335708
C   -4.92459910905015     -2.80843725734101     -0.00460528907921
C   -6.16662249566744     -3.51665219282533      0.00169655107992
C   -3.70251035970491     -3.52468154912026      0.00571878010666
C   -2.46764698511392     -2.82132596280400     -0.00632585824990
C   -0.01513347410770     -2.83314164539971     -0.00604426974092
C   -1.24712184122656     -3.53473217556300      0.00551968366725
C   1.20924506964357     -3.54791467864352      0.00805871345849
C   2.43733602215464     -2.84764173817541     -0.00608104485234
C   4.89430234377080     -2.86112296828604     -0.00526030478103
C   3.66461525504104     -3.56421984553201      0.00761911515957
C   6.12863901474565     -3.58258405771778      0.00096495711699
C   7.33967266469532     -2.85841330737039      0.00248018319869
H   -9.54144911125902     -1.17456346666430      0.00226083090216
H   9.52826186807155     -1.27691907390448      0.00197485379837
H   -8.31516504384864     -3.31814985321231      0.00729857188773
H   8.27915514249207     -3.40714078989363      0.00681973918158
C   -6.14499418870218     -4.92764727278338      0.00302254913999
C   -3.70678334799751     -4.94126171411716     -0.00679841894792
C   -4.95559005800169     -5.64349397349412      0.00116871569699
C   -2.48612132622665     -5.65478557440947      0.00614125209662
C   -1.25405833548005     -4.95612205000132     -0.00503435388927
C   1.20101257386816     -4.96928038819302     -0.00385322963129
C   -0.03033667441341     -5.66952030313900      0.00398997003238
C   3.65375010132847     -4.98074377541453     -0.00309522988330
C   2.42549269587528     -5.68117463552727      0.00628170066869
C   6.09196561781097     -4.99325796338655      0.00325918379042
C   4.89497644461045     -5.69634842095790      0.00202298796027
H   -7.08989238804069     -5.46699984223871      0.00742531082125
H   7.03105520920009     -5.54265853633254      0.00683896355417
C   -4.92354532219813     -7.07882109967734      0.00061394679214
C   -2.48534208823777     -7.08772807792913     -0.00189594564379
C   -3.75168589177895     -7.76394715763627     -0.00170126671874
C   -0.03794895698805     -7.09946487446944     -0.00168022049625
C   -1.27795610040136     -7.77290438466689     -0.00366491325785
C   2.40944432072629     -7.11402201200282     -0.00081701968533
C   1.19474993715296     -7.78618536556242     -0.00296931056689
C   4.84762105249800     -7.13126211057943      0.00168979497423
C   3.66847160587561     -7.80378799294376     -0.00065863938960
H   -5.86994035041618     -7.61383059804164      0.00215798365757
H   5.78824962538815     -7.67633218931421      0.00281691445618
H   -3.75352693944918     -8.85107156923607     -0.00353718114765
H   -1.28430440589466     -8.86087539249706     -0.00809229711623
H   1.18922157469537     -8.87416062058945     -0.00706194725726
H   3.65854661482387     -8.89086063405326     -0.00231318081200

    units angstrom      # Angstroms are the default
    no_reorient         # Geometry fixed, default
    symmetry c1         # C1 symmetry, default
}

set {
    scf_type DF         # Density fitting, faster than exact integrals
    freeze_core True    # Freeze core electrons
    basis jun-cc-pVDZ   # Jun-cc-pVDZ basis set, recommended for sSAPT0 in https://doi.org/10.1063/1.4867135
}

energy('ssapt0')        # Compute sSAPT0 energy, includes also SAPT0
--------------------------------------------------------------------------

  //              Dimer HF             //
    Molecular point group: c1
  Charge       = -1
  Multiplicity = 1
  Basis Set: JUN-CC-PVDZ
    Blend: JUN-CC-PVDZ
  Basis Set: (JUN-CC-PVDZ AUX)
    Blend: JUN-CC-PVDZ-JKFIT
  @DF-RHF Final Energy: -4073.10552068749257
    Total Energy =                      -4073.1055206874916621
 Dipole X            :         -0.0004393           -0.0000548           -0.0004941
 Dipole Y            :          0.0009312           -0.0002464            0.0006849
 Dipole Z            :        -26.2539633           35.7064430            9.4524796
 Magnitude           :                                                    9.4524797
  //            Monomer A HF           //
    Molecular point group: c1
  Multiplicity = 1
  Basis Set: JUN-CC-PVDZ
    Blend: JUN-CC-PVDZ
  Basis Set: (JUN-CC-PVDZ AUX)
    Blend: JUN-CC-PVDZ-JKFIT
  @DF-RHF Final Energy:  -422.77172004545940
    Total Energy =                       -422.7717200454594035
  //            Monomer B HF           //
    Molecular point group: c1

    Geometry (in Angstrom), charge = 0, multiplicity = 1:

       Center              X                  Y                   Z               Mass
    ------------   -----------------  -----------------  -----------------  -----------------
      Gh(B)          -0.000201921932     0.000288800891    -5.586716012534    11.009305360000
      Gh(F)          -0.000004162732     0.000014527991    -4.173931012534    18.998403162730
      Gh(F)           1.147855837268     0.675795727991    -6.057857012534    18.998403162730
      Gh(F)           0.011913897268    -1.331996472009    -6.057655012534    18.998403162730
      Gh(F)          -1.159670162732     0.656088027991    -6.057576012534    18.998403162730
         C           -3.668445426752     7.803766698073     0.415150028802    12.000000000000
         C           -4.847602882078     7.131256359331     0.412783453869    12.000000000000
         C           -4.894963461907     5.696344931522     0.412210542771    12.000000000000
         C           -3.653744841505     4.980744868950     0.419870984500    12.000000000000
         C           -2.409429284226     7.113995564665     0.415344371062    12.000000000000
         C           -2.425481506836     5.681136478894     0.408339482192    12.000000000000
         C           -1.194748179167     7.786158722300     0.416816551604    12.000000000000
         C            0.037954866205     7.099436173748     0.414645847299    12.000000000000
         C            0.030328424687     5.669504087695     0.409162462383    12.000000000000
         C           -1.200988670637     4.969284875906     0.418132196317    12.000000000000
         C            1.277953663083     7.772873971185     0.416021695859    12.000000000000
         C            2.485353921992     7.087711413228     0.413747207955    12.000000000000
         C            2.486124522185     5.654785338231     0.406809458967    12.000000000000
         C            1.254078756912     4.956092641655     0.418437400555    12.000000000000
         C            3.751710428674     7.763926678971     0.413874059335    12.000000000000
         C            4.923561893453     7.078795304981     0.411817578627    12.000000000000
         C            4.955603108594     5.643461991360     0.411657165820    12.000000000000
         C            3.706797371473     4.941224736324     0.416748725990    12.000000000000
         H           -3.658525300490     8.890841947126     0.416835017052     1.007825032230
         H           -1.189217492488     8.874135615351     0.420788428045     1.007825032230
         H            1.284290076155     8.860847963479     0.420180520000     1.007825032230
         H            3.753537924068     8.851049806963     0.415396583651     1.007825032230
         H            5.869954540475     7.613809362646     0.410892211585     1.007825032230
         H           -5.788235870234     7.676316740925     0.411223606513     1.007825032230
         C           -6.091978121428     4.993274541634     0.410338302280    12.000000000000
         C           -6.128665643049     3.582594696789     0.411539479309    12.000000000000
         C           -3.664583902777     3.564196707735     0.408614384691    12.000000000000
         C           -4.894302367430     2.861095303891     0.417783369676    12.000000000000
         C           -2.437339157630     2.847626185075     0.420446163228    12.000000000000
         C           -1.209232020328     3.547901462969     0.406767136436    12.000000000000
         C            1.247137409430     3.534695279420     0.405958530031    12.000000000000
         C            0.015171876837     2.833126367296     0.417642713255    12.000000000000
         C            2.467641009709     2.821304505246     0.417742771379    12.000000000000
         C            3.702545311848     3.524674682415     0.404254810536    12.000000000000
         C            6.144976223652     4.927586894122     0.410423720608    12.000000000000
         C            6.166584196130     3.516599003933     0.412590274045    12.000000000000
         C            4.924605795728     2.808422453345     0.419129020282    12.000000000000
         H            7.089901346909     5.466902294214     0.406661839759     1.007825032230
         H           -7.031045913833     5.542702480848     0.406105087329     1.007825032230
         C           -7.339702203855     2.858426062570     0.409912311867    12.000000000000
         C           -7.364886120791     1.470337899574     0.411677849995    12.000000000000
         C           -4.903508771679     1.444441340151     0.406961585803    12.000000000000
         C           -6.132261315343     0.739953885044     0.419251629786    12.000000000000
         C           -3.676878963248     0.726711670664     0.417589302202    12.000000000000
         C           -2.445660748797     1.429655661253     0.407279592001    12.000000000000
         C           -1.223604844033     0.715339029625     0.418708856533    12.000000000000
         C            0.007633706582     1.417397677228     0.417174510250    12.000000000000
         C            1.231215645015     0.702131218578     0.398347924594    12.000000000000
         C            2.460816937799     1.403306564116     0.417852433485    12.000000000000
         C            3.684426091464     0.687212956203     0.417023647208    12.000000000000
         C            4.918704738807     1.391749089180     0.404621825572    12.000000000000
         C            7.369797915229     2.779496731175     0.410829854253    12.000000000000
         C            7.380158503390     1.391232035846     0.412376537098    12.000000000000
         C            6.139795376391     0.674133151191     0.418704878910    12.000000000000
         H           -8.279194962078     3.407132569115     0.405614759745     1.007825032230
         H            8.315109308748     3.318132624614     0.406619278453     1.007825032230
         C           -8.591760100313     0.724847081035     0.412018277612    12.000000000000
         C           -8.599028766435    -0.632625278238     0.414141402195    12.000000000000
         C           -6.139817301850    -0.674122109163     0.407152060860    12.000000000000
         C           -7.380188274869    -1.391251661591     0.414568122401    12.000000000000
         C           -4.918688642988    -1.391740490039     0.419492559009    12.000000000000
         C           -3.684442458416    -0.687222787745     0.408460318945    12.000000000000
         C           -2.460821202979    -1.403330650834     0.419003405134    12.000000000000
         C           -1.231166175052    -0.702159336890     0.406883026343    12.000000000000
         C           -0.007573788119    -1.417404321420     0.414339550646    12.000000000000
         C            1.223643553157    -0.715260849273     0.424345172595    12.000000000000
         C            2.445666486600    -1.429628761016     0.412595159835    12.000000000000
         C            3.676862540115    -0.726692903565     0.408454575440    12.000000000000
         C            6.132244683688    -0.739964311859     0.406926601227    12.000000000000
         C            4.903514982772    -1.444442992550     0.420767675768    12.000000000000
         C            8.599010685959     0.632618394658     0.412238653242    12.000000000000
         C            8.591741325369    -0.724836339203     0.413975033503    12.000000000000
         C            7.364858601658    -1.470318137615     0.413744856811    12.000000000000
         H           -9.528310134550     1.276861977183     0.410548350648     1.007825032230
         H            9.541406811874     1.174587016435     0.411186620981     1.007825032230
         C           -7.369842072500    -2.779530617943     0.416376330823    12.000000000000
         C           -4.924603271782    -2.808422729350     0.408644698387    12.000000000000
         C           -6.166626658399    -3.516637664835     0.414946538546    12.000000000000
         C           -3.702514522437    -3.524667021130     0.418968767573    12.000000000000
         C           -2.467651147846    -2.821311434813     0.406924129216    12.000000000000
         C           -0.015137636839    -2.833127117409     0.407205717725    12.000000000000
         C           -1.247126003958    -3.534717647572     0.418769671133    12.000000000000
         C            1.209240906912    -3.547900150653     0.421308700925    12.000000000000
         C            2.437331859423    -2.847627210185     0.407168942614    12.000000000000
         C            4.894298181039    -2.861108440295     0.407989682685    12.000000000000
         C            3.664611092309    -3.564205317541     0.420869102626    12.000000000000
         C            6.128634852014    -3.582569529727     0.414214944583    12.000000000000
         C            7.339668501964    -2.858398779380     0.415730170665    12.000000000000
         H           -9.541453273991    -1.174548938674     0.415510818368     1.007825032230
         H            9.528257705340    -1.276904545914     0.415224841264     1.007825032230
         H           -8.315169206580    -3.318135325222     0.420548559354     1.007825032230
         H            8.279150979760    -3.407126261903     0.420069726648     1.007825032230
         C           -6.144998351434    -4.927632744793     0.416272536606    12.000000000000
         C           -3.706787510729    -4.941247186127     0.406451568518    12.000000000000
         C           -4.955594220733    -5.643479445504     0.414418703163    12.000000000000
         C           -2.486125488958    -5.654771046419     0.419391239563    12.000000000000
         C           -1.254062498212    -4.956107522011     0.408215633577    12.000000000000
         C            1.201008411136    -4.969265860202     0.409396757835    12.000000000000
         C           -0.030340837145    -5.669505775148     0.417239957498    12.000000000000
         C            3.653745938597    -4.980729247424     0.410154757583    12.000000000000
         C            2.425488533144    -5.681160107537     0.419531688135    12.000000000000
         C            6.091961455079    -4.993243435396     0.416509171256    12.000000000000
         C            4.894972281879    -5.696333892967     0.415272975426    12.000000000000
         H           -7.089896550772    -5.466985314248     0.420675298287     1.007825032230
         H            7.031051046468    -5.542644008342     0.420088951020     1.007825032230
         C           -4.923549484930    -7.078806571687     0.413863934258    12.000000000000
         C           -2.485346250970    -7.087713549939     0.411354041822    12.000000000000
         C           -3.751690054511    -7.763932629646     0.411548720747    12.000000000000
         C           -0.037953119720    -7.099450346479     0.411569766970    12.000000000000
         C           -1.277960263133    -7.772889856676     0.409585074208    12.000000000000
         C            2.409440157995    -7.114007484012     0.412432967781    12.000000000000
         C            1.194745774421    -7.786170837572     0.410280676899    12.000000000000
         C            4.847616889766    -7.131247582589     0.414939782440    12.000000000000
         C            3.668467443144    -7.803773464953     0.412591348076    12.000000000000
         H           -5.869944513148    -7.613816070051     0.415407971124     1.007825032230
         H            5.788245462656    -7.676317661324     0.416066901922     1.007825032230
         H           -3.753531102181    -8.851057041246     0.409712806318     1.007825032230
         H           -1.284308568626    -8.860860864507     0.405157690350     1.007825032230
         H            1.189217411964    -8.874146092599     0.406188040209     1.007825032230
         H            3.658542452092    -8.890846106063     0.410936806654     1.007825032230

  Charge       = 0
  Multiplicity = 1
  Basis Set: JUN-CC-PVDZ
    Blend: JUN-CC-PVDZ
  Basis Set: (JUN-CC-PVDZ AUX)
    Blend: JUN-CC-PVDZ-JKFIT

    Orbital Energies [Eh]
    ---------------------

    Doubly Occupied:

       1A    -11.264058     2A    -11.263725     3A    -11.263723
       4A    -11.263358     5A    -11.263354     6A    -11.263329
       7A    -11.263160     8A    -11.263159     9A    -11.263157
      10A    -11.262977    11A    -11.262824    12A    -11.262819
      13A    -11.262339    14A    -11.262336    15A    -11.262280
      16A    -11.262280    17A    -11.262212    18A    -11.262186
      19A    -11.262133    20A    -11.262099    21A    -11.262097
      22A    -11.261959    23A    -11.261955    24A    -11.261822
      25A    -11.261814    26A    -11.261797    27A    -11.261791
      28A    -11.261749    29A    -11.261741    30A    -11.261663
      31A    -11.261637    32A    -11.261634    33A    -11.261605
      34A    -11.261604    35A    -11.261580    36A    -11.261563
      37A    -11.261402    38A    -11.261392    39A    -11.261386
      40A    -11.261379    41A    -11.261375    42A    -11.261367
      43A    -11.261359    44A    -11.261344    45A    -11.261339
      46A    -11.261317    47A    -11.261313    48A    -11.261310
      49A    -11.261147    50A    -11.261113    51A    -11.261109
      52A    -11.261027    53A    -11.261026    54A    -11.260957
      55A    -11.260001    56A    -11.259988    57A    -11.259986
      58A    -11.259957    59A    -11.259954    60A    -11.259939
      61A    -11.259377    62A    -11.259352    63A    -11.259350
      64A    -11.259297    65A    -11.259295    66A    -11.259266
      67A    -11.259005    68A    -11.258988    69A    -11.258986
      70A    -11.258958    71A    -11.258956    72A    -11.258944
      73A    -11.254581    74A    -11.254580    75A    -11.254578
      76A    -11.254576    77A    -11.254571    78A    -11.254568
      79A    -11.253728    80A    -11.253726    81A    -11.253724
      82A    -11.253722    83A    -11.253720    84A    -11.253715
      85A    -11.253643    86A    -11.253641    87A    -11.253639
      88A    -11.253638    89A    -11.253636    90A    -11.253630
      91A    -11.253109    92A    -11.253108    93A    -11.253106
      94A    -11.253103    95A    -11.253098    96A    -11.253096
      97A     -1.254086    98A     -1.239116    99A     -1.239116
     100A     -1.220567   101A     -1.220562   102A     -1.215561
     103A     -1.201132   104A     -1.195701   105A     -1.188261
     106A     -1.188259   107A     -1.173852   108A     -1.173849
     109A     -1.155746   110A     -1.155742   111A     -1.152837
     112A     -1.144806   113A     -1.144803   114A     -1.128678
     115A     -1.114832   116A     -1.113246   117A     -1.112597
     118A     -1.112583   119A     -1.111698   120A     -1.088537
     121A     -1.088522   122A     -1.077042   123A     -1.077041
     124A     -1.067725   125A     -1.067695   126A     -1.065088
     127A     -1.046901   128A     -1.046893   129A     -1.040586
     130A     -1.038815   131A     -1.038814   132A     -1.025358
     133A     -1.021515   134A     -1.021465   135A     -1.007272
     136A     -1.006919   137A     -1.003889   138A     -1.000604
     139A     -1.000556   140A     -0.991152   141A     -0.971096
     142A     -0.971047   143A     -0.955971   144A     -0.955915
     145A     -0.905722   146A     -0.905680   147A     -0.905625
     148A     -0.905585   149A     -0.904472   150A     -0.892501
     151A     -0.892442   152A     -0.890480   153A     -0.890423
     154A     -0.889567   155A     -0.872302   156A     -0.869123
     157A     -0.851630   158A     -0.847983   159A     -0.847962
     160A     -0.845714   161A     -0.843134   162A     -0.834662
     163A     -0.834650   164A     -0.828196   165A     -0.828192
     166A     -0.784647   167A     -0.784636   168A     -0.783767
     169A     -0.783740   170A     -0.782395   171A     -0.782375
     172A     -0.782149   173A     -0.767089   174A     -0.760920
     175A     -0.750689   176A     -0.733568   177A     -0.727170
     178A     -0.727158   179A     -0.725193   180A     -0.724638
     181A     -0.724620   182A     -0.718613   183A     -0.713888
     184A     -0.713882   185A     -0.699671   186A     -0.699659
     187A     -0.686250   188A     -0.686045   189A     -0.686042
     190A     -0.682266   191A     -0.682255   192A     -0.678873
     193A     -0.653717   194A     -0.650968   195A     -0.650939
     196A     -0.649929   197A     -0.649913   198A     -0.649650
     199A     -0.641050   200A     -0.641023   201A     -0.640176
     202A     -0.639243   203A     -0.636127   204A     -0.636101
     205A     -0.629242   206A     -0.617734   207A     -0.615386
     208A     -0.615366   209A     -0.608893   210A     -0.608887
     211A     -0.599162   212A     -0.599125   213A     -0.598843
     214A     -0.598721   215A     -0.598695   216A     -0.598148
     217A     -0.595152   218A     -0.595140   219A     -0.594819
     220A     -0.594358   221A     -0.592059   222A     -0.592056
     223A     -0.587518   224A     -0.577863   225A     -0.577853
     226A     -0.575714   227A     -0.575710   228A     -0.573472
     229A     -0.569628   230A     -0.568253   231A     -0.568230
     232A     -0.566853   233A     -0.566842   234A     -0.560982
     235A     -0.558825   236A     -0.558807   237A     -0.558498
     238A     -0.554466   239A     -0.550612   240A     -0.547542
     241A     -0.544322   242A     -0.535025   243A     -0.534985
     244A     -0.533624   245A     -0.533601   246A     -0.528160
     247A     -0.528145   248A     -0.527916   249A     -0.517271
     250A     -0.517237   251A     -0.515408   252A     -0.515403
     253A     -0.509724   254A     -0.509708   255A     -0.498117
     256A     -0.496543   257A     -0.496517   258A     -0.493818
     259A     -0.493807   260A     -0.489495   261A     -0.481534
     262A     -0.477472   263A     -0.477469   264A     -0.474083
     265A     -0.469547   266A     -0.466624   267A     -0.466619
     268A     -0.458857   269A     -0.446814   270A     -0.446753
     271A     -0.441076   272A     -0.440814   273A     -0.440791
     274A     -0.434741   275A     -0.433960   276A     -0.407426
     277A     -0.407402   278A     -0.386461   279A     -0.386413
     280A     -0.385783   281A     -0.385781   282A     -0.383812
     283A     -0.354381   284A     -0.354365   285A     -0.350718
     286A     -0.338130   287A     -0.335652   288A     -0.335582
     289A     -0.332764   290A     -0.332758   291A     -0.307143
     292A     -0.301996   293A     -0.301933   294A     -0.300896
     295A     -0.286222   296A     -0.256513   297A     -0.253559
     298A     -0.253507   299A     -0.204312   300A     -0.204223

  @DF-RHF Final Energy: -3650.33819069162746

   => Energetics <=

    Nuclear Repulsion Energy =          15611.4211649754324753
    One-Electron Energy =              -36072.0939053014808451
    Two-Electron Energy =               16810.3345496344227286
    Total Energy =                      -3650.3381906916256412
 Dipole X            :         -0.0008265            0.0002304           -0.0005961
 Dipole Y            :          0.0011118           -0.0013052           -0.0001934
 Dipole Z            :       -468.5575287          468.5609705            0.0034418
 Magnitude           :                                                    0.0034983

    SAPT Results
  --------------------------------------------------------------------------------------------------------
    Electrostatics                  9.65342619 [mEh]       6.05761639 [kcal/mol]      25.34506698 [kJ/mol]
      Elst10,r                      9.65342619 [mEh]       6.05761639 [kcal/mol]      25.34506698 [kJ/mol]

    Exchange                        0.00766507 [mEh]       0.00480990 [kcal/mol]       0.02012464 [kJ/mol]
      Exch10                        0.00766507 [mEh]       0.00480990 [kcal/mol]       0.02012464 [kJ/mol]
      Exch10(S^2)                   0.00766519 [mEh]       0.00480998 [kcal/mol]       0.02012495 [kJ/mol]

    Induction                      -5.27104167 [mEh]      -3.30762858 [kcal/mol]     -13.83911800 [kJ/mol]
      Ind20,r                      -5.31054420 [mEh]      -3.33241680 [kcal/mol]     -13.94283189 [kJ/mol]
      Exch-Ind20,r                  0.00436705 [mEh]       0.00274036 [kcal/mol]       0.01146568 [kJ/mol]
      delta HF,r (2)                0.03513549 [mEh]       0.02204785 [kcal/mol]       0.09224821 [kJ/mol]

    Dispersion                     -1.10996263 [mEh]      -0.69651206 [kcal/mol]      -2.91420647 [kJ/mol]
      Disp20                       -1.11466853 [mEh]      -0.69946506 [kcal/mol]      -2.92656181 [kJ/mol]
      Exch-Disp20                   0.00470590 [mEh]       0.00295300 [kcal/mol]       0.01235534 [kJ/mol]
      Disp20 (SS)                  -0.55733426 [mEh]      -0.34973253 [kcal/mol]      -1.46328090 [kJ/mol]
      Disp20 (OS)                  -0.55733426 [mEh]      -0.34973253 [kcal/mol]      -1.46328090 [kJ/mol]
      Exch-Disp20 (SS)              0.00347649 [mEh]       0.00218153 [kcal/mol]       0.00912753 [kJ/mol]
      Exch-Disp20 (OS)              0.00122941 [mEh]       0.00077146 [kcal/mol]       0.00322781 [kJ/mol]

  Total HF                          4.39004959 [mEh]       2.75479771 [kcal/mol]      11.52607362 [kJ/mol]
  Total SAPT0                       3.28008697 [mEh]       2.05828565 [kcal/mol]       8.61186715 [kJ/mol]

  Special recipe for scaled SAPT0 (see Manual):
    Electrostatics sSAPT0           9.65342619 [mEh]       6.05761639 [kcal/mol]      25.34506698 [kJ/mol]
    Exchange sSAPT0                 0.00766507 [mEh]       0.00480990 [kcal/mol]       0.02012464 [kJ/mol]
    Induction sSAPT0               -5.27104167 [mEh]      -3.30762858 [kcal/mol]     -13.83911800 [kJ/mol]
    Dispersion sSAPT0              -1.10996263 [mEh]      -0.69651206 [kcal/mol]      -2.91420647 [kJ/mol]
  Total sSAPT0                      3.28008697 [mEh]       2.05828565 [kcal/mol]       8.61186715 [kJ/mol]
  --------------------------------------------------------------------------------------------------------

*** Psi4 exiting successfully. Buy a developer a beer!
