                               Psi4 1.9 release

  ==> Input File <==

--------------------------------------------------------------------------
memory 80 GB # how much memory is available ! Depends on the nodes/cores !

molecule dimer {
# monomer A
-1 1    # Charge and multiplicity
B -1.977592e-04  2.742729e-04 2.700034
F  1.123153e-16  1.430594e-17 4.112819
F  1.147860e+00  6.757812e-01 2.228893
F  1.191806e-02 -1.332011e+00 2.229095
F -1.159666e+00  6.560735e-01 2.229174
--
# monomer B
0 1     # Charge and multiplicity
C   -3.66844126402057      7.80375217008252      0.00190004133558
C   -4.84759871934653      7.13124183134024     -0.00046653359696
C   -4.89495929917518      5.69633040353158     -0.00103944469517
C   -3.65374067877320      4.98073034095895      0.00662099703436
C   -2.40942512149445      7.11398103667468      0.00209438359570
C   -2.42547734410473      5.68112195090346     -0.00491050527438
C   -1.19474401643570      7.78614419430947      0.00356656413763
C   0.03795902893699      7.09942164575698      0.00139585983271
C   0.03033258741920      5.66948955970466     -0.00408752508301
C   -1.20098450790502      4.96927034791531      0.00488220885047
C   1.27795782581485      7.77285944319479      0.00277170839332
C   2.48535808472416      7.08769688523756      0.00049722048857
C   2.48612868491717      5.65477081024076     -0.00644052849921
C   1.25408291964399      4.95607811366431      0.00518741308898
C   3.75171459140595      7.76391215098033      0.00062407186893
C   4.92356605618520      7.07878077698995     -0.00143240883900
C   4.95560727132542      5.64344746336949     -0.00159282164606
C   3.70680153420475      4.94121020833308      0.00349873852374
H   -3.65852113775815      8.89082741913536      0.00358502958574
H   -1.18921332975660      8.87412108735996      0.00753844057883
H   1.28429423888630      8.86083343548850      0.00693053253426
H   3.75354208679975      8.85103527897216      0.00214659618464
H   5.86995870320703      7.61379483465560     -0.00235777588134
H   -5.78823170750226      7.67630221293400     -0.00202638095293
C   -6.09197395869619      4.99326001364347     -0.00291168518608
C   -6.12866148031747      3.58258016879823     -0.00171050815740
C   -3.66457974004527      3.56418217974434     -0.00463560277484
C   -4.89429820469869      2.86108077590057      0.00453338221034
C   -2.43733499489796      2.84761165708481      0.00719617576166
C   -1.20922785759670      3.54788693497833     -0.00648285103018
C   1.24714157216223      3.53468075142962     -0.00729145743546
C   0.01517603956900      2.83311183930540      0.00439272578912
C   2.46764517244071      2.82128997725533      0.00449278391269
C   3.70254947457969      3.52466015442405     -0.00899517692985
C   6.14498038638375      4.92757236613191     -0.00282626685777
C   6.16658835886151      3.51658447594213     -0.00065971342101
C   4.92460995845939      2.80840792535402      0.00587903281610
H   7.08990550964105      5.46688776622306     -0.00658814770723
H   -7.03104175110130      5.54268795285765     -0.00714490013730
C   -7.33969804112295      2.85841153457957     -0.00333767559888
C   -7.36488195805880      1.47032337158330     -0.00157213747140
C   -4.90350460894690      1.44442681216000     -0.00628840166334
C   -6.13225715261081      0.73993935705394      0.00600164231964
C   -3.67687480051673      0.72669714267312      0.00433931473643
C   -2.44565658606518      1.42964113326212     -0.00597039546461
C   -1.22360068130162      0.71532450163492      0.00545886906656
C   0.00763786931376      1.41738314923765      0.00392452278437
C   1.23121980774686      0.70211669058719     -0.01490206287210
C   2.46082110053113      1.40329203612573      0.00460244601878
C   3.68443025419614      0.68719842821222      0.00377365974158
C   4.91870890153864      1.39173456118907     -0.00862816189375
C   7.36980207796101      2.77948220318441     -0.00242013321349
C   7.38016266612146      1.39121750785509     -0.00087345036788
C   6.13979953912259      0.67411862320065      0.00545489144369
H   -8.27919079934664      3.40711804112415     -0.00763522772059
H   8.31511347147953      3.31811809662368     -0.00663070901292
C   -8.59175593758115      0.72483255304480     -0.00123170985383
C   -8.59902460370342     -0.63263980622873      0.00089141472904
C   -6.13981313911873     -0.67413663715361     -0.00609792660607
C   -7.38018411213749     -1.39126618958160      0.00131813493501
C   -4.91868448025621     -1.39175501803000      0.00624257154343
C   -3.68443829568458     -0.68723731573599     -0.00478966852105
C   -2.46081704024768     -1.40334517882457      0.00575341766833
C   -1.23116201232071     -0.70217386488055     -0.00636696112346
C   -0.00756962538737     -1.41741884941102      0.00108956317991
C   1.22364771588843     -0.71527537726392      0.01109518512883
C   2.44567064933149     -1.42964328900682     -0.00065482763106
C   3.67686670284649     -0.72670743155550     -0.00479541202602
C   6.13224884641929     -0.73997883984993     -0.00632338623858
C   4.90351914550401     -1.44445752054090      0.00751768830159
C   8.59901484869081      0.63260386666793     -0.00101133422380
C   8.59174548810050     -0.72485086719319      0.00072504603735
C   7.36486276438985     -1.47033266560598      0.00049486934466
H   -9.52830597181814      1.27684744919284     -0.00270163681798
H   9.54141097460619      1.17457248844457     -0.00206336648518
C   -7.36983790976868     -2.77954514593389      0.00312634335708
C   -4.92459910905015     -2.80843725734101     -0.00460528907921
C   -6.16662249566744     -3.51665219282533      0.00169655107992
C   -3.70251035970491     -3.52468154912026      0.00571878010666
C   -2.46764698511392     -2.82132596280400     -0.00632585824990
C   -0.01513347410770     -2.83314164539971     -0.00604426974092
C   -1.24712184122656     -3.53473217556300      0.00551968366725
C   1.20924506964357     -3.54791467864352      0.00805871345849
C   2.43733602215464     -2.84764173817541     -0.00608104485234
C   4.89430234377080     -2.86112296828604     -0.00526030478103
C   3.66461525504104     -3.56421984553201      0.00761911515957
C   6.12863901474565     -3.58258405771778      0.00096495711699
C   7.33967266469532     -2.85841330737039      0.00248018319869
H   -9.54144911125902     -1.17456346666430      0.00226083090216
H   9.52826186807155     -1.27691907390448      0.00197485379837
H   -8.31516504384864     -3.31814985321231      0.00729857188773
H   8.27915514249207     -3.40714078989363      0.00681973918158
C   -6.14499418870218     -4.92764727278338      0.00302254913999
C   -3.70678334799751     -4.94126171411716     -0.00679841894792
C   -4.95559005800169     -5.64349397349412      0.00116871569699
C   -2.48612132622665     -5.65478557440947      0.00614125209662
C   -1.25405833548005     -4.95612205000132     -0.00503435388927
C   1.20101257386816     -4.96928038819302     -0.00385322963129
C   -0.03033667441341     -5.66952030313900      0.00398997003238
C   3.65375010132847     -4.98074377541453     -0.00309522988330
C   2.42549269587528     -5.68117463552727      0.00628170066869
C   6.09196561781097     -4.99325796338655      0.00325918379042
C   4.89497644461045     -5.69634842095790      0.00202298796027
H   -7.08989238804069     -5.46699984223871      0.00742531082125
H   7.03105520920009     -5.54265853633254      0.00683896355417
C   -4.92354532219813     -7.07882109967734      0.00061394679214
C   -2.48534208823777     -7.08772807792913     -0.00189594564379
C   -3.75168589177895     -7.76394715763627     -0.00170126671874
C   -0.03794895698805     -7.09946487446944     -0.00168022049625
C   -1.27795610040136     -7.77290438466689     -0.00366491325785
C   2.40944432072629     -7.11402201200282     -0.00081701968533
C   1.19474993715296     -7.78618536556242     -0.00296931056689
C   4.84762105249800     -7.13126211057943      0.00168979497423
C   3.66847160587561     -7.80378799294376     -0.00065863938960
H   -5.86994035041618     -7.61383059804164      0.00215798365757
H   5.78824962538815     -7.67633218931421      0.00281691445618
H   -3.75352693944918     -8.85107156923607     -0.00353718114765
H   -1.28430440589466     -8.86087539249706     -0.00809229711623
H   1.18922157469537     -8.87416062058945     -0.00706194725726
H   3.65854661482387     -8.89086063405326     -0.00231318081200

    units angstrom      # Angstroms are the default
    no_reorient         # Geometry fixed, default
    symmetry c1         # C1 symmetry, default
}

set {
    scf_type DF         # Density fitting, faster than exact integrals
    freeze_core True    # Freeze core electrons
    basis jun-cc-pVDZ   # Jun-cc-pVDZ basis set, recommended for sSAPT0 in https://doi.org/10.1063/1.4867135
}

energy('ssapt0')        # Compute sSAPT0 energy, includes also SAPT0
--------------------------------------------------------------------------

  //              Dimer HF             //
    Molecular point group: c1
  Charge       = -1
  Multiplicity = 1
  Basis Set: JUN-CC-PVDZ
    Blend: JUN-CC-PVDZ
  Basis Set: (JUN-CC-PVDZ AUX)
    Blend: JUN-CC-PVDZ-JKFIT
  @DF-RHF Final Energy: -4073.04548768357563
    Total Energy =                      -4073.0454876835756295
 Dipole X            :          0.0049152           -0.0000548            0.0048605
 Dipole Y            :          0.0033144           -0.0002464            0.0030680
 Dipole Z            :         13.2364302          -16.0684891           -2.8320589
 Magnitude           :                                                    2.8320648
  //            Monomer A HF           //
    Molecular point group: c1
  Multiplicity = 1
  Basis Set: JUN-CC-PVDZ
    Blend: JUN-CC-PVDZ
  Basis Set: (JUN-CC-PVDZ AUX)
    Blend: JUN-CC-PVDZ-JKFIT
  @DF-RHF Final Energy:  -422.77624994673670
    Total Energy =                       -422.7762499467366979
  //            Monomer B HF           //
    Molecular point group: c1

    Geometry (in Angstrom), charge = 0, multiplicity = 1:

       Center              X                  Y                   Z               Mass
    ------------   -----------------  -----------------  -----------------  -----------------
      Gh(B)          -0.000201921932     0.000288800891     2.514066960742    11.009305360000
      Gh(F)          -0.000004162732     0.000014527991     3.926851960742    18.998403162730
      Gh(F)           1.147855837268     0.675795727991     2.042925960742    18.998403162730
      Gh(F)           0.011913897268    -1.331996472009     2.043127960742    18.998403162730
      Gh(F)          -1.159670162732     0.656088027991     2.043206960742    18.998403162730
         C           -3.668445426752     7.803766698073    -0.184066997922    12.000000000000
         C           -4.847602882078     7.131256359331    -0.186433572855    12.000000000000
         C           -4.894963461907     5.696344931522    -0.187006483953    12.000000000000
         C           -3.653744841505     4.980744868950    -0.179346042223    12.000000000000
         C           -2.409429284226     7.113995564665    -0.183872655662    12.000000000000
         C           -2.425481506836     5.681136478894    -0.190877544532    12.000000000000
         C           -1.194748179167     7.786158722300    -0.182400475120    12.000000000000
         C            0.037954866205     7.099436173748    -0.184571179425    12.000000000000
         C            0.030328424687     5.669504087695    -0.190054564341    12.000000000000
         C           -1.200988670637     4.969284875906    -0.181084830407    12.000000000000
         C            1.277953663083     7.772873971185    -0.183195330864    12.000000000000
         C            2.485353921992     7.087711413228    -0.185469818769    12.000000000000
         C            2.486124522185     5.654785338231    -0.192407567757    12.000000000000
         C            1.254078756912     4.956092641655    -0.180779626169    12.000000000000
         C            3.751710428674     7.763926678971    -0.185342967389    12.000000000000
         C            4.923561893453     7.078795304981    -0.187399448097    12.000000000000
         C            4.955603108594     5.643461991360    -0.187559860904    12.000000000000
         C            3.706797371473     4.941224736324    -0.182468300734    12.000000000000
         H           -3.658525300490     8.890841947126    -0.182382009672     1.007825032230
         H           -1.189217492488     8.874135615351    -0.178428598679     1.007825032230
         H            1.284290076155     8.860847963479    -0.179036506723     1.007825032230
         H            3.753537924068     8.851049806963    -0.183820443073     1.007825032230
         H            5.869954540475     7.613809362646    -0.188324815139     1.007825032230
         H           -5.788235870234     7.676316740925    -0.187993420211     1.007825032230
         C           -6.091978121428     4.993274541634    -0.188878724444    12.000000000000
         C           -6.128665643049     3.582594696789    -0.187677547415    12.000000000000
         C           -3.664583902777     3.564196707735    -0.190602642033    12.000000000000
         C           -4.894302367430     2.861095303891    -0.181433657047    12.000000000000
         C           -2.437339157630     2.847626185075    -0.178770863496    12.000000000000
         C           -1.209232020328     3.547901462969    -0.192449890288    12.000000000000
         C            1.247137409430     3.534695279420    -0.193258496693    12.000000000000
         C            0.015171876837     2.833126367296    -0.181574313469    12.000000000000
         C            2.467641009709     2.821304505246    -0.181474255345    12.000000000000
         C            3.702545311848     3.524674682415    -0.194962216188    12.000000000000
         C            6.144976223652     4.927586894122    -0.188793306115    12.000000000000
         C            6.166584196130     3.516599003933    -0.186626752679    12.000000000000
         C            4.924605795728     2.808422453345    -0.180088006442    12.000000000000
         H            7.089901346909     5.466902294214    -0.192555186965     1.007825032230
         H           -7.031045913833     5.542702480848    -0.193111939395     1.007825032230
         C           -7.339702203855     2.858426062570    -0.189304714857    12.000000000000
         C           -7.364886120791     1.470337899574    -0.187539176729    12.000000000000
         C           -4.903508771679     1.444441340151    -0.192255440921    12.000000000000
         C           -6.132261315343     0.739953885044    -0.179965396938    12.000000000000
         C           -3.676878963248     0.726711670664    -0.181627724521    12.000000000000
         C           -2.445660748797     1.429655661253    -0.191937434722    12.000000000000
         C           -1.223604844033     0.715339029625    -0.180508170191    12.000000000000
         C            0.007633706582     1.417397677228    -0.182042516473    12.000000000000
         C            1.231215645015     0.702131218578    -0.200869102130    12.000000000000
         C            2.460816937799     1.403306564116    -0.181364593239    12.000000000000
         C            3.684426091464     0.687212956203    -0.182193379516    12.000000000000
         C            4.918704738807     1.391749089180    -0.194595201151    12.000000000000
         C            7.369797915229     2.779496731175    -0.188387172471    12.000000000000
         C            7.380158503390     1.391232035846    -0.186840489626    12.000000000000
         C            6.139795376391     0.674133151191    -0.180512147814    12.000000000000
         H           -8.279194962078     3.407132569115    -0.193602266978     1.007825032230
         H            8.315109308748     3.318132624614    -0.192597748271     1.007825032230
         C           -8.591760100313     0.724847081035    -0.187198749112    12.000000000000
         C           -8.599028766435    -0.632625278238    -0.185075624529    12.000000000000
         C           -6.139817301850    -0.674122109163    -0.192064965864    12.000000000000
         C           -7.380188274869    -1.391251661591    -0.184648904323    12.000000000000
         C           -4.918688642988    -1.391740490039    -0.179724467714    12.000000000000
         C           -3.684442458416    -0.687222787745    -0.190756707779    12.000000000000
         C           -2.460821202979    -1.403330650834    -0.180213621589    12.000000000000
         C           -1.231166175052    -0.702159336890    -0.192334000381    12.000000000000
         C           -0.007573788119    -1.417404321420    -0.184877476078    12.000000000000
         C            1.223643553157    -0.715260849273    -0.174871854129    12.000000000000
         C            2.445666486600    -1.429628761016    -0.186621866889    12.000000000000
         C            3.676862540115    -0.726692903565    -0.190762451284    12.000000000000
         C            6.132244683688    -0.739964311859    -0.192290425496    12.000000000000
         C            4.903514982772    -1.444442992550    -0.178449350956    12.000000000000
         C            8.599010685959     0.632618394658    -0.186978373481    12.000000000000
         C            8.591741325369    -0.724836339203    -0.185241993220    12.000000000000
         C            7.364858601658    -1.470318137615    -0.185472169913    12.000000000000
         H           -9.528310134550     1.276861977183    -0.188668676076     1.007825032230
         H            9.541406811874     1.174587016435    -0.188030405743     1.007825032230
         C           -7.369842072500    -2.779530617943    -0.182840695901    12.000000000000
         C           -4.924603271782    -2.808422729350    -0.190572328337    12.000000000000
         C           -6.166626658399    -3.516637664835    -0.184270488178    12.000000000000
         C           -3.702514522437    -3.524667021130    -0.180248259151    12.000000000000
         C           -2.467651147846    -2.821311434813    -0.192292897508    12.000000000000
         C           -0.015137636839    -2.833127117409    -0.192011308999    12.000000000000
         C           -1.247126003958    -3.534717647572    -0.180447355590    12.000000000000
         C            1.209240906912    -3.547900150653    -0.177908325799    12.000000000000
         C            2.437331859423    -2.847627210185    -0.192048084110    12.000000000000
         C            4.894298181039    -2.861108440295    -0.191227344039    12.000000000000
         C            3.664611092309    -3.564205317541    -0.178347924098    12.000000000000
         C            6.128634852014    -3.582569529727    -0.185002082141    12.000000000000
         C            7.339668501964    -2.858398779380    -0.183486856059    12.000000000000
         H           -9.541453273991    -1.174548938674    -0.183706208356     1.007825032230
         H            9.528257705340    -1.276904545914    -0.183992185459     1.007825032230
         H           -8.315169206580    -3.318135325222    -0.178668467370     1.007825032230
         H            8.279150979760    -3.407126261903    -0.179147300076     1.007825032230
         C           -6.144998351434    -4.927632744793    -0.182944490118    12.000000000000
         C           -3.706787510729    -4.941247186127    -0.192765458206    12.000000000000
         C           -4.955594220733    -5.643479445504    -0.184798323561    12.000000000000
         C           -2.486125488958    -5.654771046419    -0.179825787161    12.000000000000
         C           -1.254062498212    -4.956107522011    -0.191001393147    12.000000000000
         C            1.201008411136    -4.969265860202    -0.189820268889    12.000000000000
         C           -0.030340837145    -5.669505775148    -0.181977069225    12.000000000000
         C            3.653745938597    -4.980729247424    -0.189062269141    12.000000000000
         C            2.425488533144    -5.681160107537    -0.179685338589    12.000000000000
         C            6.091961455079    -4.993243435396    -0.182707855467    12.000000000000
         C            4.894972281879    -5.696333892967    -0.183944051297    12.000000000000
         H           -7.089896550772    -5.466985314248    -0.178541728436     1.007825032230
         H            7.031051046468    -5.542644008342    -0.179128075704     1.007825032230
         C           -4.923549484930    -7.078806571687    -0.185353092466    12.000000000000
         C           -2.485346250970    -7.087713549939    -0.187862984901    12.000000000000
         C           -3.751690054511    -7.763932629646    -0.187668305976    12.000000000000
         C           -0.037953119720    -7.099450346479    -0.187647259754    12.000000000000
         C           -1.277960263133    -7.772889856676    -0.189631952516    12.000000000000
         C            2.409440157995    -7.114007484012    -0.186784058943    12.000000000000
         C            1.194745774421    -7.786170837572    -0.188936349825    12.000000000000
         C            4.847616889766    -7.131247582589    -0.184277244283    12.000000000000
         C            3.668467443144    -7.803773464953    -0.186625678647    12.000000000000
         H           -5.869944513148    -7.613816070051    -0.183809055600     1.007825032230
         H            5.788245462656    -7.676317661324    -0.183150124801     1.007825032230
         H           -3.753531102181    -8.851057041246    -0.189504220405     1.007825032230
         H           -1.284308568626    -8.860860864507    -0.194059336374     1.007825032230
         H            1.189217411964    -8.874146092599    -0.193028986515     1.007825032230
         H            3.658542452092    -8.890846106063    -0.188280220070     1.007825032230

  Charge       = 0
  Multiplicity = 1
  Basis Set: JUN-CC-PVDZ
    Blend: JUN-CC-PVDZ
  Basis Set: (JUN-CC-PVDZ AUX)
    Blend: JUN-CC-PVDZ-JKFIT

    Orbital Energies [Eh]
    ---------------------

    Doubly Occupied:

       1A    -11.264138     2A    -11.263767     3A    -11.263760
       4A    -11.263296     5A    -11.263295     6A    -11.263258
       7A    -11.263124     8A    -11.263118     9A    -11.263109
      10A    -11.262856    11A    -11.262747    12A    -11.262744
      13A    -11.262259    14A    -11.262256    15A    -11.262233
      16A    -11.262226    17A    -11.262113    18A    -11.262101
      19A    -11.262061    20A    -11.262023    21A    -11.262020
      22A    -11.261925    23A    -11.261919    24A    -11.261765
      25A    -11.261756    26A    -11.261732    27A    -11.261724
      28A    -11.261687    29A    -11.261678    30A    -11.261582
      31A    -11.261576    32A    -11.261557    33A    -11.261554
      34A    -11.261523    35A    -11.261521    36A    -11.261500
      37A    -11.261338    38A    -11.261331    39A    -11.261325
      40A    -11.261320    41A    -11.261315    42A    -11.261312
      43A    -11.261289    44A    -11.261272    45A    -11.261267
      46A    -11.261243    47A    -11.261241    48A    -11.261235
      49A    -11.261041    50A    -11.261009    51A    -11.261005
      52A    -11.260928    53A    -11.260925    54A    -11.260873
      55A    -11.259917    56A    -11.259903    57A    -11.259901
      58A    -11.259871    59A    -11.259869    60A    -11.259853
      61A    -11.259286    62A    -11.259260    63A    -11.259258
      64A    -11.259205    65A    -11.259203    66A    -11.259173
      67A    -11.258919    68A    -11.258900    69A    -11.258899
      70A    -11.258869    71A    -11.258868    72A    -11.258856
      73A    -11.254538    74A    -11.254536    75A    -11.254533
      76A    -11.254532    77A    -11.254531    78A    -11.254530
      79A    -11.253660    80A    -11.253659    81A    -11.253657
      82A    -11.253655    83A    -11.253654    84A    -11.253652
      85A    -11.253576    86A    -11.253574    87A    -11.253573
      88A    -11.253571    89A    -11.253570    90A    -11.253568
      91A    -11.253065    92A    -11.253064    93A    -11.253060
      94A    -11.253060    95A    -11.253059    96A    -11.253058
      97A     -1.253898    98A     -1.238984    99A     -1.238983
     100A     -1.220463   101A     -1.220458   102A     -1.215391
     103A     -1.201048   104A     -1.195608   105A     -1.188107
     106A     -1.188106   107A     -1.173771   108A     -1.173768
     109A     -1.155614   110A     -1.155610   111A     -1.152671
     112A     -1.144730   113A     -1.144727   114A     -1.128564
     115A     -1.114697   116A     -1.113167   117A     -1.112445
     118A     -1.112431   119A     -1.111628   120A     -1.088418
     121A     -1.088404   122A     -1.076967   123A     -1.076965
     124A     -1.067600   125A     -1.067571   126A     -1.064940
     127A     -1.046798   128A     -1.046791   129A     -1.040476
     130A     -1.038741   131A     -1.038740   132A     -1.025213
     133A     -1.021340   134A     -1.021290   135A     -1.007179
     136A     -1.006811   137A     -1.003791   138A     -1.000469
     139A     -1.000421   140A     -0.991082   141A     -0.970973
     142A     -0.970925   143A     -0.955882   144A     -0.955827
     145A     -0.905562   146A     -0.905558   147A     -0.905520
     148A     -0.905518   149A     -0.904293   150A     -0.892344
     151A     -0.892284   152A     -0.890339   153A     -0.890281
     154A     -0.889447   155A     -0.872219   156A     -0.869067
     157A     -0.851539   158A     -0.847849   159A     -0.847827
     160A     -0.845576   161A     -0.843011   162A     -0.834558
     163A     -0.834544   164A     -0.828117   165A     -0.828114
     166A     -0.784543   167A     -0.784532   168A     -0.783638
     169A     -0.783611   170A     -0.782278   171A     -0.782257
     172A     -0.782015   173A     -0.766992   174A     -0.760768
     175A     -0.750544   176A     -0.733487   177A     -0.727066
     178A     -0.727054   179A     -0.725074   180A     -0.724541
     181A     -0.724524   182A     -0.718455   183A     -0.713747
     184A     -0.713741   185A     -0.699570   186A     -0.699558
     187A     -0.686087   188A     -0.685960   189A     -0.685957
     190A     -0.682176   191A     -0.682165   192A     -0.678745
     193A     -0.653611   194A     -0.650859   195A     -0.650829
     196A     -0.649784   197A     -0.649769   198A     -0.649568
     199A     -0.640896   200A     -0.640869   201A     -0.640091
     202A     -0.639168   203A     -0.636000   204A     -0.635973
     205A     -0.629139   206A     -0.617706   207A     -0.615307
     208A     -0.615288   209A     -0.608799   210A     -0.608792
     211A     -0.599102   212A     -0.599067   213A     -0.598729
     214A     -0.598597   215A     -0.598574   216A     -0.597995
     217A     -0.595069   218A     -0.595056   219A     -0.594712
     220A     -0.594200   221A     -0.591938   222A     -0.591935
     223A     -0.587362   224A     -0.577802   225A     -0.577792
     226A     -0.575643   227A     -0.575640   228A     -0.573382
     229A     -0.569601   230A     -0.568105   231A     -0.568082
     232A     -0.566740   233A     -0.566729   234A     -0.560918
     235A     -0.558700   236A     -0.558681   237A     -0.558431
     238A     -0.554358   239A     -0.550544   240A     -0.547480
     241A     -0.544253   242A     -0.535012   243A     -0.534976
     244A     -0.533522   245A     -0.533500   246A     -0.528074
     247A     -0.528059   248A     -0.527763   249A     -0.517128
     250A     -0.517093   251A     -0.515346   252A     -0.515340
     253A     -0.509641   254A     -0.509625   255A     -0.498024
     256A     -0.496438   257A     -0.496412   258A     -0.493750
     259A     -0.493739   260A     -0.489434   261A     -0.481450
     262A     -0.477413   263A     -0.477410   264A     -0.473992
     265A     -0.469431   266A     -0.466513   267A     -0.466508
     268A     -0.458770   269A     -0.446649   270A     -0.446588
     271A     -0.441008   272A     -0.440757   273A     -0.440734
     274A     -0.434684   275A     -0.433905   276A     -0.407359
     277A     -0.407335   278A     -0.386366   279A     -0.386317
     280A     -0.385732   281A     -0.385731   282A     -0.383720
     283A     -0.354317   284A     -0.354301   285A     -0.350635
     286A     -0.338015   287A     -0.335533   288A     -0.335462
     289A     -0.332714   290A     -0.332707   291A     -0.307022
     292A     -0.301880   293A     -0.301817   294A     -0.300836
     295A     -0.286148   296A     -0.256489   297A     -0.253438
     298A     -0.253386   299A     -0.204237   300A     -0.204148

  @DF-RHF Final Energy: -3650.34036767523276

   => Energetics <=

    Nuclear Repulsion Energy =          15611.4211649754324753
    One-Electron Energy =              -36072.1531815424241358
    Two-Electron Energy =               16810.3916488917602692
    Total Energy =                      -3650.3403676752313913
 Dipole X            :          0.0000195            0.0002304            0.0002500
 Dipole Y            :          0.0013785           -0.0013052            0.0000733
 Dipole Z            :        210.8549035         -210.8526716            0.0022319
 Magnitude           :                                                    0.0022470

    SAPT Results
  --------------------------------------------------------------------------------------------------------
    Electrostatics                -64.07049225 [mEh]     -40.20484088 [kcal/mol]    -168.21705422 [kJ/mol]
      Elst10,r                    -64.07049225 [mEh]     -40.20484088 [kcal/mol]    -168.21705422 [kJ/mol]

    Exchange                      178.19044453 [mEh]     111.81619208 [kcal/mol]     467.83894766 [kJ/mol]
      Exch10                      178.19044453 [mEh]     111.81619208 [kcal/mol]     467.83894766 [kJ/mol]
      Exch10(S^2)                 174.57071169 [mEh]     109.54477543 [kcal/mol]     458.33534039 [kJ/mol]

    Induction                     -42.99001389 [mEh]     -26.97664099 [kcal/mol]    -112.87026592 [kJ/mol]
      Ind20,r                    -116.57644329 [mEh]     -73.15282258 [kcal/mol]    -306.07140969 [kJ/mol]
      Exch-Ind20,r                 84.43056000 [mEh]      52.98097628 [kcal/mol]     221.67240474 [kJ/mol]
      delta HF,r (2)              -10.84413060 [mEh]      -6.80479469 [kcal/mol]     -28.47126097 [kJ/mol]

    Dispersion                    -37.79090520 [mEh]     -23.71415104 [kcal/mol]     -99.22000793 [kJ/mol]
      Disp20                      -53.00402967 [mEh]     -33.26053077 [kcal/mol]    -139.16206072 [kJ/mol]
      Exch-Disp20                  15.21312447 [mEh]       9.54637973 [kcal/mol]      39.94205279 [kJ/mol]
      Disp20 (SS)                 -26.50201483 [mEh]     -16.63026538 [kcal/mol]     -69.58103036 [kJ/mol]
      Disp20 (OS)                 -26.50201483 [mEh]     -16.63026538 [kcal/mol]     -69.58103036 [kJ/mol]
      Exch-Disp20 (SS)              8.10143823 [mEh]       5.08372924 [kcal/mol]      21.27032315 [kJ/mol]
      Exch-Disp20 (OS)              7.11168624 [mEh]       4.46265049 [kcal/mol]      18.67172964 [kJ/mol]

  Total HF                         71.12993839 [mEh]      44.63471021 [kcal/mol]     186.75162752 [kJ/mol]
  Total SAPT0                      33.33903319 [mEh]      20.92055918 [kcal/mol]      87.53161959 [kJ/mol]

  Special recipe for scaled SAPT0 (see Manual):
    Electrostatics sSAPT0         -64.07049225 [mEh]     -40.20484088 [kcal/mol]    -168.21705422 [kJ/mol]
    Exchange sSAPT0               178.19044453 [mEh]     111.81619208 [kcal/mol]     467.83894766 [kJ/mol]
    Induction sSAPT0              -37.62834413 [mEh]     -23.61214242 [kcal/mol]     -98.79320389 [kJ/mol]
    Dispersion sSAPT0             -36.82481248 [mEh]     -23.10791870 [kcal/mol]     -96.68353184 [kJ/mol]
  Total sSAPT0                     39.66679568 [mEh]      24.89129008 [kcal/mol]     104.14515771 [kJ/mol]
  --------------------------------------------------------------------------------------------------------

*** Psi4 exiting successfully. Buy a developer a beer!
