                               Psi4 1.9 release

  ==> Input File <==

--------------------------------------------------------------------------
memory 64 GB # how much memory is available ! Depends on the nodes/cores !

molecule dimer {
# monomer A
-1 1    # Charge and multiplicity
B -0.000046  0.000337 2.799994
F -1.153597  0.000048 3.615641
F  1.153661 -0.000581 3.615641
F -0.000019 -1.153637 1.984360
F -0.000019  1.153978 1.984360
--
# monomer B
0 1     # Charge and multiplicity
C   -3.66844126402057      7.80375217008252      0.00190004133558
C   -4.84759871934653      7.13124183134024     -0.00046653359696
C   -4.89495929917518      5.69633040353158     -0.00103944469517
C   -3.65374067877320      4.98073034095895      0.00662099703436
C   -2.40942512149445      7.11398103667468      0.00209438359570
C   -2.42547734410473      5.68112195090346     -0.00491050527438
C   -1.19474401643570      7.78614419430947      0.00356656413763
C   0.03795902893699      7.09942164575698      0.00139585983271
C   0.03033258741920      5.66948955970466     -0.00408752508301
C   -1.20098450790502      4.96927034791531      0.00488220885047
C   1.27795782581485      7.77285944319479      0.00277170839332
C   2.48535808472416      7.08769688523756      0.00049722048857
C   2.48612868491717      5.65477081024076     -0.00644052849921
C   1.25408291964399      4.95607811366431      0.00518741308898
C   3.75171459140595      7.76391215098033      0.00062407186893
C   4.92356605618520      7.07878077698995     -0.00143240883900
C   4.95560727132542      5.64344746336949     -0.00159282164606
C   3.70680153420475      4.94121020833308      0.00349873852374
H   -3.65852113775815      8.89082741913536      0.00358502958574
H   -1.18921332975660      8.87412108735996      0.00753844057883
H   1.28429423888630      8.86083343548850      0.00693053253426
H   3.75354208679975      8.85103527897216      0.00214659618464
H   5.86995870320703      7.61379483465560     -0.00235777588134
H   -5.78823170750226      7.67630221293400     -0.00202638095293
C   -6.09197395869619      4.99326001364347     -0.00291168518608
C   -6.12866148031747      3.58258016879823     -0.00171050815740
C   -3.66457974004527      3.56418217974434     -0.00463560277484
C   -4.89429820469869      2.86108077590057      0.00453338221034
C   -2.43733499489796      2.84761165708481      0.00719617576166
C   -1.20922785759670      3.54788693497833     -0.00648285103018
C   1.24714157216223      3.53468075142962     -0.00729145743546
C   0.01517603956900      2.83311183930540      0.00439272578912
C   2.46764517244071      2.82128997725533      0.00449278391269
C   3.70254947457969      3.52466015442405     -0.00899517692985
C   6.14498038638375      4.92757236613191     -0.00282626685777
C   6.16658835886151      3.51658447594213     -0.00065971342101
C   4.92460995845939      2.80840792535402      0.00587903281610
H   7.08990550964105      5.46688776622306     -0.00658814770723
H   -7.03104175110130      5.54268795285765     -0.00714490013730
C   -7.33969804112295      2.85841153457957     -0.00333767559888
C   -7.36488195805880      1.47032337158330     -0.00157213747140
C   -4.90350460894690      1.44442681216000     -0.00628840166334
C   -6.13225715261081      0.73993935705394      0.00600164231964
C   -3.67687480051673      0.72669714267312      0.00433931473643
C   -2.44565658606518      1.42964113326212     -0.00597039546461
C   -1.22360068130162      0.71532450163492      0.00545886906656
C   0.00763786931376      1.41738314923765      0.00392452278437
C   1.23121980774686      0.70211669058719     -0.01490206287210
C   2.46082110053113      1.40329203612573      0.00460244601878
C   3.68443025419614      0.68719842821222      0.00377365974158
C   4.91870890153864      1.39173456118907     -0.00862816189375
C   7.36980207796101      2.77948220318441     -0.00242013321349
C   7.38016266612146      1.39121750785509     -0.00087345036788
C   6.13979953912259      0.67411862320065      0.00545489144369
H   -8.27919079934664      3.40711804112415     -0.00763522772059
H   8.31511347147953      3.31811809662368     -0.00663070901292
C   -8.59175593758115      0.72483255304480     -0.00123170985383
C   -8.59902460370342     -0.63263980622873      0.00089141472904
C   -6.13981313911873     -0.67413663715361     -0.00609792660607
C   -7.38018411213749     -1.39126618958160      0.00131813493501
C   -4.91868448025621     -1.39175501803000      0.00624257154343
C   -3.68443829568458     -0.68723731573599     -0.00478966852105
C   -2.46081704024768     -1.40334517882457      0.00575341766833
C   -1.23116201232071     -0.70217386488055     -0.00636696112346
C   -0.00756962538737     -1.41741884941102      0.00108956317991
C   1.22364771588843     -0.71527537726392      0.01109518512883
C   2.44567064933149     -1.42964328900682     -0.00065482763106
C   3.67686670284649     -0.72670743155550     -0.00479541202602
C   6.13224884641929     -0.73997883984993     -0.00632338623858
C   4.90351914550401     -1.44445752054090      0.00751768830159
C   8.59901484869081      0.63260386666793     -0.00101133422380
C   8.59174548810050     -0.72485086719319      0.00072504603735
C   7.36486276438985     -1.47033266560598      0.00049486934466
H   -9.52830597181814      1.27684744919284     -0.00270163681798
H   9.54141097460619      1.17457248844457     -0.00206336648518
C   -7.36983790976868     -2.77954514593389      0.00312634335708
C   -4.92459910905015     -2.80843725734101     -0.00460528907921
C   -6.16662249566744     -3.51665219282533      0.00169655107992
C   -3.70251035970491     -3.52468154912026      0.00571878010666
C   -2.46764698511392     -2.82132596280400     -0.00632585824990
C   -0.01513347410770     -2.83314164539971     -0.00604426974092
C   -1.24712184122656     -3.53473217556300      0.00551968366725
C   1.20924506964357     -3.54791467864352      0.00805871345849
C   2.43733602215464     -2.84764173817541     -0.00608104485234
C   4.89430234377080     -2.86112296828604     -0.00526030478103
C   3.66461525504104     -3.56421984553201      0.00761911515957
C   6.12863901474565     -3.58258405771778      0.00096495711699
C   7.33967266469532     -2.85841330737039      0.00248018319869
H   -9.54144911125902     -1.17456346666430      0.00226083090216
H   9.52826186807155     -1.27691907390448      0.00197485379837
H   -8.31516504384864     -3.31814985321231      0.00729857188773
H   8.27915514249207     -3.40714078989363      0.00681973918158
C   -6.14499418870218     -4.92764727278338      0.00302254913999
C   -3.70678334799751     -4.94126171411716     -0.00679841894792
C   -4.95559005800169     -5.64349397349412      0.00116871569699
C   -2.48612132622665     -5.65478557440947      0.00614125209662
C   -1.25405833548005     -4.95612205000132     -0.00503435388927
C   1.20101257386816     -4.96928038819302     -0.00385322963129
C   -0.03033667441341     -5.66952030313900      0.00398997003238
C   3.65375010132847     -4.98074377541453     -0.00309522988330
C   2.42549269587528     -5.68117463552727      0.00628170066869
C   6.09196561781097     -4.99325796338655      0.00325918379042
C   4.89497644461045     -5.69634842095790      0.00202298796027
H   -7.08989238804069     -5.46699984223871      0.00742531082125
H   7.03105520920009     -5.54265853633254      0.00683896355417
C   -4.92354532219813     -7.07882109967734      0.00061394679214
C   -2.48534208823777     -7.08772807792913     -0.00189594564379
C   -3.75168589177895     -7.76394715763627     -0.00170126671874
C   -0.03794895698805     -7.09946487446944     -0.00168022049625
C   -1.27795610040136     -7.77290438466689     -0.00366491325785
C   2.40944432072629     -7.11402201200282     -0.00081701968533
C   1.19474993715296     -7.78618536556242     -0.00296931056689
C   4.84762105249800     -7.13126211057943      0.00168979497423
C   3.66847160587561     -7.80378799294376     -0.00065863938960
H   -5.86994035041618     -7.61383059804164      0.00215798365757
H   5.78824962538815     -7.67633218931421      0.00281691445618
H   -3.75352693944918     -8.85107156923607     -0.00353718114765
H   -1.28430440589466     -8.86087539249706     -0.00809229711623
H   1.18922157469537     -8.87416062058945     -0.00706194725726
H   3.65854661482387     -8.89086063405326     -0.00231318081200

    units angstrom      # Angstroms are the default
    no_reorient         # Geometry fixed, default
    symmetry c1         # C1 symmetry, default
}

set {
    scf_type DF         # Density fitting, faster than exact integrals
    freeze_core True    # Freeze core electrons
    basis jun-cc-pVDZ   # Jun-cc-pVDZ basis set, recommended for sSAPT0 in https://doi.org/10.1063/1.4867135
}

energy('ssapt0')        # Compute sSAPT0 energy, includes also SAPT0
--------------------------------------------------------------------------

  //              Dimer HF             //
    Molecular point group: c1
  Charge       = -1
  Multiplicity = 1
  Basis Set: JUN-CC-PVDZ
    Blend: JUN-CC-PVDZ
  Basis Set: (JUN-CC-PVDZ AUX)
    Blend: JUN-CC-PVDZ-JKFIT
  @DF-RHF Final Energy: -4073.01548526194074
    Total Energy =                      -4073.0154852619416488
 Dipole X            :          0.0017391           -0.0001188            0.0016203
 Dipole Y            :          0.0008568           -0.0002727            0.0005841
 Dipole Z            :         13.7049506          -16.6635843           -2.9586338
 Magnitude           :                                                    2.9586343
  //            Monomer A HF           //
    Molecular point group: c1
  Multiplicity = 1
  Basis Set: JUN-CC-PVDZ
    Blend: JUN-CC-PVDZ
  Basis Set: (JUN-CC-PVDZ AUX)
    Blend: JUN-CC-PVDZ-JKFIT
  @DF-RHF Final Energy:  -422.77630833951611
    Total Energy =                       -422.7763083395161061
  //            Monomer B HF           //
    Molecular point group: c1

    Geometry (in Angstrom), charge = 0, multiplicity = 1:

       Center              X                  Y                   Z               Mass
    ------------   -----------------  -----------------  -----------------  -----------------
      Gh(B)          -0.000050191042     0.000351518223     2.607139441490    11.009305360000
      Gh(F)          -1.153601191042     0.000062518223     3.422786441490    18.998403162730
      Gh(F)           1.153656808958    -0.000566481777     3.422786441490    18.998403162730
      Gh(F)          -0.000023191042    -1.153622481777     1.791505441490    18.998403162730
      Gh(F)          -0.000023191042     1.153992518223     1.791505441490    18.998403162730
         C           -3.668445455062     7.803766688305    -0.190954517175    12.000000000000
         C           -4.847602910388     7.131256349563    -0.193321092107    12.000000000000
         C           -4.894963490217     5.696344921754    -0.193894003205    12.000000000000
         C           -3.653744869815     4.980744859182    -0.186233561476    12.000000000000
         C           -2.409429312536     7.113995554897    -0.190760174915    12.000000000000
         C           -2.425481535146     5.681136469126    -0.197765063785    12.000000000000
         C           -1.194748207477     7.786158712532    -0.189287994373    12.000000000000
         C            0.037954837895     7.099436163980    -0.191458698678    12.000000000000
         C            0.030328396378     5.669504077927    -0.196942083593    12.000000000000
         C           -1.200988698947     4.969284866138    -0.187972349660    12.000000000000
         C            1.277953634773     7.772873961417    -0.190082850117    12.000000000000
         C            2.485353893683     7.087711403460    -0.192357338022    12.000000000000
         C            2.486124493876     5.654785328463    -0.199295087009    12.000000000000
         C            1.254078728602     4.956092631887    -0.187667145421    12.000000000000
         C            3.751710400364     7.763926669203    -0.192230486641    12.000000000000
         C            4.923561865144     7.078795295213    -0.194286967349    12.000000000000
         C            4.955603080284     5.643461981592    -0.194447380156    12.000000000000
         C            3.706797343163     4.941224726556    -0.189355819987    12.000000000000
         H           -3.658525328800     8.890841937358    -0.189269528925     1.007825032230
         H           -1.189217520798     8.874135605583    -0.185316117931     1.007825032230
         H            1.284290047845     8.860847953711    -0.185924025976     1.007825032230
         H            3.753537895758     8.851049797195    -0.190707962326     1.007825032230
         H            5.869954512165     7.613809352878    -0.195212334392     1.007825032230
         H           -5.788235898544     7.676316731157    -0.194880939463     1.007825032230
         C           -6.091978149738     4.993274531866    -0.195766243696    12.000000000000
         C           -6.128665671359     3.582594687021    -0.194565066668    12.000000000000
         C           -3.664583931087     3.564196697967    -0.197490161285    12.000000000000
         C           -4.894302395740     2.861095294123    -0.188321176300    12.000000000000
         C           -2.437339185940     2.847626175307    -0.185658382749    12.000000000000
         C           -1.209232048638     3.547901453201    -0.199337409540    12.000000000000
         C            1.247137381121     3.534695269652    -0.200146015946    12.000000000000
         C            0.015171848527     2.833126357528    -0.188461832721    12.000000000000
         C            2.467640981399     2.821304495478    -0.188361774598    12.000000000000
         C            3.702545283538     3.524674672647    -0.201849735440    12.000000000000
         C            6.144976195342     4.927586884354    -0.195680825368    12.000000000000
         C            6.166584167820     3.516598994165    -0.193514271931    12.000000000000
         C            4.924605767418     2.808422443577    -0.186975525694    12.000000000000
         H            7.089901318599     5.466902284446    -0.199442706218     1.007825032230
         H           -7.031045942143     5.542702471080    -0.199999458648     1.007825032230
         C           -7.339702232165     2.858426052802    -0.196192234109    12.000000000000
         C           -7.364886149100     1.470337889806    -0.194426695982    12.000000000000
         C           -4.903508799989     1.444441330383    -0.199142960174    12.000000000000
         C           -6.132261343652     0.739953875277    -0.186852916191    12.000000000000
         C           -3.676878991558     0.726711660896    -0.188515243774    12.000000000000
         C           -2.445660777107     1.429655651485    -0.198824953975    12.000000000000
         C           -1.223604872343     0.715339019858    -0.187395689444    12.000000000000
         C            0.007633678272     1.417397667460    -0.188930035726    12.000000000000
         C            1.231215616705     0.702131208810    -0.207756621382    12.000000000000
         C            2.460816909489     1.403306554348    -0.188252112492    12.000000000000
         C            3.684426063155     0.687212946435    -0.189080898769    12.000000000000
         C            4.918704710497     1.391749079412    -0.201482720404    12.000000000000
         C            7.369797886919     2.779496721407    -0.195274691724    12.000000000000
         C            7.380158475080     1.391232026078    -0.193728008878    12.000000000000
         C            6.139795348081     0.674133141423    -0.187399667067    12.000000000000
         H           -8.279194990388     3.407132559347    -0.200489786231     1.007825032230
         H            8.315109280438     3.318132614846    -0.199485267523     1.007825032230
         C           -8.591760128623     0.724847071267    -0.194086268364    12.000000000000
         C           -8.599028794745    -0.632625288006    -0.191963143781    12.000000000000
         C           -6.139817330160    -0.674122118931    -0.198952485116    12.000000000000
         C           -7.380188303179    -1.391251671359    -0.191536423575    12.000000000000
         C           -4.918688671298    -1.391740499807    -0.186611986967    12.000000000000
         C           -3.684442486726    -0.687222797513    -0.197644227031    12.000000000000
         C           -2.460821231289    -1.403330660602    -0.187101140842    12.000000000000
         C           -1.231166203362    -0.702159346658    -0.199221519634    12.000000000000
         C           -0.007573816429    -1.417404331188    -0.191764995330    12.000000000000
         C            1.223643524847    -0.715260859041    -0.181759373381    12.000000000000
         C            2.445666458290    -1.429628770784    -0.193509386141    12.000000000000
         C            3.676862511805    -0.726692913333    -0.197649970536    12.000000000000
         C            6.132244655378    -0.739964321627    -0.199177944749    12.000000000000
         C            4.903514954462    -1.444443002318    -0.185336870209    12.000000000000
         C            8.599010657649     0.632618384891    -0.193865892734    12.000000000000
         C            8.591741297059    -0.724836348971    -0.192129512473    12.000000000000
         C            7.364858573348    -1.470318147383    -0.192359689166    12.000000000000
         H           -9.528310162860     1.276861967415    -0.195556195328     1.007825032230
         H            9.541406783565     1.174587006667    -0.194917924995     1.007825032230
         C           -7.369842100810    -2.779530627711    -0.189728215153    12.000000000000
         C           -4.924603300092    -2.808422739118    -0.197459847589    12.000000000000
         C           -6.166626686709    -3.516637674603    -0.191158007430    12.000000000000
         C           -3.702514550747    -3.524667030898    -0.187135778404    12.000000000000
         C           -2.467651176156    -2.821311444581    -0.199180416760    12.000000000000
         C           -0.015137665149    -2.833127127177    -0.198898828251    12.000000000000
         C           -1.247126032268    -3.534717657340    -0.187334874843    12.000000000000
         C            1.209240878602    -3.547900160421    -0.184795845052    12.000000000000
         C            2.437331831113    -2.847627219953    -0.198935603363    12.000000000000
         C            4.894298152729    -2.861108450063    -0.198114863291    12.000000000000
         C            3.664611063999    -3.564205327309    -0.185235443351    12.000000000000
         C            6.128634823704    -3.582569539495    -0.191889601393    12.000000000000
         C            7.339668473654    -2.858398789148    -0.190374375312    12.000000000000
         H           -9.541453302301    -1.174548948442    -0.190593727608     1.007825032230
         H            9.528257677030    -1.276904555682    -0.190879704712     1.007825032230
         H           -8.315169234890    -3.318135334990    -0.185555986623     1.007825032230
         H            8.279150951450    -3.407126271671    -0.186034819329     1.007825032230
         C           -6.144998379744    -4.927632754561    -0.189832009370    12.000000000000
         C           -3.706787539039    -4.941247195895    -0.199652977458    12.000000000000
         C           -4.955594249043    -5.643479455272    -0.191685842813    12.000000000000
         C           -2.486125517268    -5.654771056187    -0.186713306414    12.000000000000
         C           -1.254062526522    -4.956107531779    -0.197888912400    12.000000000000
         C            1.201008382827    -4.969265869970    -0.196707788142    12.000000000000
         C           -0.030340865455    -5.669505784916    -0.188864588478    12.000000000000
         C            3.653745910287    -4.980729257192    -0.195949788394    12.000000000000
         C            2.425488504834    -5.681160117305    -0.186572857842    12.000000000000
         C            6.091961426769    -4.993243445164    -0.189595374720    12.000000000000
         C            4.894972253569    -5.696333902735    -0.190831570550    12.000000000000
         H           -7.089896579082    -5.466985324016    -0.185429247689     1.007825032230
         H            7.031051018158    -5.542644018110    -0.186015594956     1.007825032230
         C           -4.923549513240    -7.078806581455    -0.192240611718    12.000000000000
         C           -2.485346279279    -7.087713559707    -0.194750504154    12.000000000000
         C           -3.751690082821    -7.763932639414    -0.194555825229    12.000000000000
         C           -0.037953148030    -7.099450356247    -0.194534779007    12.000000000000
         C           -1.277960291443    -7.772889866444    -0.196519471768    12.000000000000
         C            2.409440129685    -7.114007493780    -0.193671578196    12.000000000000
         C            1.194745746111    -7.786170847340    -0.195823869077    12.000000000000
         C            4.847616861456    -7.131247592357    -0.191164763536    12.000000000000
         C            3.668467414834    -7.803773474721    -0.193513197900    12.000000000000
         H           -5.869944541458    -7.613816079819    -0.190696574853     1.007825032230
         H            5.788245434347    -7.676317671092    -0.190037644054     1.007825032230
         H           -3.753531130491    -8.851057051013    -0.196391739658     1.007825032230
         H           -1.284308596936    -8.860860874274    -0.200946855627     1.007825032230
         H            1.189217383654    -8.874146102367    -0.199916505768     1.007825032230
         H            3.658542423782    -8.890846115831    -0.195167739322     1.007825032230

  Charge       = 0
  Multiplicity = 1
  Basis Set: JUN-CC-PVDZ
    Blend: JUN-CC-PVDZ
  Basis Set: (JUN-CC-PVDZ AUX)
    Blend: JUN-CC-PVDZ-JKFIT

    Orbital Energies [Eh]
    ---------------------

    Doubly Occupied:

       1A    -11.264127     2A    -11.263824     3A    -11.263664
       4A    -11.263315     5A    -11.263250     6A    -11.263242
       7A    -11.263134     8A    -11.263091     9A    -11.263070
      10A    -11.262843    11A    -11.262754    12A    -11.262706
      13A    -11.262264    14A    -11.262247    15A    -11.262214
      16A    -11.262197    17A    -11.262101    18A    -11.262090
      19A    -11.262052    20A    -11.262019    21A    -11.262000
      22A    -11.261934    23A    -11.261884    24A    -11.261750
      25A    -11.261748    26A    -11.261730    27A    -11.261708
      28A    -11.261684    29A    -11.261663    30A    -11.261569
      31A    -11.261563    32A    -11.261551    33A    -11.261542
      34A    -11.261515    35A    -11.261511    36A    -11.261492
      37A    -11.261332    38A    -11.261325    39A    -11.261318
      40A    -11.261313    41A    -11.261308    42A    -11.261305
      43A    -11.261282    44A    -11.261263    45A    -11.261260
      46A    -11.261236    47A    -11.261233    48A    -11.261228
      49A    -11.261030    50A    -11.261000    51A    -11.260989
      52A    -11.260919    53A    -11.260909    54A    -11.260858
      55A    -11.259912    56A    -11.259899    57A    -11.259896
      58A    -11.259867    59A    -11.259864    60A    -11.259848
      61A    -11.259280    62A    -11.259255    63A    -11.259251
      64A    -11.259200    65A    -11.259195    66A    -11.259166
      67A    -11.258914    68A    -11.258897    69A    -11.258893
      70A    -11.258866    71A    -11.258862    72A    -11.258851
      73A    -11.254534    74A    -11.254532    75A    -11.254525
      76A    -11.254525    77A    -11.254525    78A    -11.254524
      79A    -11.253655    80A    -11.253655    81A    -11.253651
      82A    -11.253650    83A    -11.253647    84A    -11.253647
      85A    -11.253571    86A    -11.253570    87A    -11.253567
      88A    -11.253565    89A    -11.253563    90A    -11.253562
      91A    -11.253061    92A    -11.253060    93A    -11.253053
      94A    -11.253053    95A    -11.253052    96A    -11.253052
      97A     -1.253885    98A     -1.238976    99A     -1.238965
     100A     -1.220454   101A     -1.220446   102A     -1.215387
     103A     -1.201039   104A     -1.195599   105A     -1.188099
     106A     -1.188088   107A     -1.173764   108A     -1.173757
     109A     -1.155598   110A     -1.155594   111A     -1.152669
     112A     -1.144722   113A     -1.144719   114A     -1.128551
     115A     -1.114685   116A     -1.113160   117A     -1.112434
     118A     -1.112426   119A     -1.111621   120A     -1.088411
     121A     -1.088389   122A     -1.076959   123A     -1.076958
     124A     -1.067588   125A     -1.067559   126A     -1.064934
     127A     -1.046790   128A     -1.046782   129A     -1.040463
     130A     -1.038733   131A     -1.038732   132A     -1.025200
     133A     -1.021332   134A     -1.021285   135A     -1.007171
     136A     -1.006801   137A     -1.003781   138A     -1.000458
     139A     -1.000406   140A     -0.991074   141A     -0.970964
     142A     -0.970919   143A     -0.955874   144A     -0.955817
     145A     -0.905551   146A     -0.905545   147A     -0.905511
     148A     -0.905510   149A     -0.904284   150A     -0.892330
     151A     -0.892274   152A     -0.890329   153A     -0.890271
     154A     -0.889433   155A     -0.872211   156A     -0.869060
     157A     -0.851530   158A     -0.847839   159A     -0.847818
     160A     -0.845563   161A     -0.842998   162A     -0.834550
     163A     -0.834536   164A     -0.828110   165A     -0.828108
     166A     -0.784532   167A     -0.784524   168A     -0.783629
     169A     -0.783604   170A     -0.782266   171A     -0.782248
     172A     -0.782006   173A     -0.766982   174A     -0.760758
     175A     -0.750530   176A     -0.733478   177A     -0.727057
     178A     -0.727045   179A     -0.725061   180A     -0.724529
     181A     -0.724514   182A     -0.718440   183A     -0.713739
     184A     -0.713732   185A     -0.699557   186A     -0.699549
     187A     -0.686078   188A     -0.685952   189A     -0.685948
     190A     -0.682168   191A     -0.682153   192A     -0.678736
     193A     -0.653603   194A     -0.650851   195A     -0.650821
     196A     -0.649773   197A     -0.649762   198A     -0.649559
     199A     -0.640883   200A     -0.640864   201A     -0.640082
     202A     -0.639160   203A     -0.635987   204A     -0.635962
     205A     -0.629127   206A     -0.617708   207A     -0.615297
     208A     -0.615279   209A     -0.608790   210A     -0.608783
     211A     -0.599112   212A     -0.599068   213A     -0.598720
     214A     -0.598586   215A     -0.598560   216A     -0.597987
     217A     -0.595059   218A     -0.595048   219A     -0.594701
     220A     -0.594188   221A     -0.591928   222A     -0.591924
     223A     -0.587346   224A     -0.577795   225A     -0.577785
     226A     -0.575645   227A     -0.575637   228A     -0.573372
     229A     -0.569586   230A     -0.568096   231A     -0.568079
     232A     -0.566733   233A     -0.566716   234A     -0.560911
     235A     -0.558688   236A     -0.558668   237A     -0.558423
     238A     -0.554347   239A     -0.550539   240A     -0.547473
     241A     -0.544248   242A     -0.535033   243A     -0.534958
     244A     -0.533515   245A     -0.533493   246A     -0.528065
     247A     -0.528051   248A     -0.527749   249A     -0.517119
     250A     -0.517088   251A     -0.515340   252A     -0.515334
     253A     -0.509634   254A     -0.509616   255A     -0.498014
     256A     -0.496430   257A     -0.496402   258A     -0.493764
     259A     -0.493724   260A     -0.489427   261A     -0.481441
     262A     -0.477410   263A     -0.477404   264A     -0.473981
     265A     -0.469418   266A     -0.466502   267A     -0.466498
     268A     -0.458765   269A     -0.446638   270A     -0.446577
     271A     -0.441004   272A     -0.440758   273A     -0.440736
     274A     -0.434678   275A     -0.433898   276A     -0.407349
     277A     -0.407329   278A     -0.386370   279A     -0.386307
     280A     -0.385729   281A     -0.385723   282A     -0.383709
     283A     -0.354302   284A     -0.354300   285A     -0.350627
     286A     -0.338019   287A     -0.335540   288A     -0.335465
     289A     -0.332703   290A     -0.332700   291A     -0.307016
     292A     -0.301875   293A     -0.301817   294A     -0.300832
     295A     -0.286143   296A     -0.256483   297A     -0.253435
     298A     -0.253389   299A     -0.204232   300A     -0.204138

  @DF-RHF Final Energy: -3650.34042874415536

   => Energetics <=

    Nuclear Repulsion Energy =          15611.4211649754324753
    One-Electron Energy =              -36072.1583555075121694
    Two-Electron Energy =               16810.3967617879243335
    Total Energy =                      -3650.3404287441553606
 Dipole X            :          0.0002602            0.0001983            0.0004586
 Dipole Y            :          0.0012962           -0.0013163           -0.0000201
 Dipole Z            :        218.6629308         -218.6619867            0.0009442
 Magnitude           :                                                    0.0010498

    SAPT Results
  --------------------------------------------------------------------------------------------------------
    Electrostatics                -96.86812545 [mEh]     -60.78566643 [kcal/mol]    -254.32722834 [kJ/mol]
      Elst10,r                    -96.86812545 [mEh]     -60.78566643 [kcal/mol]    -254.32722834 [kJ/mol]

    Exchange                      249.14476384 [mEh]     156.34069965 [kcal/mol]     654.12948735 [kJ/mol]
      Exch10                      249.14476384 [mEh]     156.34069965 [kcal/mol]     654.12948735 [kJ/mol]
      Exch10(S^2)                 240.13955373 [mEh]     150.68984499 [kcal/mol]     630.48631144 [kJ/mol]

    Induction                     -51.02481666 [mEh]     -32.01855585 [kcal/mol]    -133.96563768 [kJ/mol]
      Ind20,r                    -162.77832209 [mEh]    -102.14493923 [kcal/mol]    -427.37442576 [kJ/mol]
      Exch-Ind20,r                122.41958326 [mEh]      76.81944827 [kcal/mol]     321.41257157 [kJ/mol]
      delta HF,r (2)              -10.66607783 [mEh]      -6.69306489 [kcal/mol]     -28.00378350 [kJ/mol]

    Dispersion                    -40.03265415 [mEh]     -25.12086974 [kcal/mol]    -105.10571899 [kJ/mol]
      Disp20                      -58.46711404 [mEh]     -36.68866797 [kcal/mol]    -153.50538677 [kJ/mol]
      Exch-Disp20                  18.43445989 [mEh]      11.56779823 [kcal/mol]      48.39966778 [kJ/mol]
      Disp20 (SS)                 -29.23355702 [mEh]     -18.34433398 [kcal/mol]     -76.75269339 [kJ/mol]
      Disp20 (OS)                 -29.23355702 [mEh]     -18.34433398 [kcal/mol]     -76.75269339 [kJ/mol]
      Exch-Disp20 (SS)              9.46427400 [mEh]       5.93892160 [kcal/mol]      24.84844796 [kJ/mol]
      Exch-Disp20 (OS)              8.97018589 [mEh]       5.62887663 [kcal/mol]      23.55121982 [kJ/mol]

  Total HF                        101.25182173 [mEh]      63.53647737 [kcal/mol]     265.83662133 [kJ/mol]
  Total SAPT0                      61.21916758 [mEh]      38.41560763 [kcal/mol]     160.73090234 [kJ/mol]

  Special recipe for scaled SAPT0 (see Manual):
    Electrostatics sSAPT0         -96.86812545 [mEh]     -60.78566643 [kcal/mol]    -254.32722834 [kJ/mol]
    Exchange sSAPT0               249.14476384 [mEh]     156.34069965 [kcal/mol]     654.12948735 [kJ/mol]
    Induction sSAPT0              -36.72973831 [mEh]     -23.04825876 [kcal/mol]     -96.43391464 [kJ/mol]
    Dispersion sSAPT0             -37.88004064 [mEh]     -23.77008437 [kcal/mol]     -99.45403300 [kJ/mol]
  Total sSAPT0                     77.66685944 [mEh]      48.73669010 [kcal/mol]     203.91431137 [kJ/mol]
  --------------------------------------------------------------------------------------------------------

*** Psi4 exiting successfully. Buy a developer a beer!
