                               Psi4 1.9 release

  ==> Input File <==

--------------------------------------------------------------------------
memory 48 GB # how much memory is available ! Depends on the nodes/cores !

molecule dimer {
# monomer A
+1 1    # Charge and multiplicity
C  0.680067 -1.215929 2.308042
C -0.680504 -1.215545 2.306014
N -1.085635  0.102779 2.305016
C  0.000108  0.884180 2.301740
C -2.477365  0.570758 2.255610
N  1.085222  0.102779 2.305016
H  1.385146 -2.033368 2.315870
H -1.385302 -2.033214 2.306204
H -0.000009  1.965269 2.299993
C  2.478117  0.567877 2.321908
H  2.490592  1.658130 2.294563
H  2.967028  0.220701 3.235354
H  3.001428  0.176405 1.446425
H -2.857359  0.490799 1.233539
H -3.082679 -0.042306 2.925694
H -2.518128  1.610706 2.582594
--
# monomer B
0 1     # Charge and multiplicity
C   1.22531237526482      0.70753866091955      0.00613762728373
C   1.22532433589282     -0.70753852257020     -0.00619318228664
C   -0.00000567409046      1.41496628609039     -0.00672680580738
C   2.45644923379077      1.41832825917820      0.00902448468363
C   0.00001130712078     -1.41497612663474      0.00347275151708
C   -1.22530046906674      0.70754574598412      0.00838914760619
C   2.45643823516184     -1.41832293188077     -0.00843833914343
C   -0.00000085313587      2.83680140328112     -0.00913035594137
C   3.68182717731192      0.70931832800114     -0.00808954934571
C   2.45512052870677      2.83422403348893     -0.00819210630633
C   3.68182158506039     -0.70933346742900      0.00798293467272
C   -1.22531311884624     -0.70752714354401     -0.00512042085974
C   1.22670006104402      3.54346985599427      0.00816696660346
C   0.00000526469929     -2.83678176723568      0.00832091913869
C   -2.45643555300670      1.41831729028492      0.00842454345199
C   2.45512389762097     -2.83422965658853      0.00783102630520
C   -1.22671388474763      3.54346943575023      0.00827029982280
C   4.91451777504333      1.42717324448953     -0.00160886631602
C   3.69315067131765      3.54279566454522     -0.00155906667985
C   -2.45643712022637     -1.41831290883911     -0.00846337726810
C   1.22670532178455     -3.54347386990643     -0.00780316414624
C   -2.45512491866593      2.83421703463423     -0.00818572995999
C   4.91452486062398     -1.42718653794377      0.00136387641845
C   1.22142509354026      4.97013443726031      0.00150231067809
C   4.89300870916237      2.82518837202648     -0.00039219795739
C   -1.22669652864725     -3.54347062507680     -0.00753595973677
C   -3.68181849668397      0.70932533873199     -0.00807686886569
C   3.69314758099218     -3.54280096939050      0.00148176697923
C   -1.22143177215231      4.97012866986289      0.00168580605083
C   6.13477145276790      0.68054831910577     -0.00083909176631
C   3.65678936045204      4.97295361556775     -0.00065042889723
C   -2.45512642789169     -2.83421472106065      0.00758666850712
C   -3.68181869921921     -0.70932533146830      0.00810055625144
C   4.89301309775526     -2.82519973363176      0.00021895393805
C   -0.00000059327114      5.65044773803267      0.00045449734393
C   6.13477559217374     -0.68055448207492      0.00042622874941
C   2.47813196269732      5.65357712333155      0.00063835075260
C   1.22142288457925     -4.97012668293268     -0.00129718634452
C   -3.69316190412301      3.54279732619245     -0.00139355922051
C   -1.22142804110313     -4.97011793159564     -0.00140994817719
C   -4.91452132810043      1.42717581899491     -0.00153192130862
C   3.65678749952045     -4.97295485423912      0.00080007163680
C   -2.47813805026426      5.65357479452875      0.00092287576113
C   -3.69314125872231     -3.54278984697859      0.00136564082345
C   -4.91451200321153     -1.42718062802730      0.00139857359209
C   -0.00000552908399     -5.65043791501335      0.00005899322272
C   -4.89302000425900      2.82518897091939     -0.00040227981744
C   2.47812647313991     -5.65357317188818     -0.00029052915548
C   -3.65679823041642      4.97295655404175     -0.00047374852278
C   -4.89299899901461     -2.82519139505969      0.00006491824035
C   -2.47812801824129     -5.65356579800621     -0.00056571680280
C   -6.13477002348955      0.68054913825639     -0.00086464346868
C   -3.65678835334731     -4.97294365097028      0.00058578382008
C   -6.13476456307132     -0.68055354348201      0.00040575295444
H   5.83528897565761      3.36927626695423      0.00396712770529
H   7.07385965258860      1.22821762089947     -0.00037744837300
H   4.60066374401555      5.51238117445323     -0.00014522814529
H   5.83528386714679     -3.36930568472863     -0.00423551337640
H   -0.00001167146422      6.73853104613662     -0.00389474766392
H   7.07386165167227     -1.22822657074368     -0.00008250934481
H   2.47331421164041      6.74068466339473      0.00017162982210
H   4.60066897122302     -5.51237575717576      0.00039007446835
H   -2.47331820069565      6.74068209160650      0.00047297644710
H   -0.00000978838621     -6.73852780445195      0.00458867820736
H   -5.83530143450167      3.36927132229595      0.00410314985360
H   2.47330840367253     -6.74068500242887      0.00027980126949
H   -4.60067436136587      5.51237839860371      0.00002010017831
H   -5.83527902699321     -3.36928859177951     -0.00451481925734
H   -2.47329986759855     -6.74067870613986     -0.00016951527498
H   -7.07385728692578      1.22822084484047     -0.00046143985387
H   -4.60067330624313     -5.51236229778631      0.00021776644566
H   -7.07385645456741     -1.22822025997701     -0.00017736581114

    units angstrom      # Angstroms are the default
    no_reorient         # Geometry fixed, default
    symmetry c1         # C1 symmetry, default
}

set {
    scf_type DF         # Density fitting, faster than exact integrals
    freeze_core True    # Freeze core electrons
    basis jun-cc-pVDZ   # Jun-cc-pVDZ basis set, recommended for sSAPT0 in https://doi.org/10.1063/1.4867135
}

energy('ssapt0')        # Compute sSAPT0 energy, includes also SAPT0
--------------------------------------------------------------------------

  //              Dimer HF             //
    Molecular point group: c1
  Charge       = 1
  Multiplicity = 1
  Basis Set: JUN-CC-PVDZ
    Blend: JUN-CC-PVDZ
  Basis Set: (JUN-CC-PVDZ AUX)
    Blend: JUN-CC-PVDZ-JKFIT
  @DF-RHF Final Energy: -2358.84007879968567
    Total Energy =                      -2358.8400787996852159
 Dipole X            :          0.0185015            0.0006313            0.0191328
 Dipole Y            :         -1.8534767            1.8864948            0.0330181
 Dipole Z            :        -10.0195953           11.9332724            1.9136771
 Magnitude           :                                                    1.9140575
  //            Monomer A HF           //
    Molecular point group: c1
  Multiplicity = 1
  Basis Set: JUN-CC-PVDZ
    Blend: JUN-CC-PVDZ
  Basis Set: (JUN-CC-PVDZ AUX)
    Blend: JUN-CC-PVDZ-JKFIT
  @DF-RHF Final Energy:  -303.30130863736179
    Total Energy =                       -303.3013086373617853
  //            Monomer B HF           //
    Molecular point group: c1

    Geometry (in Angstrom), charge = 0, multiplicity = 1:

       Center              X                  Y                   Z               Mass
    ------------   -----------------  -----------------  -----------------  -----------------
      Gh(C)           0.680066520158    -1.215933861162     2.015498292152    12.000000000000
      Gh(C)          -0.680504479842    -1.215549861162     2.013470292152    12.000000000000
      Gh(N)          -1.085635479842     0.102774138838     2.012472292152    14.003074004430
      Gh(C)           0.000107520158     0.884175138838     2.009196292152    12.000000000000
      Gh(C)          -2.477365479842     0.570753138838     1.963066292152    12.000000000000
      Gh(N)           1.085221520158     0.102774138838     2.012472292152    14.003074004430
      Gh(H)           1.385145520158    -2.033372861162     2.023326292152     1.007825032230
      Gh(H)          -1.385302479842    -2.033218861162     2.013660292152     1.007825032230
      Gh(H)          -0.000009479842     1.965264138838     2.007449292152     1.007825032230
      Gh(C)           2.478116520158     0.567872138838     2.029364292152    12.000000000000
      Gh(H)           2.490591520158     1.658125138838     2.002019292152     1.007825032230
      Gh(H)           2.967027520158     0.220696138838     2.942810292152     1.007825032230
      Gh(H)           3.001427520158     0.176400138838     1.153881292152     1.007825032230
      Gh(H)          -2.857359479842     0.490794138838     0.940995292152     1.007825032230
      Gh(H)          -3.082679479842    -0.042310861162     2.633150292152     1.007825032230
      Gh(H)          -2.518128479842     1.610701138838     2.290050292152     1.007825032230
         C            1.225311895423     0.707533799757    -0.286406080564    12.000000000000
         C            1.225323856051    -0.707543383733    -0.298736890134    12.000000000000
         C           -0.000006153932     1.414961424928    -0.299270513655    12.000000000000
         C            2.456448753949     1.418323398016    -0.283519223164    12.000000000000
         C            0.000010827279    -1.414980987797    -0.289070956331    12.000000000000
         C           -1.225300948908     0.707540884822    -0.284154560241    12.000000000000
         C            2.456437755320    -1.418327793043    -0.300982046991    12.000000000000
         C           -0.000001332978     2.836796542119    -0.301674063789    12.000000000000
         C            3.681826697470     0.709313466839    -0.300633257193    12.000000000000
         C            2.455120048865     2.834219172327    -0.300735814154    12.000000000000
         C            3.681821105219    -0.709338328591    -0.284560773175    12.000000000000
         C           -1.225313598688    -0.707532004706    -0.297664128707    12.000000000000
         C            1.226699581202     3.543464994832    -0.284376741244    12.000000000000
         C            0.000004784858    -2.836786628398    -0.284222788709    12.000000000000
         C           -2.456436032848     1.418312429123    -0.284119164396    12.000000000000
         C            2.455123417779    -2.834234517751    -0.284712681542    12.000000000000
         C           -1.226714364589     3.543464574588    -0.284273408025    12.000000000000
         C            4.914517295202     1.427168383327    -0.294152574164    12.000000000000
         C            3.693150191476     3.542790803383    -0.294102774527    12.000000000000
         C           -2.456437600068    -1.418317770001    -0.301007085116    12.000000000000
         C            1.226704841943    -3.543478731069    -0.300346871994    12.000000000000
         C           -2.455125398508     2.834212173472    -0.300729437808    12.000000000000
         C            4.914524380782    -1.427191399106    -0.291179831429    12.000000000000
         C            1.221424613699     4.970129576098    -0.291041397170    12.000000000000
         C            4.893008229321     2.825183510864    -0.292935905805    12.000000000000
         C           -1.226697008489    -3.543475486239    -0.300079667584    12.000000000000
         C           -3.681818976526     0.709320477570    -0.300620576713    12.000000000000
         C            3.693147101150    -3.542805830553    -0.291061940868    12.000000000000
         C           -1.221432251994     4.970123808701    -0.290857901797    12.000000000000
         C            6.134770972926     0.680543457943    -0.293382799614    12.000000000000
         C            3.656788880610     4.972948754405    -0.293194136745    12.000000000000
         C           -2.455126907733    -2.834219582223    -0.284957039340    12.000000000000
         C           -3.681819179061    -0.709330192631    -0.284443151596    12.000000000000
         C            4.893012617914    -2.825204594794    -0.292324753910    12.000000000000
         C           -0.000001073113     5.650442876870    -0.292089210504    12.000000000000
         C            6.134775112332    -0.680559343237    -0.292117479098    12.000000000000
         C            2.478131482856     5.653572262169    -0.291905357095    12.000000000000
         C            1.221422404738    -4.970131544095    -0.293840894192    12.000000000000
         C           -3.693162383965     3.542792465030    -0.293937267068    12.000000000000
         C           -1.221428520945    -4.970122792758    -0.293953656025    12.000000000000
         C           -4.914521807942     1.427170957833    -0.294075629156    12.000000000000
         C            3.656787019679    -4.972959715401    -0.291743636211    12.000000000000
         C           -2.478138530106     5.653569933366    -0.291620832086    12.000000000000
         C           -3.693141738564    -3.542794708141    -0.291178067024    12.000000000000
         C           -4.914512483053    -1.427185489190    -0.291145134256    12.000000000000
         C           -0.000006008926    -5.650442776176    -0.292484714625    12.000000000000
         C           -4.893020484101     2.825184109757    -0.292945987665    12.000000000000
         C            2.478125993298    -5.653578033051    -0.292834237003    12.000000000000
         C           -3.656798710258     4.972951692879    -0.293017456370    12.000000000000
         C           -4.892999478856    -2.825196256222    -0.292478789607    12.000000000000
         C           -2.478128498083    -5.653570659169    -0.293109424650    12.000000000000
         C           -6.134770503331     0.680544277094    -0.293408351316    12.000000000000
         C           -3.656788833189    -4.972948512133    -0.291957924028    12.000000000000
         C           -6.134765042913    -0.680558404644    -0.292137954893    12.000000000000
         H            5.835288495816     3.369271405792    -0.288576580142     1.007825032230
         H            7.073859172747     1.228212759737    -0.292921156221     1.007825032230
         H            4.600663264174     5.512376313291    -0.292688935993     1.007825032230
         H            5.835283387305    -3.369310545891    -0.296779221224     1.007825032230
         H           -0.000012151306     6.738526184974    -0.296438455512     1.007825032230
         H            7.073861171831    -1.228231431906    -0.292626217192     1.007825032230
         H            2.473313731799     6.740679802232    -0.292372078026     1.007825032230
         H            4.600668491381    -5.512380618338    -0.292153633379     1.007825032230
         H           -2.473318680537     6.740677230444    -0.292070731401     1.007825032230
         H           -0.000010268228    -6.738532665614    -0.287955029640     1.007825032230
         H           -5.835301914343     3.369266461134    -0.288440557994     1.007825032230
         H            2.473307923831    -6.740689863591    -0.292263906578     1.007825032230
         H           -4.600674841208     5.512373537441    -0.292523607669     1.007825032230
         H           -5.835279506835    -3.369293452942    -0.297058527105     1.007825032230
         H           -2.473300347440    -6.740683567302    -0.292713223123     1.007825032230
         H           -7.073857766768     1.228215983678    -0.293005147701     1.007825032230
         H           -4.600673786085    -5.512367158949    -0.292325941402     1.007825032230
         H           -7.073856934409    -1.228225121139    -0.292721073659     1.007825032230

  Charge       = 0
  Multiplicity = 1
  Basis Set: JUN-CC-PVDZ
    Blend: JUN-CC-PVDZ
  Basis Set: (JUN-CC-PVDZ AUX)
    Blend: JUN-CC-PVDZ-JKFIT

    Orbital Energies [Eh]
    ---------------------

    Doubly Occupied:

       1A    -11.260615     2A    -11.260163     3A    -11.260151
       4A    -11.259378     5A    -11.259371     6A    -11.259171
       7A    -11.258901     8A    -11.258839     9A    -11.258823
      10A    -11.258506    11A    -11.258503    12A    -11.258342
      13A    -11.258305    14A    -11.258290    15A    -11.258275
      16A    -11.258251    17A    -11.258246    18A    -11.258230
      19A    -11.258222    20A    -11.258219    21A    -11.258201
      22A    -11.258177    23A    -11.258171    24A    -11.257995
      25A    -11.257152    26A    -11.257092    27A    -11.257081
      28A    -11.256965    29A    -11.256958    30A    -11.256875
      31A    -11.256248    32A    -11.256176    33A    -11.256165
      34A    -11.256071    35A    -11.256066    36A    -11.256010
      37A    -11.252121    38A    -11.252110    39A    -11.252075
      40A    -11.252074    41A    -11.252072    42A    -11.252070
      43A    -11.251195    44A    -11.251174    45A    -11.251158
      46A    -11.251155    47A    -11.251147    48A    -11.251140
      49A    -11.250682    50A    -11.250671    51A    -11.250637
      52A    -11.250635    53A    -11.250632    54A    -11.250631
      55A     -1.243685    56A     -1.219484    57A     -1.219451
      58A     -1.189229    59A     -1.189208    60A     -1.180601
      61A     -1.157266    62A     -1.148668    63A     -1.135160
      64A     -1.135125    65A     -1.112906    66A     -1.112899
      67A     -1.082087    68A     -1.082078    69A     -1.078260
      70A     -1.065705    71A     -1.065696    72A     -1.039079
      73A     -1.023892    74A     -1.021409    75A     -1.021341
      76A     -1.017443    77A     -1.012529    78A     -0.986677
      79A     -0.986619    80A     -0.961588    81A     -0.961533
      82A     -0.893987    83A     -0.893965    84A     -0.887555
      85A     -0.885795    86A     -0.885763    87A     -0.881033
      88A     -0.880990    89A     -0.861596    90A     -0.837153
      91A     -0.817879    92A     -0.816237    93A     -0.811783
      94A     -0.811775    95A     -0.794398    96A     -0.794382
      97A     -0.746244    98A     -0.744507    99A     -0.733061
     100A     -0.733043   101A     -0.731880   102A     -0.731854
     103A     -0.716159   104A     -0.698672   105A     -0.698634
     106A     -0.693261   107A     -0.693216   108A     -0.660928
     109A     -0.652760   110A     -0.650779   111A     -0.649966
     112A     -0.649961   113A     -0.639061   114A     -0.639039
     115A     -0.629374   116A     -0.627169   117A     -0.627158
     118A     -0.606437   119A     -0.605583   120A     -0.601298
     121A     -0.599432   122A     -0.599359   123A     -0.593280
     124A     -0.590833   125A     -0.590795   126A     -0.585020
     127A     -0.576380   128A     -0.576307   129A     -0.567049
     130A     -0.567030   131A     -0.565597   132A     -0.565597
     133A     -0.558360   134A     -0.554552   135A     -0.554542
     136A     -0.538297   137A     -0.538295   138A     -0.538116
     139A     -0.538107   140A     -0.529391   141A     -0.528097
     142A     -0.522567   143A     -0.522530   144A     -0.500208
     145A     -0.495477   146A     -0.492928   147A     -0.487690
     148A     -0.484720   149A     -0.481414   150A     -0.481412
     151A     -0.470220   152A     -0.470215   153A     -0.450629
     154A     -0.450568   155A     -0.438916   156A     -0.438907
     157A     -0.404558   158A     -0.404554   159A     -0.403189
     160A     -0.375249   161A     -0.375244   162A     -0.348928
     163A     -0.337389   164A     -0.336345   165A     -0.336322
     166A     -0.310878   167A     -0.297932   168A     -0.284107
     169A     -0.284076   170A     -0.224702   171A     -0.224637

  @DF-RHF Final Energy: -2055.89813759504568

   => Energetics <=

    Nuclear Repulsion Energy =           6452.5568002797781446
    One-Electron Energy =              -15636.5768582063392387
    Two-Electron Energy =                7128.1219203315167761
    Total Energy =                      -2055.8981375950452275
 Dipole X            :         -0.0009358           -0.0000085           -0.0009443
 Dipole Y            :         -0.0003464           -0.0028843           -0.0032307
 Dipole Z            :        189.0737196         -189.0684437            0.0052759
 Magnitude           :                                                    0.0062581

    SAPT Results
  --------------------------------------------------------------------------------------------------------
    Electrostatics               -256.73298658 [mEh]    -161.10238131 [kcal/mol]    -674.05236339 [kJ/mol]
      Elst10,r                   -256.73298658 [mEh]    -161.10238131 [kcal/mol]    -674.05236339 [kJ/mol]

    Exchange                      692.25657594 [mEh]     434.39755969 [kcal/mol]    1817.51938973 [kJ/mol]
      Exch10                      692.25657594 [mEh]     434.39755969 [kcal/mol]    1817.51938973 [kJ/mol]
      Exch10(S^2)                 648.21534549 [mEh]     406.76127034 [kcal/mol]    1701.88915511 [kJ/mol]

    Induction                     -76.15615664 [mEh]     -47.78870978 [kcal/mol]    -199.94796171 [kJ/mol]
      Ind20,r                    -383.62211288 [mEh]    -240.72651018 [kcal/mol]   -1007.19971861 [kJ/mol]
      Exch-Ind20,r                296.92165459 [mEh]     186.32115122 [kcal/mol]     779.56769671 [kJ/mol]
      delta HF,r (2)               10.54430166 [mEh]       6.61664918 [kcal/mol]      27.68406018 [kJ/mol]

    Dispersion                   -173.20204599 [mEh]    -108.68592474 [kcal/mol]    -454.74190911 [kJ/mol]
      Disp20                     -217.87622730 [mEh]    -136.71939674 [kcal/mol]    -572.03395596 [kJ/mol]
      Exch-Disp20                  44.67418130 [mEh]      28.03347200 [kcal/mol]     117.29204686 [kJ/mol]
      Disp20 (SS)                -108.93811365 [mEh]     -68.35969837 [kcal/mol]    -286.01697798 [kJ/mol]
      Disp20 (OS)                -108.93811365 [mEh]     -68.35969837 [kcal/mol]    -286.01697798 [kJ/mol]
      Exch-Disp20 (SS)             26.25523933 [mEh]      16.47541142 [kcal/mol]      68.93312137 [kJ/mol]
      Exch-Disp20 (OS)             18.41894197 [mEh]      11.55806059 [kcal/mol]      48.35892549 [kJ/mol]

  Total HF                        359.36743272 [mEh]     225.50646860 [kcal/mol]     943.51906462 [kJ/mol]
  Total SAPT0                     186.16538673 [mEh]     116.82054386 [kcal/mol]     488.77715551 [kJ/mol]

  Special recipe for scaled SAPT0 (see Manual):
    Electrostatics sSAPT0        -256.73298658 [mEh]    -161.10238131 [kcal/mol]    -674.05236339 [kJ/mol]
    Exchange sSAPT0               692.25657594 [mEh]     434.39755969 [kcal/mol]    1817.51938973 [kJ/mol]
    Induction sSAPT0              -11.43051915 [mEh]      -7.17275906 [kcal/mol]     -30.01082389 [kJ/mol]
    Dispersion sSAPT0            -163.46356845 [mEh]    -102.57493782 [kcal/mol]    -429.17353985 [kJ/mol]
  Total sSAPT0                    260.62950176 [mEh]     163.54748150 [kcal/mol]     684.28266259 [kJ/mol]
  --------------------------------------------------------------------------------------------------------

*** Psi4 exiting successfully. Buy a developer a beer!
