                               Psi4 1.9 release

  ==> Input File <==

--------------------------------------------------------------------------
memory 80 GB # how much memory is available ! Depends on the nodes/cores !

molecule dimer {
# monomer A
+1 1    # Charge and multiplicity
C  0.680067 1.417258 -5.515929
C -0.680504 1.419286 -5.515545
N -1.085635 1.420284 -4.197221
C  0.000108 1.423560 -3.415820
C -2.477365 1.469690 -3.729242
N  1.085222 1.420284 -4.197221
H  1.385146 1.409430 -6.333368
H -1.385302 1.419096 -6.333214
H -0.000009 1.425307 -2.334731
C  2.478117 1.403392 -3.732123
H  2.490592 1.430737 -2.641870
H  2.967028 0.489946 -4.079299
H  3.001428 2.278875 -4.123595
H -2.857359 2.491761 -3.809201
H -3.082679 0.799606 -4.342306
H -2.518128 1.142706 -2.689294
--
# monomer B
0 1     # Charge and multiplicity
C   -3.66844126402057      7.80375217008252      0.00190004133558
C   -4.84759871934653      7.13124183134024     -0.00046653359696
C   -4.89495929917518      5.69633040353158     -0.00103944469517
C   -3.65374067877320      4.98073034095895      0.00662099703436
C   -2.40942512149445      7.11398103667468      0.00209438359570
C   -2.42547734410473      5.68112195090346     -0.00491050527438
C   -1.19474401643570      7.78614419430947      0.00356656413763
C   0.03795902893699      7.09942164575698      0.00139585983271
C   0.03033258741920      5.66948955970466     -0.00408752508301
C   -1.20098450790502      4.96927034791531      0.00488220885047
C   1.27795782581485      7.77285944319479      0.00277170839332
C   2.48535808472416      7.08769688523756      0.00049722048857
C   2.48612868491717      5.65477081024076     -0.00644052849921
C   1.25408291964399      4.95607811366431      0.00518741308898
C   3.75171459140595      7.76391215098033      0.00062407186893
C   4.92356605618520      7.07878077698995     -0.00143240883900
C   4.95560727132542      5.64344746336949     -0.00159282164606
C   3.70680153420475      4.94121020833308      0.00349873852374
H   -3.65852113775815      8.89082741913536      0.00358502958574
H   -1.18921332975660      8.87412108735996      0.00753844057883
H   1.28429423888630      8.86083343548850      0.00693053253426
H   3.75354208679975      8.85103527897216      0.00214659618464
H   5.86995870320703      7.61379483465560     -0.00235777588134
H   -5.78823170750226      7.67630221293400     -0.00202638095293
C   -6.09197395869619      4.99326001364347     -0.00291168518608
C   -6.12866148031747      3.58258016879823     -0.00171050815740
C   -3.66457974004527      3.56418217974434     -0.00463560277484
C   -4.89429820469869      2.86108077590057      0.00453338221034
C   -2.43733499489796      2.84761165708481      0.00719617576166
C   -1.20922785759670      3.54788693497833     -0.00648285103018
C   1.24714157216223      3.53468075142962     -0.00729145743546
C   0.01517603956900      2.83311183930540      0.00439272578912
C   2.46764517244071      2.82128997725533      0.00449278391269
C   3.70254947457969      3.52466015442405     -0.00899517692985
C   6.14498038638375      4.92757236613191     -0.00282626685777
C   6.16658835886151      3.51658447594213     -0.00065971342101
C   4.92460995845939      2.80840792535402      0.00587903281610
H   7.08990550964105      5.46688776622306     -0.00658814770723
H   -7.03104175110130      5.54268795285765     -0.00714490013730
C   -7.33969804112295      2.85841153457957     -0.00333767559888
C   -7.36488195805880      1.47032337158330     -0.00157213747140
C   -4.90350460894690      1.44442681216000     -0.00628840166334
C   -6.13225715261081      0.73993935705394      0.00600164231964
C   -3.67687480051673      0.72669714267312      0.00433931473643
C   -2.44565658606518      1.42964113326212     -0.00597039546461
C   -1.22360068130162      0.71532450163492      0.00545886906656
C   0.00763786931376      1.41738314923765      0.00392452278437
C   1.23121980774686      0.70211669058719     -0.01490206287210
C   2.46082110053113      1.40329203612573      0.00460244601878
C   3.68443025419614      0.68719842821222      0.00377365974158
C   4.91870890153864      1.39173456118907     -0.00862816189375
C   7.36980207796101      2.77948220318441     -0.00242013321349
C   7.38016266612146      1.39121750785509     -0.00087345036788
C   6.13979953912259      0.67411862320065      0.00545489144369
H   -8.27919079934664      3.40711804112415     -0.00763522772059
H   8.31511347147953      3.31811809662368     -0.00663070901292
C   -8.59175593758115      0.72483255304480     -0.00123170985383
C   -8.59902460370342     -0.63263980622873      0.00089141472904
C   -6.13981313911873     -0.67413663715361     -0.00609792660607
C   -7.38018411213749     -1.39126618958160      0.00131813493501
C   -4.91868448025621     -1.39175501803000      0.00624257154343
C   -3.68443829568458     -0.68723731573599     -0.00478966852105
C   -2.46081704024768     -1.40334517882457      0.00575341766833
C   -1.23116201232071     -0.70217386488055     -0.00636696112346
C   -0.00756962538737     -1.41741884941102      0.00108956317991
C   1.22364771588843     -0.71527537726392      0.01109518512883
C   2.44567064933149     -1.42964328900682     -0.00065482763106
C   3.67686670284649     -0.72670743155550     -0.00479541202602
C   6.13224884641929     -0.73997883984993     -0.00632338623858
C   4.90351914550401     -1.44445752054090      0.00751768830159
C   8.59901484869081      0.63260386666793     -0.00101133422380
C   8.59174548810050     -0.72485086719319      0.00072504603735
C   7.36486276438985     -1.47033266560598      0.00049486934466
H   -9.52830597181814      1.27684744919284     -0.00270163681798
H   9.54141097460619      1.17457248844457     -0.00206336648518
C   -7.36983790976868     -2.77954514593389      0.00312634335708
C   -4.92459910905015     -2.80843725734101     -0.00460528907921
C   -6.16662249566744     -3.51665219282533      0.00169655107992
C   -3.70251035970491     -3.52468154912026      0.00571878010666
C   -2.46764698511392     -2.82132596280400     -0.00632585824990
C   -0.01513347410770     -2.83314164539971     -0.00604426974092
C   -1.24712184122656     -3.53473217556300      0.00551968366725
C   1.20924506964357     -3.54791467864352      0.00805871345849
C   2.43733602215464     -2.84764173817541     -0.00608104485234
C   4.89430234377080     -2.86112296828604     -0.00526030478103
C   3.66461525504104     -3.56421984553201      0.00761911515957
C   6.12863901474565     -3.58258405771778      0.00096495711699
C   7.33967266469532     -2.85841330737039      0.00248018319869
H   -9.54144911125902     -1.17456346666430      0.00226083090216
H   9.52826186807155     -1.27691907390448      0.00197485379837
H   -8.31516504384864     -3.31814985321231      0.00729857188773
H   8.27915514249207     -3.40714078989363      0.00681973918158
C   -6.14499418870218     -4.92764727278338      0.00302254913999
C   -3.70678334799751     -4.94126171411716     -0.00679841894792
C   -4.95559005800169     -5.64349397349412      0.00116871569699
C   -2.48612132622665     -5.65478557440947      0.00614125209662
C   -1.25405833548005     -4.95612205000132     -0.00503435388927
C   1.20101257386816     -4.96928038819302     -0.00385322963129
C   -0.03033667441341     -5.66952030313900      0.00398997003238
C   3.65375010132847     -4.98074377541453     -0.00309522988330
C   2.42549269587528     -5.68117463552727      0.00628170066869
C   6.09196561781097     -4.99325796338655      0.00325918379042
C   4.89497644461045     -5.69634842095790      0.00202298796027
H   -7.08989238804069     -5.46699984223871      0.00742531082125
H   7.03105520920009     -5.54265853633254      0.00683896355417
C   -4.92354532219813     -7.07882109967734      0.00061394679214
C   -2.48534208823777     -7.08772807792913     -0.00189594564379
C   -3.75168589177895     -7.76394715763627     -0.00170126671874
C   -0.03794895698805     -7.09946487446944     -0.00168022049625
C   -1.27795610040136     -7.77290438466689     -0.00366491325785
C   2.40944432072629     -7.11402201200282     -0.00081701968533
C   1.19474993715296     -7.78618536556242     -0.00296931056689
C   4.84762105249800     -7.13126211057943      0.00168979497423
C   3.66847160587561     -7.80378799294376     -0.00065863938960
H   -5.86994035041618     -7.61383059804164      0.00215798365757
H   5.78824962538815     -7.67633218931421      0.00281691445618
H   -3.75352693944918     -8.85107156923607     -0.00353718114765
H   -1.28430440589466     -8.86087539249706     -0.00809229711623
H   1.18922157469537     -8.87416062058945     -0.00706194725726
H   3.65854661482387     -8.89086063405326     -0.00231318081200

    units angstrom      # Angstroms are the default
    no_reorient         # Geometry fixed, default
    symmetry c1         # C1 symmetry, default
}

set {
    scf_type DF         # Density fitting, faster than exact integrals
    freeze_core True    # Freeze core electrons
    basis jun-cc-pVDZ   # Jun-cc-pVDZ basis set, recommended for sSAPT0 in https://doi.org/10.1063/1.4867135
}

energy('ssapt0')        # Compute sSAPT0 energy, includes also SAPT0
--------------------------------------------------------------------------

  //              Dimer HF             //
    Molecular point group: c1
  Charge       = 1
  Multiplicity = 1
  Basis Set: JUN-CC-PVDZ
    Blend: JUN-CC-PVDZ
  Basis Set: (JUN-CC-PVDZ AUX)
    Blend: JUN-CC-PVDZ-JKFIT
  @DF-RHF Final Energy: -3953.65915616984239
    Total Energy =                      -3953.6591561698405712
 Dipole X            :         -0.0056754            0.0004804           -0.0051950
 Dipole Y            :         -7.3140465            8.7122315            1.3981850
 Dipole Z            :         19.0049508          -24.2285913           -5.2236405
 Magnitude           :                                                    5.4075289
  //            Monomer A HF           //
    Molecular point group: c1
  Multiplicity = 1
  Basis Set: JUN-CC-PVDZ
    Blend: JUN-CC-PVDZ
  Basis Set: (JUN-CC-PVDZ AUX)
    Blend: JUN-CC-PVDZ-JKFIT
  @DF-RHF Final Energy:  -303.29836654410315
    Total Energy =                       -303.2983665441031462
  //            Monomer B HF           //
    Molecular point group: c1

    Geometry (in Angstrom), charge = 0, multiplicity = 1:

       Center              X                  Y                   Z               Mass
    ------------   -----------------  -----------------  -----------------  -----------------
      Gh(C)           0.680062820275     1.308604348936    -5.188092992773    12.000000000000
      Gh(C)          -0.680508179725     1.310632348936    -5.187708992773    12.000000000000
      Gh(N)          -1.085639179725     1.311630348936    -3.869384992773    14.003074004430
      Gh(C)           0.000103820275     1.314906348936    -3.087983992773    12.000000000000
      Gh(C)          -2.477369179725     1.361036348936    -3.401405992773    12.000000000000
      Gh(N)           1.085217820275     1.311630348936    -3.869384992773    14.003074004430
      Gh(H)           1.385141820275     1.300776348936    -6.005531992773     1.007825032230
      Gh(H)          -1.385306179725     1.310442348936    -6.005377992773     1.007825032230
      Gh(H)          -0.000013179725     1.316653348936    -2.006894992773     1.007825032230
      Gh(C)           2.478112820275     1.294738348936    -3.404286992773    12.000000000000
      Gh(H)           2.490587820275     1.322083348936    -2.314033992773     1.007825032230
      Gh(H)           2.967023820275     0.381292348936    -3.751462992773     1.007825032230
      Gh(H)           3.001423820275     2.170221348936    -3.795758992773     1.007825032230
      Gh(H)          -2.857363179725     2.383107348936    -3.481364992773     1.007825032230
      Gh(H)          -3.082683179725     0.690952348936    -4.014469992773     1.007825032230
      Gh(H)          -2.518132179725     1.034052348936    -2.361457992773     1.007825032230
         C           -3.668445443746     7.695098519018     0.329736048563    12.000000000000
         C           -4.847602899072     7.022588180276     0.327369473630    12.000000000000
         C           -4.894963478901     5.587676752467     0.326796562532    12.000000000000
         C           -3.653744858499     4.872076689895     0.334457004262    12.000000000000
         C           -2.409429301220     7.005327385610     0.329930390823    12.000000000000
         C           -2.425481523830     5.572468299839     0.322925501953    12.000000000000
         C           -1.194748196161     7.677490543245     0.331402571365    12.000000000000
         C            0.037954849212     6.990767994693     0.329231867060    12.000000000000
         C            0.030328407694     5.560835908640     0.323748482144    12.000000000000
         C           -1.200988687630     4.860616696851     0.332718216078    12.000000000000
         C            1.277953646089     7.664205792130     0.330607715621    12.000000000000
         C            2.485353904999     6.979043234173     0.328333227716    12.000000000000
         C            2.486124505192     5.546117159176     0.321395478728    12.000000000000
         C            1.254078739919     4.847424462600     0.333023420316    12.000000000000
         C            3.751710411681     7.655258499916     0.328460079096    12.000000000000
         C            4.923561876460     6.970127125926     0.326403598388    12.000000000000
         C            4.955603091600     5.534793812305     0.326243185581    12.000000000000
         C            3.706797354479     4.832556557269     0.331334745751    12.000000000000
         H           -3.658525317484     8.782173768071     0.331421036813     1.007825032230
         H           -1.189217509482     8.765467436296     0.335374447806     1.007825032230
         H            1.284290059161     8.752179784424     0.334766539762     1.007825032230
         H            3.753537907074     8.742381627908     0.329982603412     1.007825032230
         H            5.869954523482     7.505141183591     0.325478231346     1.007825032230
         H           -5.788235887228     7.567648561870     0.325809626274     1.007825032230
         C           -6.091978138422     4.884606362579     0.324924322041    12.000000000000
         C           -6.128665660043     3.473926517734     0.326125499070    12.000000000000
         C           -3.664583919771     3.455528528680     0.323200404453    12.000000000000
         C           -4.894302384424     2.752427124836     0.332369389438    12.000000000000
         C           -2.437339174623     2.738958006020     0.335032182989    12.000000000000
         C           -1.209232037322     3.439233283914     0.321353156197    12.000000000000
         C            1.247137392437     3.426027100365     0.320544549792    12.000000000000
         C            0.015171859844     2.724458188241     0.332228733016    12.000000000000
         C            2.467640992715     2.712636326191     0.332328791140    12.000000000000
         C            3.702545294854     3.416006503360     0.318840830298    12.000000000000
         C            6.144976206658     4.818918715067     0.325009740370    12.000000000000
         C            6.166584179136     3.407930824878     0.327176293806    12.000000000000
         C            4.924605778734     2.699754274290     0.333715040043    12.000000000000
         H            7.089901329916     5.358234115159     0.321247859520     1.007825032230
         H           -7.031045930827     5.434034301793     0.320691107090     1.007825032230
         C           -7.339702220848     2.749757883515     0.324498331628    12.000000000000
         C           -7.364886137784     1.361669720519     0.326263869756    12.000000000000
         C           -4.903508788672     1.335773161096     0.321547605564    12.000000000000
         C           -6.132261332336     0.631285705989     0.333837649547    12.000000000000
         C           -3.676878980242     0.618043491609     0.332175321964    12.000000000000
         C           -2.445660765791     1.320987482198     0.321865611763    12.000000000000
         C           -1.223604861027     0.606670850570     0.333294876294    12.000000000000
         C            0.007633689588     1.308729498173     0.331760530012    12.000000000000
         C            1.231215628021     0.593463039523     0.312933944355    12.000000000000
         C            2.460816920806     1.294638385061     0.332438453246    12.000000000000
         C            3.684426074471     0.578544777148     0.331609666969    12.000000000000
         C            4.918704721813     1.283080910125     0.319207845334    12.000000000000
         C            7.369797898236     2.670828552120     0.325415874014    12.000000000000
         C            7.380158486396     1.282563856791     0.326962556859    12.000000000000
         C            6.139795359397     0.565464972136     0.333290898671    12.000000000000
         H           -8.279194979072     3.298464390060     0.320200779507     1.007825032230
         H            8.315109291754     3.209464445559     0.321205298214     1.007825032230
         C           -8.591760117307     0.616178901980     0.326604297374    12.000000000000
         C           -8.599028783429    -0.741293457293     0.328727421956    12.000000000000
         C           -6.139817318844    -0.782790288218     0.321738080621    12.000000000000
         C           -7.380188291863    -1.499919840646     0.329154142162    12.000000000000
         C           -4.918688659982    -1.500408669094     0.334078578771    12.000000000000
         C           -3.684442475410    -0.795890966800     0.323046338706    12.000000000000
         C           -2.460821219973    -1.511998829889     0.333589424896    12.000000000000
         C           -1.231166192046    -0.810827515945     0.321469046104    12.000000000000
         C           -0.007573805113    -1.526072500475     0.328925570407    12.000000000000
         C            1.223643536163    -0.823929028328     0.338931192356    12.000000000000
         C            2.445666469606    -1.538296940071     0.327181179596    12.000000000000
         C            3.676862523121    -0.835361082620     0.323040595201    12.000000000000
         C            6.132244666694    -0.848632490914     0.321512620989    12.000000000000
         C            4.903514965779    -1.553111171605     0.335353695529    12.000000000000
         C            8.599010668965     0.523950215603     0.326824673004    12.000000000000
         C            8.591741308375    -0.833504518258     0.328561053265    12.000000000000
         C            7.364858584664    -1.578986316670     0.328330876572    12.000000000000
         H           -9.528310151544     1.168193798128     0.325134370409     1.007825032230
         H            9.541406794881     1.065918837380     0.325772640742     1.007825032230
         C           -7.369842089494    -2.888198796998     0.330962350584    12.000000000000
         C           -4.924603288776    -2.917090908405     0.323230718148    12.000000000000
         C           -6.166626675393    -3.625305843890     0.329532558307    12.000000000000
         C           -3.702514539430    -3.633335200185     0.333554787334    12.000000000000
         C           -2.467651164839    -2.929979613868     0.321510148977    12.000000000000
         C           -0.015137653833    -2.941795296464     0.321791737486    12.000000000000
         C           -1.247126020952    -3.643385826627     0.333355690895    12.000000000000
         C            1.209240889918    -3.656568329708     0.335894720686    12.000000000000
         C            2.437331842429    -2.956295389240     0.321754962375    12.000000000000
         C            4.894298164045    -2.969776619350     0.322575702446    12.000000000000
         C            3.664611075316    -3.672873496596     0.335455122387    12.000000000000
         C            6.128634835020    -3.691237708782     0.328800964344    12.000000000000
         C            7.339668484970    -2.967066958435     0.330316190426    12.000000000000
         H           -9.541453290984    -1.283217117729     0.330096838130     1.007825032230
         H            9.528257688346    -1.385572724969     0.329810861026     1.007825032230
         H           -8.315169223574    -3.426803504277     0.335134579115     1.007825032230
         H            8.279150962767    -3.515794440958     0.334655746409     1.007825032230
         C           -6.144998368428    -5.036300923848     0.330858556367    12.000000000000
         C           -3.706787527723    -5.049915365182     0.321037588279    12.000000000000
         C           -4.955594237727    -5.752147624559     0.329004722924    12.000000000000
         C           -2.486125505952    -5.763439225474     0.333977259324    12.000000000000
         C           -1.254062515205    -5.064775701066     0.322801653338    12.000000000000
         C            1.201008394143    -5.077934039257     0.323982777596    12.000000000000
         C           -0.030340854139    -5.778173954203     0.331825977260    12.000000000000
         C            3.653745921603    -5.089397426479     0.324740777344    12.000000000000
         C            2.425488516150    -5.789828286592     0.334117707896    12.000000000000
         C            6.091961438086    -5.101911614451     0.331095191018    12.000000000000
         C            4.894972264885    -5.805002072022     0.329858995188    12.000000000000
         H           -7.089896567766    -5.575653493303     0.335261318049     1.007825032230
         H            7.031051029475    -5.651312187397     0.334674970782     1.007825032230
         C           -4.923549501924    -7.187474750742     0.328449954020    12.000000000000
         C           -2.485346267963    -7.196381728994     0.325940061584    12.000000000000
         C           -3.751690071504    -7.872600808701     0.326134740509    12.000000000000
         C           -0.037953136713    -7.208118525534     0.326155786731    12.000000000000
         C           -1.277960280127    -7.881558035731     0.324171093970    12.000000000000
         C            2.409440141001    -7.222675663067     0.327018987542    12.000000000000
         C            1.194745757428    -7.894839016627     0.324866696660    12.000000000000
         C            4.847616872773    -7.239915761644     0.329525802202    12.000000000000
         C            3.668467426150    -7.912441644008     0.327177367838    12.000000000000
         H           -5.869944530142    -7.722484249106     0.329993990885     1.007825032230
         H            5.788245445663    -7.784985840379     0.330652921684     1.007825032230
         H           -3.753531119175    -8.959725220301     0.324298826080     1.007825032230
         H           -1.284308585620    -8.969529043562     0.319743710111     1.007825032230
         H            1.189217394970    -8.982814271654     0.320774059970     1.007825032230
         H            3.658542435098    -8.999514285118     0.325522826415     1.007825032230

  Charge       = 0
  Multiplicity = 1
  Basis Set: JUN-CC-PVDZ
    Blend: JUN-CC-PVDZ
  Basis Set: (JUN-CC-PVDZ AUX)
    Blend: JUN-CC-PVDZ-JKFIT

    Orbital Energies [Eh]
    ---------------------

    Doubly Occupied:

       1A    -11.264030     2A    -11.263673     3A    -11.263648
       4A    -11.263325     5A    -11.263286     6A    -11.263252
       7A    -11.263091     8A    -11.263080     9A    -11.263063
      10A    -11.262887    11A    -11.262746    12A    -11.262724
      13A    -11.262259    14A    -11.262248    15A    -11.262194
      16A    -11.262180    17A    -11.262105    18A    -11.262084
      19A    -11.262046    20A    -11.262003    21A    -11.261987
      22A    -11.261877    23A    -11.261850    24A    -11.261714
      25A    -11.261705    26A    -11.261684    27A    -11.261677
      28A    -11.261634    29A    -11.261626    30A    -11.261548
      31A    -11.261528    32A    -11.261520    33A    -11.261498
      34A    -11.261490    35A    -11.261475    36A    -11.261464
      37A    -11.261296    38A    -11.261288    39A    -11.261272
      40A    -11.261265    41A    -11.261253    42A    -11.261250
      43A    -11.261240    44A    -11.261231    45A    -11.261224
      46A    -11.261209    47A    -11.261196    48A    -11.261186
      49A    -11.261040    50A    -11.261015    51A    -11.261008
      52A    -11.260940    53A    -11.260937    54A    -11.260855
      55A    -11.259884    56A    -11.259859    57A    -11.259846
      58A    -11.259830    59A    -11.259817    60A    -11.259794
      61A    -11.259255    62A    -11.259225    63A    -11.259223
      64A    -11.259171    65A    -11.259168    66A    -11.259138
      67A    -11.258884    68A    -11.258860    69A    -11.258845
      70A    -11.258831    71A    -11.258819    72A    -11.258797
      73A    -11.254498    74A    -11.254494    75A    -11.254475
      76A    -11.254473    77A    -11.254465    78A    -11.254464
      79A    -11.253629    80A    -11.253608    81A    -11.253607
      82A    -11.253590    83A    -11.253582    84A    -11.253577
      85A    -11.253545    86A    -11.253521    87A    -11.253520
      88A    -11.253505    89A    -11.253498    90A    -11.253492
      91A    -11.253026    92A    -11.253021    93A    -11.253002
      94A    -11.253001    95A    -11.252993    96A    -11.252992
      97A     -1.253852    98A     -1.238919    99A     -1.238896
     100A     -1.220384   101A     -1.220375   102A     -1.215351
     103A     -1.200966   104A     -1.195525   105A     -1.188065
     106A     -1.188046   107A     -1.173691   108A     -1.173689
     109A     -1.155543   110A     -1.155538   111A     -1.152627
     112A     -1.144652   113A     -1.144648   114A     -1.128484
     115A     -1.114628   116A     -1.113092   117A     -1.112404
     118A     -1.112375   119A     -1.111550   120A     -1.088348
     121A     -1.088332   122A     -1.076893   123A     -1.076891
     124A     -1.067534   125A     -1.067497   126A     -1.064880
     127A     -1.046721   128A     -1.046712   129A     -1.040399
     130A     -1.038668   131A     -1.038663   132A     -1.025152
     133A     -1.021291   134A     -1.021231   135A     -1.007101
     136A     -1.006719   137A     -1.003718   138A     -1.000406
     139A     -1.000352   140A     -0.991011   141A     -0.970904
     142A     -0.970852   143A     -0.955813   144A     -0.955754
     145A     -0.905488   146A     -0.905487   147A     -0.905453
     148A     -0.905440   149A     -0.904226   150A     -0.892263
     151A     -0.892206   152A     -0.890265   153A     -0.890215
     154A     -0.889360   155A     -0.872147   156A     -0.868997
     157A     -0.851460   158A     -0.847767   159A     -0.847754
     160A     -0.845503   161A     -0.842924   162A     -0.834479
     163A     -0.834468   164A     -0.828051   165A     -0.828043
     166A     -0.784471   167A     -0.784463   168A     -0.783571
     169A     -0.783559   170A     -0.782202   171A     -0.782179
     172A     -0.781934   173A     -0.766899   174A     -0.760694
     175A     -0.750485   176A     -0.733413   177A     -0.726992
     178A     -0.726959   179A     -0.724992   180A     -0.724457
     181A     -0.724426   182A     -0.718398   183A     -0.713677
     184A     -0.713671   185A     -0.699499   186A     -0.699479
     187A     -0.686029   188A     -0.685877   189A     -0.685869
     190A     -0.682085   191A     -0.682078   192A     -0.678696
     193A     -0.653547   194A     -0.650789   195A     -0.650757
     196A     -0.649712   197A     -0.649707   198A     -0.649485
     199A     -0.640842   200A     -0.640799   201A     -0.640000
     202A     -0.639080   203A     -0.635935   204A     -0.635902
     205A     -0.629051   206A     -0.617731   207A     -0.615227
     208A     -0.615203   209A     -0.608714   210A     -0.608707
     211A     -0.599149   212A     -0.599095   213A     -0.598655
     214A     -0.598501   215A     -0.598490   216A     -0.597943
     217A     -0.594986   218A     -0.594972   219A     -0.594637
     220A     -0.594125   221A     -0.591865   222A     -0.591863
     223A     -0.587290   224A     -0.577729   225A     -0.577712
     226A     -0.575677   227A     -0.575665   228A     -0.573292
     229A     -0.569546   230A     -0.568048   231A     -0.568022
     232A     -0.566663   233A     -0.566656   234A     -0.560844
     235A     -0.558632   236A     -0.558594   237A     -0.558355
     238A     -0.554278   239A     -0.550534   240A     -0.547405
     241A     -0.544240   242A     -0.534965   243A     -0.534954
     244A     -0.533452   245A     -0.533436   246A     -0.527996
     247A     -0.527978   248A     -0.527690   249A     -0.517074
     250A     -0.517046   251A     -0.515313   252A     -0.515305
     253A     -0.509558   254A     -0.509546   255A     -0.497933
     256A     -0.496365   257A     -0.496324   258A     -0.493754
     259A     -0.493728   260A     -0.489391   261A     -0.481367
     262A     -0.477367   263A     -0.477365   264A     -0.473906
     265A     -0.469334   266A     -0.466424   267A     -0.466423
     268A     -0.458758   269A     -0.446571   270A     -0.446517
     271A     -0.440976   272A     -0.440711   273A     -0.440690
     274A     -0.434632   275A     -0.433849   276A     -0.407327
     277A     -0.407292   278A     -0.386347   279A     -0.386300
     280A     -0.385672   281A     -0.385670   282A     -0.383687
     283A     -0.354259   284A     -0.354245   285A     -0.350597
     286A     -0.338035   287A     -0.335513   288A     -0.335449
     289A     -0.332649   290A     -0.332648   291A     -0.307004
     292A     -0.301879   293A     -0.301814   294A     -0.300777
     295A     -0.286099   296A     -0.256414   297A     -0.253412
     298A     -0.253369   299A     -0.204193   300A     -0.204099

  @DF-RHF Final Energy: -3650.34143439448326

   => Energetics <=

    Nuclear Repulsion Energy =          15611.4211649754306563
    One-Electron Energy =              -36072.1889611671867897
    Two-Electron Energy =               16810.4263617972756037
    Total Energy =                      -3650.3414343944823486
 Dipole X            :         -0.0008725            0.0002112           -0.0006613
 Dipole Y            :        123.2196597         -123.2131634            0.0064963
 Dipole Z            :       -371.7091373          371.7155525            0.0064152
 Magnitude           :                                                    0.0091539

    SAPT Results
  --------------------------------------------------------------------------------------------------------
    Electrostatics                -16.68071955 [mEh]     -10.46730955 [kcal/mol]     -43.79522314 [kJ/mol]
      Elst10,r                    -16.68071955 [mEh]     -10.46730955 [kcal/mol]     -43.79522314 [kJ/mol]

    Exchange                       16.77485803 [mEh]      10.52638233 [kcal/mol]      44.04238369 [kJ/mol]
      Exch10                       16.77485803 [mEh]      10.52638233 [kcal/mol]      44.04238369 [kJ/mol]
      Exch10(S^2)                  16.69165989 [mEh]      10.47417472 [kcal/mol]      43.82394702 [kJ/mol]

    Induction                     -19.44936973 [mEh]     -12.20466377 [kcal/mol]     -51.06431320 [kJ/mol]
      Ind20,r                     -20.23517646 [mEh]     -12.69776494 [kcal/mol]     -53.12744849 [kJ/mol]
      Exch-Ind20,r                  4.41764639 [mEh]       2.77211496 [kcal/mol]      11.59852899 [kJ/mol]
      delta HF,r (2)               -3.63183965 [mEh]      -2.27901379 [kcal/mol]      -9.53539370 [kJ/mol]

    Dispersion                    -22.62852090 [mEh]     -14.19961124 [kcal/mol]     -59.41117343 [kJ/mol]
      Disp20                      -23.97321824 [mEh]     -15.04342156 [kcal/mol]     -62.94167582 [kJ/mol]
      Exch-Disp20                   1.34469735 [mEh]       0.84381032 [kcal/mol]       3.53050239 [kJ/mol]
      Disp20 (SS)                 -11.98660912 [mEh]      -7.52171078 [kcal/mol]     -31.47083791 [kJ/mol]
      Disp20 (OS)                 -11.98660912 [mEh]      -7.52171078 [kcal/mol]     -31.47083791 [kJ/mol]
      Exch-Disp20 (SS)              0.83005607 [mEh]       0.52086805 [kcal/mol]       2.17931191 [kJ/mol]
      Exch-Disp20 (OS)              0.51464128 [mEh]       0.32294228 [kcal/mol]       1.35119049 [kJ/mol]

  Total HF                        -19.35523126 [mEh]     -12.14559098 [kcal/mol]     -50.81715266 [kJ/mol]
  Total SAPT0                     -41.98375215 [mEh]     -26.34520222 [kcal/mol]    -110.22832609 [kJ/mol]

  Special recipe for scaled SAPT0 (see Manual):
    Electrostatics sSAPT0         -16.68071955 [mEh]     -10.46730955 [kcal/mol]     -43.79522314 [kJ/mol]
    Exchange sSAPT0                16.77485803 [mEh]      10.52638233 [kcal/mol]      44.04238369 [kJ/mol]
    Induction sSAPT0              -19.38298180 [mEh]     -12.16300471 [kcal/mol]     -50.89001170 [kJ/mol]
    Dispersion sSAPT0             -22.60831292 [mEh]     -14.18693054 [kcal/mol]     -59.35811740 [kJ/mol]
  Total sSAPT0                    -41.89715624 [mEh]     -26.29086247 [kcal/mol]    -110.00096856 [kJ/mol]
  --------------------------------------------------------------------------------------------------------

*** Psi4 exiting successfully. Buy a developer a beer!
