                               Psi4 1.9 release

  ==> Input File <==

--------------------------------------------------------------------------
memory 32 GB # how much memory is available ! Depends on the nodes/cores !

molecule dimer {
# monomer A
-1 1    # Charge and multiplicity
B -1.977592e-04  2.742729e-04 -1.999966
F  1.123153e-16  1.430594e-17 -0.587181
F  1.147860e+00  6.757812e-01 -2.471107
F  1.191806e-02 -1.332011e+00 -2.470905
F -1.159666e+00  6.560735e-01 -2.470826
--
# monomer B
0 1     # Charge and multiplicity
C   1.22531237526482      0.70753866091955      0.00613762728373
C   1.22532433589282     -0.70753852257020     -0.00619318228664
C   -0.00000567409046      1.41496628609039     -0.00672680580738
C   2.45644923379077      1.41832825917820      0.00902448468363
C   0.00001130712078     -1.41497612663474      0.00347275151708
C   -1.22530046906674      0.70754574598412      0.00838914760619
C   2.45643823516184     -1.41832293188077     -0.00843833914343
C   -0.00000085313587      2.83680140328112     -0.00913035594137
C   3.68182717731192      0.70931832800114     -0.00808954934571
C   2.45512052870677      2.83422403348893     -0.00819210630633
C   3.68182158506039     -0.70933346742900      0.00798293467272
C   -1.22531311884624     -0.70752714354401     -0.00512042085974
C   1.22670006104402      3.54346985599427      0.00816696660346
C   0.00000526469929     -2.83678176723568      0.00832091913869
C   -2.45643555300670      1.41831729028492      0.00842454345199
C   2.45512389762097     -2.83422965658853      0.00783102630520
C   -1.22671388474763      3.54346943575023      0.00827029982280
C   4.91451777504333      1.42717324448953     -0.00160886631602
C   3.69315067131765      3.54279566454522     -0.00155906667985
C   -2.45643712022637     -1.41831290883911     -0.00846337726810
C   1.22670532178455     -3.54347386990643     -0.00780316414624
C   -2.45512491866593      2.83421703463423     -0.00818572995999
C   4.91452486062398     -1.42718653794377      0.00136387641845
C   1.22142509354026      4.97013443726031      0.00150231067809
C   4.89300870916237      2.82518837202648     -0.00039219795739
C   -1.22669652864725     -3.54347062507680     -0.00753595973677
C   -3.68181849668397      0.70932533873199     -0.00807686886569
C   3.69314758099218     -3.54280096939050      0.00148176697923
C   -1.22143177215231      4.97012866986289      0.00168580605083
C   6.13477145276790      0.68054831910577     -0.00083909176631
C   3.65678936045204      4.97295361556775     -0.00065042889723
C   -2.45512642789169     -2.83421472106065      0.00758666850712
C   -3.68181869921921     -0.70932533146830      0.00810055625144
C   4.89301309775526     -2.82519973363176      0.00021895393805
C   -0.00000059327114      5.65044773803267      0.00045449734393
C   6.13477559217374     -0.68055448207492      0.00042622874941
C   2.47813196269732      5.65357712333155      0.00063835075260
C   1.22142288457925     -4.97012668293268     -0.00129718634452
C   -3.69316190412301      3.54279732619245     -0.00139355922051
C   -1.22142804110313     -4.97011793159564     -0.00140994817719
C   -4.91452132810043      1.42717581899491     -0.00153192130862
C   3.65678749952045     -4.97295485423912      0.00080007163680
C   -2.47813805026426      5.65357479452875      0.00092287576113
C   -3.69314125872231     -3.54278984697859      0.00136564082345
C   -4.91451200321153     -1.42718062802730      0.00139857359209
C   -0.00000552908399     -5.65043791501335      0.00005899322272
C   -4.89302000425900      2.82518897091939     -0.00040227981744
C   2.47812647313991     -5.65357317188818     -0.00029052915548
C   -3.65679823041642      4.97295655404175     -0.00047374852278
C   -4.89299899901461     -2.82519139505969      0.00006491824035
C   -2.47812801824129     -5.65356579800621     -0.00056571680280
C   -6.13477002348955      0.68054913825639     -0.00086464346868
C   -3.65678835334731     -4.97294365097028      0.00058578382008
C   -6.13476456307132     -0.68055354348201      0.00040575295444
H   5.83528897565761      3.36927626695423      0.00396712770529
H   7.07385965258860      1.22821762089947     -0.00037744837300
H   4.60066374401555      5.51238117445323     -0.00014522814529
H   5.83528386714679     -3.36930568472863     -0.00423551337640
H   -0.00001167146422      6.73853104613662     -0.00389474766392
H   7.07386165167227     -1.22822657074368     -0.00008250934481
H   2.47331421164041      6.74068466339473      0.00017162982210
H   4.60066897122302     -5.51237575717576      0.00039007446835
H   -2.47331820069565      6.74068209160650      0.00047297644710
H   -0.00000978838621     -6.73852780445195      0.00458867820736
H   -5.83530143450167      3.36927132229595      0.00410314985360
H   2.47330840367253     -6.74068500242887      0.00027980126949
H   -4.60067436136587      5.51237839860371      0.00002010017831
H   -5.83527902699321     -3.36928859177951     -0.00451481925734
H   -2.47329986759855     -6.74067870613986     -0.00016951527498
H   -7.07385728692578      1.22822084484047     -0.00046143985387
H   -4.60067330624313     -5.51236229778631      0.00021776644566
H   -7.07385645456741     -1.22822025997701     -0.00017736581114

    units angstrom      # Angstroms are the default
    no_reorient         # Geometry fixed, default
    symmetry c1         # C1 symmetry, default
}

set {
    scf_type DF         # Density fitting, faster than exact integrals
    freeze_core True    # Freeze core electrons
    basis jun-cc-pVDZ   # Jun-cc-pVDZ basis set, recommended for sSAPT0 in https://doi.org/10.1063/1.4867135
}

energy('ssapt0')        # Compute sSAPT0 energy, includes also SAPT0
--------------------------------------------------------------------------

  //              Dimer HF             //
    Molecular point group: c1
  Charge       = -1
  Multiplicity = 1
  Basis Set: JUN-CC-PVDZ
    Blend: JUN-CC-PVDZ
  Basis Set: (JUN-CC-PVDZ AUX)
    Blend: JUN-CC-PVDZ-JKFIT
  @DF-RHF Final Energy: -2477.60304541278538
    Total Energy =                      -2477.6030454127849225
 Dipole X            :         -0.0006643            0.0000481           -0.0006163
 Dipole Y            :          0.0005633           -0.0001453            0.0004180
 Dipole Z            :        -10.9333829           12.2608226            1.3274397
 Magnitude           :                                                    1.3274399
  //            Monomer A HF           //
    Molecular point group: c1
  Multiplicity = 1
  Basis Set: JUN-CC-PVDZ
    Blend: JUN-CC-PVDZ
  Basis Set: (JUN-CC-PVDZ AUX)
    Blend: JUN-CC-PVDZ-JKFIT
  @DF-RHF Final Energy:  -422.78047626117097
    Total Energy =                       -422.7804762611709748
  //            Monomer B HF           //
    Molecular point group: c1

    Geometry (in Angstrom), charge = 0, multiplicity = 1:

       Center              X                  Y                   Z               Mass
    ------------   -----------------  -----------------  -----------------  -----------------
      Gh(B)          -0.000198161052     0.000273808717    -1.768924453051    11.009305360000
      Gh(F)          -0.000000401852    -0.000000464183    -0.356139453051    18.998403162730
      Gh(F)           1.147859598148     0.675780735817    -2.240065453051    18.998403162730
      Gh(F)           0.011917658148    -1.332011464183    -2.239863453051    18.998403162730
      Gh(F)          -1.159666401852     0.656073035817    -2.239784453051    18.998403162730
         C            1.225311973413     0.707538196736     0.237179174233    12.000000000000
         C            1.225323934041    -0.707538986754     0.224848364662    12.000000000000
         C           -0.000006075942     1.414965821907     0.224314741142    12.000000000000
         C            2.456448831939     1.418327794995     0.240066031633    12.000000000000
         C            0.000010905269    -1.414976590818     0.234514298466    12.000000000000
         C           -1.225300870919     0.707545281801     0.239430694555    12.000000000000
         C            2.456437833310    -1.418323396064     0.222603207806    12.000000000000
         C           -0.000001254988     2.836800939098     0.221911191008    12.000000000000
         C            3.681826775460     0.709317863818     0.222951997603    12.000000000000
         C            2.455120126855     2.834223569306     0.222849440643    12.000000000000
         C            3.681821183209    -0.709333931612     0.239024481622    12.000000000000
         C           -1.225313520698    -0.707527607727     0.225921126089    12.000000000000
         C            1.226699659192     3.543469391811     0.239208513553    12.000000000000
         C            0.000004862847    -2.836782231419     0.239362466088    12.000000000000
         C           -2.456435954859     1.418316826102     0.239466090401    12.000000000000
         C            2.455123495769    -2.834230120772     0.238872573254    12.000000000000
         C           -1.226714286599     3.543468971567     0.239311846772    12.000000000000
         C            4.914517373191     1.427172780306     0.229432680633    12.000000000000
         C            3.693150269466     3.542795200362     0.229482480269    12.000000000000
         C           -2.456437522078    -1.418313373022     0.222578169681    12.000000000000
         C            1.226704919933    -3.543474334090     0.223238382803    12.000000000000
         C           -2.455125320518     2.834216570451     0.222855816989    12.000000000000
         C            4.914524458772    -1.427187002127     0.232405423368    12.000000000000
         C            1.221424691688     4.970133973077     0.232543857627    12.000000000000
         C            4.893008307311     2.825187907843     0.230649348992    12.000000000000
         C           -1.226696930499    -3.543471089260     0.223505587212    12.000000000000
         C           -3.681818898536     0.709324874549     0.222964678083    12.000000000000
         C            3.693147179140    -3.542801433574     0.232523313928    12.000000000000
         C           -1.221432174004     4.970128205680     0.232727353000    12.000000000000
         C            6.134771050916     0.680547854922     0.230202455183    12.000000000000
         C            3.656788958600     4.972953151384     0.230391118052    12.000000000000
         C           -2.455126829744    -2.834215185244     0.238628215456    12.000000000000
         C           -3.681819101071    -0.709325795652     0.239142103201    12.000000000000
         C            4.893012695903    -2.825200197815     0.231260500887    12.000000000000
         C           -0.000000995123     5.650447273849     0.231496044293    12.000000000000
         C            6.134775190322    -0.680554946258     0.231467775699    12.000000000000
         C            2.478131560845     5.653576659148     0.231679897702    12.000000000000
         C            1.221422482727    -4.970127147116     0.229744360605    12.000000000000
         C           -3.693162305975     3.542796862009     0.229647987729    12.000000000000
         C           -1.221428442955    -4.970118395779     0.229631598772    12.000000000000
         C           -4.914521729952     1.427175354812     0.229509625640    12.000000000000
         C            3.656787097669    -4.972955318422     0.231841618586    12.000000000000
         C           -2.478138452116     5.653574330345     0.231964422710    12.000000000000
         C           -3.693141660574    -3.542790311162     0.232407187773    12.000000000000
         C           -4.914512405063    -1.427181092211     0.232440120541    12.000000000000
         C           -0.000005930936    -5.650438379197     0.231100540172    12.000000000000
         C           -4.893020406111     2.825188506736     0.230639267132    12.000000000000
         C            2.478126071288    -5.653573636072     0.230751017794    12.000000000000
         C           -3.656798632268     4.972956089858     0.230567798426    12.000000000000
         C           -4.892999400866    -2.825191859243     0.231106465189    12.000000000000
         C           -2.478128420093    -5.653566262190     0.230475830146    12.000000000000
         C           -6.134770425341     0.680548674073     0.230176903480    12.000000000000
         C           -3.656788755199    -4.972944115154     0.231627330769    12.000000000000
         C           -6.134764964923    -0.680554007665     0.231447299904    12.000000000000
         H            5.835288573806     3.369275802771     0.235008674654     1.007825032230
         H            7.073859250737     1.228217156716     0.230664098576     1.007825032230
         H            4.600663342164     5.512380710270     0.230896318804     1.007825032230
         H            5.835283465295    -3.369306148912     0.226806033573     1.007825032230
         H           -0.000012073316     6.738530581953     0.227146799285     1.007825032230
         H            7.073861249820    -1.228227034927     0.230959037604     1.007825032230
         H            2.473313809789     6.740684199211     0.231213176771     1.007825032230
         H            4.600668569371    -5.512376221359     0.231431621417     1.007825032230
         H           -2.473318602548     6.740681627423     0.231514523396     1.007825032230
         H           -0.000010190238    -6.738528268635     0.235630225156     1.007825032230
         H           -5.835301836354     3.369270858113     0.235144696803     1.007825032230
         H            2.473308001821    -6.740685466612     0.231321348219     1.007825032230
         H           -4.600674763218     5.512377934420     0.231061647127     1.007825032230
         H           -5.835279428845    -3.369289055963     0.226526727692     1.007825032230
         H           -2.473300269450    -6.740679170323     0.230872031674     1.007825032230
         H           -7.073857688778     1.228220380657     0.230580107095     1.007825032230
         H           -4.600673708095    -5.512362761970     0.231259313395     1.007825032230
         H           -7.073856856419    -1.228220724160     0.230864181138     1.007825032230

  Charge       = 0
  Multiplicity = 1
  Basis Set: JUN-CC-PVDZ
    Blend: JUN-CC-PVDZ
  Basis Set: (JUN-CC-PVDZ AUX)
    Blend: JUN-CC-PVDZ-JKFIT

    Orbital Energies [Eh]
    ---------------------

    Doubly Occupied:

       1A    -11.260593     2A    -11.260145     3A    -11.260142
       4A    -11.259401     5A    -11.259400     6A    -11.259222
       7A    -11.258980     8A    -11.258905     9A    -11.258904
      10A    -11.258569    11A    -11.258566    12A    -11.258462
      13A    -11.258408    14A    -11.258406    15A    -11.258403
      16A    -11.258370    17A    -11.258363    18A    -11.258348
      19A    -11.258345    20A    -11.258343    21A    -11.258338
      22A    -11.258272    23A    -11.258268    24A    -11.258013
      25A    -11.257239    26A    -11.257180    27A    -11.257179
      28A    -11.257050    29A    -11.257050    30A    -11.256970
      31A    -11.256329    32A    -11.256262    33A    -11.256261
      34A    -11.256155    35A    -11.256155    36A    -11.256109
      37A    -11.252238    38A    -11.252237    39A    -11.252236
      40A    -11.252235    41A    -11.252232    42A    -11.252231
      43A    -11.251332    44A    -11.251331    45A    -11.251331
      46A    -11.251307    47A    -11.251306    48A    -11.251303
      49A    -11.250800    50A    -11.250798    51A    -11.250797
      52A    -11.250795    53A    -11.250793    54A    -11.250792
      55A     -1.243830    56A     -1.219680    57A     -1.219679
      58A     -1.189441    59A     -1.189434    60A     -1.180688
      61A     -1.157484    62A     -1.148886    63A     -1.135304
      64A     -1.135297    65A     -1.113116    66A     -1.113111
      67A     -1.082296    68A     -1.082289    69A     -1.078391
      70A     -1.065910    71A     -1.065906    72A     -1.039304
      73A     -1.024115    74A     -1.021531    75A     -1.021488
      76A     -1.017662    77A     -1.012724    78A     -0.986890
      79A     -0.986844    80A     -0.961778    81A     -0.961728
      82A     -0.894202    83A     -0.894175    84A     -0.887734
      85A     -0.886001    86A     -0.885943    87A     -0.881245
      88A     -0.881197    89A     -0.861811    90A     -0.837362
      91A     -0.818112    92A     -0.816447    93A     -0.811959
      94A     -0.811950    95A     -0.794607    96A     -0.794596
      97A     -0.746481    98A     -0.744723    99A     -0.733244
     100A     -0.733235   101A     -0.732087   102A     -0.732064
     103A     -0.716349   104A     -0.698885   105A     -0.698874
     106A     -0.693440   107A     -0.693424   108A     -0.661142
     109A     -0.652933   110A     -0.650979   111A     -0.650153
     112A     -0.650147   113A     -0.639281   114A     -0.639278
     115A     -0.629579   116A     -0.627352   117A     -0.627336
     118A     -0.606517   119A     -0.605769   120A     -0.601534
     121A     -0.599633   122A     -0.599601   123A     -0.593535
     124A     -0.590955   125A     -0.590944   126A     -0.585227
     127A     -0.576353   128A     -0.576348   129A     -0.567249
     130A     -0.567235   131A     -0.565787   132A     -0.565768
     133A     -0.558568   134A     -0.554734   135A     -0.554727
     136A     -0.538499   137A     -0.538497   138A     -0.538146
     139A     -0.538140   140A     -0.529622   141A     -0.528186
     142A     -0.522766   143A     -0.522760   144A     -0.500422
     145A     -0.495542   146A     -0.493145   147A     -0.487783
     148A     -0.484962   149A     -0.481617   150A     -0.481609
     151A     -0.470332   152A     -0.470314   153A     -0.450820
     154A     -0.450742   155A     -0.439023   156A     -0.439013
     157A     -0.404683   158A     -0.404660   159A     -0.403309
     160A     -0.375381   161A     -0.375378   162A     -0.349069
     163A     -0.337493   164A     -0.336462   165A     -0.336404
     166A     -0.311006   167A     -0.298083   168A     -0.284246
     169A     -0.284193   170A     -0.224814   171A     -0.224748

  @DF-RHF Final Energy: -2055.89579109846181

   => Energetics <=

    Nuclear Repulsion Energy =           6452.5568002797772351
    One-Electron Energy =              -15636.5197942671802593
    Two-Electron Energy =                7128.0672028889412104
    Total Energy =                      -2055.8957910984618138
 Dipole X            :          0.0000040            0.0000419            0.0000459
 Dipole Y            :          0.0000637           -0.0000426            0.0000211
 Dipole Z            :       -149.3232817          149.3175516           -0.0057300
 Magnitude           :                                                    0.0057303

    SAPT Results
  --------------------------------------------------------------------------------------------------------
    Electrostatics               -826.84342034 [mEh]    -518.85207959 [kcal/mol]   -2170.87710102 [kJ/mol]
      Elst10,r                   -826.84342034 [mEh]    -518.85207959 [kcal/mol]   -2170.87710102 [kJ/mol]

    Exchange                     1833.34999457 [mEh]    1150.44449034 [kcal/mol]    4813.45974759 [kJ/mol]
      Exch10                     1833.34999457 [mEh]    1150.44449034 [kcal/mol]    4813.45974759 [kJ/mol]
      Exch10(S^2)                1593.18396165 [mEh]     999.73802940 [kcal/mol]    4182.90391502 [kJ/mol]

    Induction                      66.71537262 [mEh]      41.86452836 [kcal/mol]     175.16118667 [kJ/mol]
      Ind20,r                   -1099.16866732 [mEh]    -689.73875202 [kcal/mol]   -2885.86693846 [kJ/mol]
      Exch-Ind20,r                607.67871417 [mEh]     381.32415015 [kcal/mol]    1595.46024424 [kJ/mol]
      delta HF,r (2)              558.20532577 [mEh]     350.27913023 [kcal/mol]    1465.56788089 [kJ/mol]

    Dispersion                   -128.22745294 [mEh]     -80.46394152 [kcal/mol]    -336.66113131 [kJ/mol]
      Disp20                     -220.86845544 [mEh]    -138.59704825 [kcal/mol]    -579.89004986 [kJ/mol]
      Exch-Disp20                  92.64100250 [mEh]      58.13310673 [kcal/mol]     243.22891855 [kJ/mol]
      Disp20 (SS)                -110.43422772 [mEh]     -69.29852412 [kcal/mol]    -289.94502493 [kJ/mol]
      Disp20 (OS)                -110.43422772 [mEh]     -69.29852412 [kcal/mol]    -289.94502493 [kJ/mol]
      Exch-Disp20 (SS)             40.57269837 [mEh]      25.45975260 [kcal/mol]     106.52360490 [kJ/mol]
      Exch-Disp20 (OS)             52.06830413 [mEh]      32.67335412 [kcal/mol]     136.70531366 [kJ/mol]

  Total HF                       1073.22194685 [mEh]     673.45693911 [kcal/mol]    2817.74383325 [kJ/mol]
  Total SAPT0                     944.99449391 [mEh]     592.99299760 [kcal/mol]    2481.08270194 [kJ/mol]

  Special recipe for scaled SAPT0 (see Manual):
    Electrostatics sSAPT0        -826.84342034 [mEh]    -518.85207959 [kcal/mol]   -2170.87710102 [kJ/mol]
    Exchange sSAPT0              1833.34999457 [mEh]    1150.44449034 [kcal/mol]    4813.45974759 [kJ/mol]
    Induction sSAPT0              385.03965395 [mEh]     241.61603063 [kcal/mol]    1010.92147217 [kJ/mol]
    Dispersion sSAPT0             -79.69871587 [mEh]     -50.01169926 [kcal/mol]    -209.24894969 [kJ/mol]
  Total sSAPT0                   1311.84751231 [mEh]     823.19674213 [kcal/mol]    3444.25516906 [kJ/mol]
  --------------------------------------------------------------------------------------------------------

*** Psi4 exiting successfully. Buy a developer a beer!
