                               Psi4 1.9 release

  ==> Input File <==

--------------------------------------------------------------------------
memory 80 GB # how much memory is available ! Depends on the nodes/cores !

molecule dimer {
# monomer A
-1 1    # Charge and multiplicity
B -0.000046  0.000337 3.499994
F -1.153597  0.000048 4.315641
F  1.153661 -0.000581 4.315641
F -0.000019 -1.153637 2.684360
F -0.000019  1.153978 2.684360
--
# monomer B
0 1     # Charge and multiplicity
C   -3.66844126402057      7.80375217008252      0.00190004133558
C   -4.84759871934653      7.13124183134024     -0.00046653359696
C   -4.89495929917518      5.69633040353158     -0.00103944469517
C   -3.65374067877320      4.98073034095895      0.00662099703436
C   -2.40942512149445      7.11398103667468      0.00209438359570
C   -2.42547734410473      5.68112195090346     -0.00491050527438
C   -1.19474401643570      7.78614419430947      0.00356656413763
C   0.03795902893699      7.09942164575698      0.00139585983271
C   0.03033258741920      5.66948955970466     -0.00408752508301
C   -1.20098450790502      4.96927034791531      0.00488220885047
C   1.27795782581485      7.77285944319479      0.00277170839332
C   2.48535808472416      7.08769688523756      0.00049722048857
C   2.48612868491717      5.65477081024076     -0.00644052849921
C   1.25408291964399      4.95607811366431      0.00518741308898
C   3.75171459140595      7.76391215098033      0.00062407186893
C   4.92356605618520      7.07878077698995     -0.00143240883900
C   4.95560727132542      5.64344746336949     -0.00159282164606
C   3.70680153420475      4.94121020833308      0.00349873852374
H   -3.65852113775815      8.89082741913536      0.00358502958574
H   -1.18921332975660      8.87412108735996      0.00753844057883
H   1.28429423888630      8.86083343548850      0.00693053253426
H   3.75354208679975      8.85103527897216      0.00214659618464
H   5.86995870320703      7.61379483465560     -0.00235777588134
H   -5.78823170750226      7.67630221293400     -0.00202638095293
C   -6.09197395869619      4.99326001364347     -0.00291168518608
C   -6.12866148031747      3.58258016879823     -0.00171050815740
C   -3.66457974004527      3.56418217974434     -0.00463560277484
C   -4.89429820469869      2.86108077590057      0.00453338221034
C   -2.43733499489796      2.84761165708481      0.00719617576166
C   -1.20922785759670      3.54788693497833     -0.00648285103018
C   1.24714157216223      3.53468075142962     -0.00729145743546
C   0.01517603956900      2.83311183930540      0.00439272578912
C   2.46764517244071      2.82128997725533      0.00449278391269
C   3.70254947457969      3.52466015442405     -0.00899517692985
C   6.14498038638375      4.92757236613191     -0.00282626685777
C   6.16658835886151      3.51658447594213     -0.00065971342101
C   4.92460995845939      2.80840792535402      0.00587903281610
H   7.08990550964105      5.46688776622306     -0.00658814770723
H   -7.03104175110130      5.54268795285765     -0.00714490013730
C   -7.33969804112295      2.85841153457957     -0.00333767559888
C   -7.36488195805880      1.47032337158330     -0.00157213747140
C   -4.90350460894690      1.44442681216000     -0.00628840166334
C   -6.13225715261081      0.73993935705394      0.00600164231964
C   -3.67687480051673      0.72669714267312      0.00433931473643
C   -2.44565658606518      1.42964113326212     -0.00597039546461
C   -1.22360068130162      0.71532450163492      0.00545886906656
C   0.00763786931376      1.41738314923765      0.00392452278437
C   1.23121980774686      0.70211669058719     -0.01490206287210
C   2.46082110053113      1.40329203612573      0.00460244601878
C   3.68443025419614      0.68719842821222      0.00377365974158
C   4.91870890153864      1.39173456118907     -0.00862816189375
C   7.36980207796101      2.77948220318441     -0.00242013321349
C   7.38016266612146      1.39121750785509     -0.00087345036788
C   6.13979953912259      0.67411862320065      0.00545489144369
H   -8.27919079934664      3.40711804112415     -0.00763522772059
H   8.31511347147953      3.31811809662368     -0.00663070901292
C   -8.59175593758115      0.72483255304480     -0.00123170985383
C   -8.59902460370342     -0.63263980622873      0.00089141472904
C   -6.13981313911873     -0.67413663715361     -0.00609792660607
C   -7.38018411213749     -1.39126618958160      0.00131813493501
C   -4.91868448025621     -1.39175501803000      0.00624257154343
C   -3.68443829568458     -0.68723731573599     -0.00478966852105
C   -2.46081704024768     -1.40334517882457      0.00575341766833
C   -1.23116201232071     -0.70217386488055     -0.00636696112346
C   -0.00756962538737     -1.41741884941102      0.00108956317991
C   1.22364771588843     -0.71527537726392      0.01109518512883
C   2.44567064933149     -1.42964328900682     -0.00065482763106
C   3.67686670284649     -0.72670743155550     -0.00479541202602
C   6.13224884641929     -0.73997883984993     -0.00632338623858
C   4.90351914550401     -1.44445752054090      0.00751768830159
C   8.59901484869081      0.63260386666793     -0.00101133422380
C   8.59174548810050     -0.72485086719319      0.00072504603735
C   7.36486276438985     -1.47033266560598      0.00049486934466
H   -9.52830597181814      1.27684744919284     -0.00270163681798
H   9.54141097460619      1.17457248844457     -0.00206336648518
C   -7.36983790976868     -2.77954514593389      0.00312634335708
C   -4.92459910905015     -2.80843725734101     -0.00460528907921
C   -6.16662249566744     -3.51665219282533      0.00169655107992
C   -3.70251035970491     -3.52468154912026      0.00571878010666
C   -2.46764698511392     -2.82132596280400     -0.00632585824990
C   -0.01513347410770     -2.83314164539971     -0.00604426974092
C   -1.24712184122656     -3.53473217556300      0.00551968366725
C   1.20924506964357     -3.54791467864352      0.00805871345849
C   2.43733602215464     -2.84764173817541     -0.00608104485234
C   4.89430234377080     -2.86112296828604     -0.00526030478103
C   3.66461525504104     -3.56421984553201      0.00761911515957
C   6.12863901474565     -3.58258405771778      0.00096495711699
C   7.33967266469532     -2.85841330737039      0.00248018319869
H   -9.54144911125902     -1.17456346666430      0.00226083090216
H   9.52826186807155     -1.27691907390448      0.00197485379837
H   -8.31516504384864     -3.31814985321231      0.00729857188773
H   8.27915514249207     -3.40714078989363      0.00681973918158
C   -6.14499418870218     -4.92764727278338      0.00302254913999
C   -3.70678334799751     -4.94126171411716     -0.00679841894792
C   -4.95559005800169     -5.64349397349412      0.00116871569699
C   -2.48612132622665     -5.65478557440947      0.00614125209662
C   -1.25405833548005     -4.95612205000132     -0.00503435388927
C   1.20101257386816     -4.96928038819302     -0.00385322963129
C   -0.03033667441341     -5.66952030313900      0.00398997003238
C   3.65375010132847     -4.98074377541453     -0.00309522988330
C   2.42549269587528     -5.68117463552727      0.00628170066869
C   6.09196561781097     -4.99325796338655      0.00325918379042
C   4.89497644461045     -5.69634842095790      0.00202298796027
H   -7.08989238804069     -5.46699984223871      0.00742531082125
H   7.03105520920009     -5.54265853633254      0.00683896355417
C   -4.92354532219813     -7.07882109967734      0.00061394679214
C   -2.48534208823777     -7.08772807792913     -0.00189594564379
C   -3.75168589177895     -7.76394715763627     -0.00170126671874
C   -0.03794895698805     -7.09946487446944     -0.00168022049625
C   -1.27795610040136     -7.77290438466689     -0.00366491325785
C   2.40944432072629     -7.11402201200282     -0.00081701968533
C   1.19474993715296     -7.78618536556242     -0.00296931056689
C   4.84762105249800     -7.13126211057943      0.00168979497423
C   3.66847160587561     -7.80378799294376     -0.00065863938960
H   -5.86994035041618     -7.61383059804164      0.00215798365757
H   5.78824962538815     -7.67633218931421      0.00281691445618
H   -3.75352693944918     -8.85107156923607     -0.00353718114765
H   -1.28430440589466     -8.86087539249706     -0.00809229711623
H   1.18922157469537     -8.87416062058945     -0.00706194725726
H   3.65854661482387     -8.89086063405326     -0.00231318081200

    units angstrom      # Angstroms are the default
    no_reorient         # Geometry fixed, default
    symmetry c1         # C1 symmetry, default
}

set {
    scf_type DF         # Density fitting, faster than exact integrals
    freeze_core True    # Freeze core electrons
    basis jun-cc-pVDZ   # Jun-cc-pVDZ basis set, recommended for sSAPT0 in https://doi.org/10.1063/1.4867135
}

energy('ssapt0')        # Compute sSAPT0 energy, includes also SAPT0
--------------------------------------------------------------------------

  //              Dimer HF             //
    Molecular point group: c1
  Charge       = -1
  Multiplicity = 1
  Basis Set: JUN-CC-PVDZ
    Blend: JUN-CC-PVDZ
  Basis Set: (JUN-CC-PVDZ AUX)
    Blend: JUN-CC-PVDZ-JKFIT
  @DF-RHF Final Energy: -4073.10843298635336
    Total Energy =                      -4073.1084329863551829
 Dipole X            :          0.0015784           -0.0001188            0.0014596
 Dipole Y            :          0.0014811           -0.0002727            0.0012084
 Dipole Z            :         16.2805624          -20.8293835           -4.5488211
 Magnitude           :                                                    4.5488215
  //            Monomer A HF           //
    Molecular point group: c1
  Multiplicity = 1
  Basis Set: JUN-CC-PVDZ
    Blend: JUN-CC-PVDZ
  Basis Set: (JUN-CC-PVDZ AUX)
    Blend: JUN-CC-PVDZ-JKFIT
  @DF-RHF Final Energy:  -422.77403968539534
    Total Energy =                       -422.7740396853953371
  //            Monomer B HF           //
    Molecular point group: c1

    Geometry (in Angstrom), charge = 0, multiplicity = 1:

       Center              X                  Y                   Z               Mass
    ------------   -----------------  -----------------  -----------------  -----------------
      Gh(B)          -0.000050191042     0.000351518223     3.258926577271    11.009305360000
      Gh(F)          -1.153601191042     0.000062518223     4.074573577271    18.998403162730
      Gh(F)           1.153656808958    -0.000566481777     4.074573577271    18.998403162730
      Gh(F)          -0.000023191042    -1.153622481777     2.443292577271    18.998403162730
      Gh(F)          -0.000023191042     1.153992518223     2.443292577271    18.998403162730
         C           -3.668445455062     7.803766688305    -0.239167381394    12.000000000000
         C           -4.847602910388     7.131256349563    -0.241533956326    12.000000000000
         C           -4.894963490217     5.696344921754    -0.242106867425    12.000000000000
         C           -3.653744869815     4.980744859182    -0.234446425695    12.000000000000
         C           -2.409429312536     7.113995554897    -0.238973039134    12.000000000000
         C           -2.425481535146     5.681136469126    -0.245977928004    12.000000000000
         C           -1.194748207477     7.786158712532    -0.237500858592    12.000000000000
         C            0.037954837895     7.099436163980    -0.239671562897    12.000000000000
         C            0.030328396378     5.669504077927    -0.245154947812    12.000000000000
         C           -1.200988698947     4.969284866138    -0.236185213879    12.000000000000
         C            1.277953634773     7.772873961417    -0.238295714336    12.000000000000
         C            2.485353893683     7.087711403460    -0.240570202241    12.000000000000
         C            2.486124493876     5.654785328463    -0.247507951229    12.000000000000
         C            1.254078728602     4.956092631887    -0.235880009640    12.000000000000
         C            3.751710400364     7.763926669203    -0.240443350861    12.000000000000
         C            4.923561865144     7.078795295213    -0.242499831568    12.000000000000
         C            4.955603080284     5.643461981592    -0.242660244375    12.000000000000
         C            3.706797343163     4.941224726556    -0.237568684206    12.000000000000
         H           -3.658525328800     8.890841937358    -0.237482393144     1.007825032230
         H           -1.189217520798     8.874135605583    -0.233528982151     1.007825032230
         H            1.284290047845     8.860847953711    -0.234136890195     1.007825032230
         H            3.753537895758     8.851049797195    -0.238920826545     1.007825032230
         H            5.869954512165     7.613809352878    -0.243425198611     1.007825032230
         H           -5.788235898544     7.676316731157    -0.243093803682     1.007825032230
         C           -6.091978149738     4.993274531866    -0.243979107916    12.000000000000
         C           -6.128665671359     3.582594687021    -0.242777930887    12.000000000000
         C           -3.664583931087     3.564196697967    -0.245703025504    12.000000000000
         C           -4.894302395740     2.861095294123    -0.236534040519    12.000000000000
         C           -2.437339185940     2.847626175307    -0.233871246968    12.000000000000
         C           -1.209232048638     3.547901453201    -0.247550273760    12.000000000000
         C            1.247137381121     3.534695269652    -0.248358880165    12.000000000000
         C            0.015171848527     2.833126357528    -0.236674696940    12.000000000000
         C            2.467640981399     2.821304495478    -0.236574638817    12.000000000000
         C            3.702545283538     3.524674672647    -0.250062599659    12.000000000000
         C            6.144976195342     4.927586884354    -0.243893689587    12.000000000000
         C            6.166584167820     3.516598994165    -0.241727136150    12.000000000000
         C            4.924605767418     2.808422443577    -0.235188389913    12.000000000000
         H            7.089901318599     5.466902284446    -0.247655570437     1.007825032230
         H           -7.031045942143     5.542702471080    -0.248212322867     1.007825032230
         C           -7.339702232165     2.858426052802    -0.244405098328    12.000000000000
         C           -7.364886149100     1.470337889806    -0.242639560201    12.000000000000
         C           -4.903508799989     1.444441330383    -0.247355824393    12.000000000000
         C           -6.132261343652     0.739953875277    -0.235065780410    12.000000000000
         C           -3.676878991558     0.726711660896    -0.236728107993    12.000000000000
         C           -2.445660777107     1.429655651485    -0.247037818194    12.000000000000
         C           -1.223604872343     0.715339019858    -0.235608553663    12.000000000000
         C            0.007633678272     1.417397667460    -0.237142899945    12.000000000000
         C            1.231215616705     0.702131208810    -0.255969485602    12.000000000000
         C            2.460816909489     1.403306554348    -0.236464976711    12.000000000000
         C            3.684426063155     0.687212946435    -0.237293762988    12.000000000000
         C            4.918704710497     1.391749079412    -0.249695584623    12.000000000000
         C            7.369797886919     2.779496721407    -0.243487555943    12.000000000000
         C            7.380158475080     1.391232026078    -0.241940873097    12.000000000000
         C            6.139795348081     0.674133141423    -0.235612531286    12.000000000000
         H           -8.279194990388     3.407132559347    -0.248702650450     1.007825032230
         H            8.315109280438     3.318132614846    -0.247698131742     1.007825032230
         C           -8.591760128623     0.724847071267    -0.242299132583    12.000000000000
         C           -8.599028794745    -0.632625288006    -0.240176008000    12.000000000000
         C           -6.139817330160    -0.674122118931    -0.247165349336    12.000000000000
         C           -7.380188303179    -1.391251671359    -0.239749287794    12.000000000000
         C           -4.918688671298    -1.391740499807    -0.234824851186    12.000000000000
         C           -3.684442486726    -0.687222797513    -0.245857091250    12.000000000000
         C           -2.460821231289    -1.403330660602    -0.235314005061    12.000000000000
         C           -1.231166203362    -0.702159346658    -0.247434383853    12.000000000000
         C           -0.007573816429    -1.417404331188    -0.239977859550    12.000000000000
         C            1.223643524847    -0.715260859041    -0.229972237601    12.000000000000
         C            2.445666458290    -1.429628770784    -0.241722250360    12.000000000000
         C            3.676862511805    -0.726692913333    -0.245862834755    12.000000000000
         C            6.132244655378    -0.739964321627    -0.247390808968    12.000000000000
         C            4.903514954462    -1.444443002318    -0.233549734428    12.000000000000
         C            8.599010657649     0.632618384891    -0.242078756953    12.000000000000
         C            8.591741297059    -0.724836348971    -0.240342376692    12.000000000000
         C            7.364858573348    -1.470318147383    -0.240572553385    12.000000000000
         H           -9.528310162860     1.276861967415    -0.243769059547     1.007825032230
         H            9.541406783565     1.174587006667    -0.243130789215     1.007825032230
         C           -7.369842100810    -2.779530627711    -0.237941079372    12.000000000000
         C           -4.924603300092    -2.808422739118    -0.245672711809    12.000000000000
         C           -6.166626686709    -3.516637674603    -0.239370871650    12.000000000000
         C           -3.702514550747    -3.524667030898    -0.235348642623    12.000000000000
         C           -2.467651176156    -2.821311444581    -0.247393280979    12.000000000000
         C           -0.015137665149    -2.833127127177    -0.247111692470    12.000000000000
         C           -1.247126032268    -3.534717657340    -0.235547739062    12.000000000000
         C            1.209240878602    -3.547900160421    -0.233008709271    12.000000000000
         C            2.437331831113    -2.847627219953    -0.247148467582    12.000000000000
         C            4.894298152729    -2.861108450063    -0.246327727510    12.000000000000
         C            3.664611063999    -3.564205327309    -0.233448307570    12.000000000000
         C            6.128634823704    -3.582569539495    -0.240102465612    12.000000000000
         C            7.339668473654    -2.858398789148    -0.238587239531    12.000000000000
         H           -9.541453302301    -1.174548948442    -0.238806591827     1.007825032230
         H            9.528257677030    -1.276904555682    -0.239092568931     1.007825032230
         H           -8.315169234890    -3.318135334990    -0.233768850842     1.007825032230
         H            8.279150951450    -3.407126271671    -0.234247683548     1.007825032230
         C           -6.144998379744    -4.927632754561    -0.238044873589    12.000000000000
         C           -3.706787539039    -4.941247195895    -0.247865841677    12.000000000000
         C           -4.955594249043    -5.643479455272    -0.239898707032    12.000000000000
         C           -2.486125517268    -5.654771056187    -0.234926170633    12.000000000000
         C           -1.254062526522    -4.956107531779    -0.246101776619    12.000000000000
         C            1.201008382827    -4.969265869970    -0.244920652361    12.000000000000
         C           -0.030340865455    -5.669505784916    -0.237077452697    12.000000000000
         C            3.653745910287    -4.980729257192    -0.244162652613    12.000000000000
         C            2.425488504834    -5.681160117305    -0.234785722061    12.000000000000
         C            6.091961426769    -4.993243445164    -0.237808238939    12.000000000000
         C            4.894972253569    -5.696333902735    -0.239044434769    12.000000000000
         H           -7.089896579082    -5.466985324016    -0.233642111908     1.007825032230
         H            7.031051018158    -5.542644018110    -0.234228459175     1.007825032230
         C           -4.923549513240    -7.078806581455    -0.240453475937    12.000000000000
         C           -2.485346279279    -7.087713559707    -0.242963368373    12.000000000000
         C           -3.751690082821    -7.763932639414    -0.242768689448    12.000000000000
         C           -0.037953148030    -7.099450356247    -0.242747643226    12.000000000000
         C           -1.277960291443    -7.772889866444    -0.244732335987    12.000000000000
         C            2.409440129685    -7.114007493780    -0.241884442415    12.000000000000
         C            1.194745746111    -7.786170847340    -0.244036733296    12.000000000000
         C            4.847616861456    -7.131247592357    -0.239377627755    12.000000000000
         C            3.668467414834    -7.803773474721    -0.241726062119    12.000000000000
         H           -5.869944541458    -7.613816079819    -0.238909439072     1.007825032230
         H            5.788245434347    -7.676317671092    -0.238250508273     1.007825032230
         H           -3.753531130491    -8.851057051013    -0.244604603877     1.007825032230
         H           -1.284308596936    -8.860860874274    -0.249159719846     1.007825032230
         H            1.189217383654    -8.874146102367    -0.248129369987     1.007825032230
         H            3.658542423782    -8.890846115831    -0.243380603541     1.007825032230

  Charge       = 0
  Multiplicity = 1
  Basis Set: JUN-CC-PVDZ
    Blend: JUN-CC-PVDZ
  Basis Set: (JUN-CC-PVDZ AUX)
    Blend: JUN-CC-PVDZ-JKFIT

    Orbital Energies [Eh]
    ---------------------

    Doubly Occupied:

       1A    -11.264091     2A    -11.263764     3A    -11.263706
       4A    -11.263349     5A    -11.263310     6A    -11.263282
       7A    -11.263157     8A    -11.263135     9A    -11.263111
      10A    -11.262905    11A    -11.262777    12A    -11.262770
      13A    -11.262281    14A    -11.262279    15A    -11.262255
      16A    -11.262232    17A    -11.262138    18A    -11.262128
      19A    -11.262085    20A    -11.262048    21A    -11.262031
      22A    -11.261938    23A    -11.261912    24A    -11.261774
      25A    -11.261769    26A    -11.261747    27A    -11.261731
      28A    -11.261703    29A    -11.261684    30A    -11.261596
      31A    -11.261576    32A    -11.261572    33A    -11.261560
      34A    -11.261548    35A    -11.261541    36A    -11.261523
      37A    -11.261349    38A    -11.261341    39A    -11.261334
      40A    -11.261330    41A    -11.261321    42A    -11.261318
      43A    -11.261303    44A    -11.261286    45A    -11.261283
      46A    -11.261259    47A    -11.261254    48A    -11.261248
      49A    -11.261076    50A    -11.261049    51A    -11.261039
      52A    -11.260980    53A    -11.260953    54A    -11.260905
      55A    -11.259933    56A    -11.259919    57A    -11.259917
      58A    -11.259888    59A    -11.259885    60A    -11.259869
      61A    -11.259303    62A    -11.259278    63A    -11.259273
      64A    -11.259223    65A    -11.259218    66A    -11.259189
      67A    -11.258936    68A    -11.258918    69A    -11.258914
      70A    -11.258887    71A    -11.258884    72A    -11.258873
      73A    -11.254543    74A    -11.254541    75A    -11.254535
      76A    -11.254533    77A    -11.254533    78A    -11.254531
      79A    -11.253673    80A    -11.253669    81A    -11.253666
      82A    -11.253663    83A    -11.253661    84A    -11.253660
      85A    -11.253588    86A    -11.253584    87A    -11.253581
      88A    -11.253578    89A    -11.253576    90A    -11.253575
      91A    -11.253071    92A    -11.253069    93A    -11.253063
      94A    -11.253061    95A    -11.253061    96A    -11.253059
      97A     -1.253944    98A     -1.239009    99A     -1.239008
     100A     -1.220476   101A     -1.220475   102A     -1.215435
     103A     -1.201056   104A     -1.195620   105A     -1.188146
     106A     -1.188142   107A     -1.173780   108A     -1.173777
     109A     -1.155639   110A     -1.155635   111A     -1.152713
     112A     -1.144739   113A     -1.144734   114A     -1.128581
     115A     -1.114724   116A     -1.113178   117A     -1.112479
     118A     -1.112469   119A     -1.111635   120A     -1.088441
     121A     -1.088424   122A     -1.076976   123A     -1.076974
     124A     -1.067626   125A     -1.067596   126A     -1.064974
     127A     -1.046813   128A     -1.046807   129A     -1.040494
     130A     -1.038750   131A     -1.038749   132A     -1.025247
     133A     -1.021380   134A     -1.021334   135A     -1.007194
     136A     -1.006825   137A     -1.003808   138A     -1.000497
     139A     -1.000449   140A     -0.991090   141A     -0.970997
     142A     -0.970949   143A     -0.955896   144A     -0.955840
     145A     -0.905595   146A     -0.905565   147A     -0.905554
     148A     -0.905525   149A     -0.904332   150A     -0.892371
     151A     -0.892318   152A     -0.890370   153A     -0.890309
     154A     -0.889468   155A     -0.872231   156A     -0.869071
     157A     -0.851553   158A     -0.847873   159A     -0.847854
     160A     -0.845603   161A     -0.843030   162A     -0.834578
     163A     -0.834564   164A     -0.828129   165A     -0.828126
     166A     -0.784560   167A     -0.784549   168A     -0.783665
     169A     -0.783640   170A     -0.782296   171A     -0.782280
     172A     -0.782041   173A     -0.767005   174A     -0.760799
     175A     -0.750577   176A     -0.733498   177A     -0.727083
     178A     -0.727070   179A     -0.725095   180A     -0.724554
     181A     -0.724535   182A     -0.718490   183A     -0.713777
     184A     -0.713770   185A     -0.699585   186A     -0.699576
     187A     -0.686123   188A     -0.685969   189A     -0.685968
     190A     -0.682187   191A     -0.682175   192A     -0.678773
     193A     -0.653631   194A     -0.650878   195A     -0.650850
     196A     -0.649813   197A     -0.649799   198A     -0.649577
     199A     -0.640926   200A     -0.640904   201A     -0.640100
     202A     -0.639175   203A     -0.636024   204A     -0.635998
     205A     -0.629153   206A     -0.617718   207A     -0.615316
     208A     -0.615296   209A     -0.608812   210A     -0.608805
     211A     -0.599143   212A     -0.599079   213A     -0.598749
     214A     -0.598618   215A     -0.598592   216A     -0.598030
     217A     -0.595079   218A     -0.595066   219A     -0.594731
     220A     -0.594233   221A     -0.591960   222A     -0.591957
     223A     -0.587392   224A     -0.577808   225A     -0.577797
     226A     -0.575664   227A     -0.575660   228A     -0.573392
     229A     -0.569574   230A     -0.568136   231A     -0.568117
     232A     -0.566760   233A     -0.566749   234A     -0.560924
     235A     -0.558720   236A     -0.558702   237A     -0.558438
     238A     -0.554376   239A     -0.550555   240A     -0.547486
     241A     -0.544264   242A     -0.535038   243A     -0.534963
     244A     -0.533540   245A     -0.533520   246A     -0.528085
     247A     -0.528071   248A     -0.527791   249A     -0.517159
     250A     -0.517126   251A     -0.515353   252A     -0.515347
     253A     -0.509652   254A     -0.509635   255A     -0.498037
     256A     -0.496456   257A     -0.496427   258A     -0.493784
     259A     -0.493771   260A     -0.489436   261A     -0.481460
     262A     -0.477422   263A     -0.477415   264A     -0.474003
     265A     -0.469446   266A     -0.466531   267A     -0.466526
     268A     -0.458797   269A     -0.446682   270A     -0.446621
     271A     -0.441029   272A     -0.440763   273A     -0.440746
     274A     -0.434689   275A     -0.433912   276A     -0.407376
     277A     -0.407343   278A     -0.386398   279A     -0.386334
     280A     -0.385737   281A     -0.385731   282A     -0.383736
     283A     -0.354310   284A     -0.354305   285A     -0.350657
     286A     -0.338076   287A     -0.335578   288A     -0.335505
     289A     -0.332713   290A     -0.332709   291A     -0.307044
     292A     -0.301920   293A     -0.301860   294A     -0.300849
     295A     -0.286167   296A     -0.256485   297A     -0.253477
     298A     -0.253426   299A     -0.204259   300A     -0.204167

  @DF-RHF Final Energy: -3650.33985658081201

   => Energetics <=

    Nuclear Repulsion Energy =          15611.4211649754324753
    One-Electron Energy =              -36072.1416128019191092
    Two-Electron Energy =               16810.3805912456737133
    Total Energy =                      -3650.3398565808129206
 Dipole X            :          0.0001481            0.0001983            0.0003464
 Dipole Y            :          0.0013559           -0.0013163            0.0000397
 Dipole Z            :        273.3268478         -273.3274521           -0.0006043
 Magnitude           :                                                    0.0006977

    SAPT Results
  --------------------------------------------------------------------------------------------------------
    Electrostatics                  1.74629837 [mEh]       1.09581877 [kcal/mol]       4.58490574 [kJ/mol]
      Elst10,r                      1.74629837 [mEh]       1.09581877 [kcal/mol]       4.58490574 [kJ/mol]

    Exchange                       25.95628719 [mEh]      16.28781611 [kcal/mol]      68.14822262 [kJ/mol]
      Exch10                       25.95628719 [mEh]      16.28781611 [kcal/mol]      68.14822262 [kJ/mol]
      Exch10(S^2)                  25.84827570 [mEh]      16.22003789 [kcal/mol]      67.86463851 [kJ/mol]

    Induction                     -22.23930570 [mEh]     -13.95537502 [kcal/mol]     -58.38928908 [kJ/mol]
      Ind20,r                     -29.34708259 [mEh]     -18.41557235 [kcal/mol]     -77.05075473 [kJ/mol]
      Exch-Ind20,r                  9.38850479 [mEh]       5.89137570 [kcal/mol]      24.64951593 [kJ/mol]
      delta HF,r (2)               -2.28072790 [mEh]      -1.43117836 [kcal/mol]      -5.98805028 [kJ/mol]

    Dispersion                    -14.12268709 [mEh]      -8.86211994 [kcal/mol]     -37.07910984 [kJ/mol]
      Disp20                      -17.09040099 [mEh]     -10.72438853 [kcal/mol]     -44.87084162 [kJ/mol]
      Exch-Disp20                   2.96771391 [mEh]       1.86226859 [kcal/mol]       7.79173179 [kJ/mol]
      Disp20 (SS)                  -8.54520050 [mEh]      -5.36219427 [kcal/mol]     -22.43542081 [kJ/mol]
      Disp20 (OS)                  -8.54520050 [mEh]      -5.36219427 [kcal/mol]     -22.43542081 [kJ/mol]
      Exch-Disp20 (SS)              1.67032128 [mEh]       1.04814243 [kcal/mol]       4.38542792 [kJ/mol]
      Exch-Disp20 (OS)              1.29739262 [mEh]       0.81412616 [kcal/mol]       3.40630387 [kJ/mol]

  Total HF                          5.46327985 [mEh]       3.42825987 [kcal/mol]      14.34383928 [kJ/mol]
  Total SAPT0                      -8.65940723 [mEh]      -5.43386008 [kcal/mol]     -22.73527056 [kJ/mol]

  Special recipe for scaled SAPT0 (see Manual):
    Electrostatics sSAPT0           1.74629837 [mEh]       1.09581877 [kcal/mol]       4.58490574 [kJ/mol]
    Exchange sSAPT0                25.95628719 [mEh]      16.28781611 [kcal/mol]      68.14822262 [kJ/mol]
    Induction sSAPT0              -22.12111875 [mEh]     -13.88121158 [kcal/mol]     -58.07898927 [kJ/mol]
    Dispersion sSAPT0             -14.08532809 [mEh]      -8.83867682 [kcal/mol]     -36.98102382 [kJ/mol]
  Total sSAPT0                     -8.50386129 [mEh]      -5.33625352 [kcal/mol]     -22.32688473 [kJ/mol]
  --------------------------------------------------------------------------------------------------------

*** Psi4 exiting successfully. Buy a developer a beer!
