                               Psi4 1.9 release

  ==> Input File <==

--------------------------------------------------------------------------
memory 64 GB # how much memory is available ! Depends on the nodes/cores !

molecule dimer {
# monomer A
-1 1    # Charge and multiplicity
B -1.977592e-04  2.742729e-04 -7.399966
F  1.123153e-16  1.430594e-17 -5.987181
F  1.147860e+00  6.757812e-01 -7.871107
F  1.191806e-02 -1.332011e+00 -7.870905
F -1.159666e+00  6.560735e-01 -7.870826
--
# monomer B
0 1     # Charge and multiplicity
C   -3.66844126402057      7.80375217008252      0.00190004133558
C   -4.84759871934653      7.13124183134024     -0.00046653359696
C   -4.89495929917518      5.69633040353158     -0.00103944469517
C   -3.65374067877320      4.98073034095895      0.00662099703436
C   -2.40942512149445      7.11398103667468      0.00209438359570
C   -2.42547734410473      5.68112195090346     -0.00491050527438
C   -1.19474401643570      7.78614419430947      0.00356656413763
C   0.03795902893699      7.09942164575698      0.00139585983271
C   0.03033258741920      5.66948955970466     -0.00408752508301
C   -1.20098450790502      4.96927034791531      0.00488220885047
C   1.27795782581485      7.77285944319479      0.00277170839332
C   2.48535808472416      7.08769688523756      0.00049722048857
C   2.48612868491717      5.65477081024076     -0.00644052849921
C   1.25408291964399      4.95607811366431      0.00518741308898
C   3.75171459140595      7.76391215098033      0.00062407186893
C   4.92356605618520      7.07878077698995     -0.00143240883900
C   4.95560727132542      5.64344746336949     -0.00159282164606
C   3.70680153420475      4.94121020833308      0.00349873852374
H   -3.65852113775815      8.89082741913536      0.00358502958574
H   -1.18921332975660      8.87412108735996      0.00753844057883
H   1.28429423888630      8.86083343548850      0.00693053253426
H   3.75354208679975      8.85103527897216      0.00214659618464
H   5.86995870320703      7.61379483465560     -0.00235777588134
H   -5.78823170750226      7.67630221293400     -0.00202638095293
C   -6.09197395869619      4.99326001364347     -0.00291168518608
C   -6.12866148031747      3.58258016879823     -0.00171050815740
C   -3.66457974004527      3.56418217974434     -0.00463560277484
C   -4.89429820469869      2.86108077590057      0.00453338221034
C   -2.43733499489796      2.84761165708481      0.00719617576166
C   -1.20922785759670      3.54788693497833     -0.00648285103018
C   1.24714157216223      3.53468075142962     -0.00729145743546
C   0.01517603956900      2.83311183930540      0.00439272578912
C   2.46764517244071      2.82128997725533      0.00449278391269
C   3.70254947457969      3.52466015442405     -0.00899517692985
C   6.14498038638375      4.92757236613191     -0.00282626685777
C   6.16658835886151      3.51658447594213     -0.00065971342101
C   4.92460995845939      2.80840792535402      0.00587903281610
H   7.08990550964105      5.46688776622306     -0.00658814770723
H   -7.03104175110130      5.54268795285765     -0.00714490013730
C   -7.33969804112295      2.85841153457957     -0.00333767559888
C   -7.36488195805880      1.47032337158330     -0.00157213747140
C   -4.90350460894690      1.44442681216000     -0.00628840166334
C   -6.13225715261081      0.73993935705394      0.00600164231964
C   -3.67687480051673      0.72669714267312      0.00433931473643
C   -2.44565658606518      1.42964113326212     -0.00597039546461
C   -1.22360068130162      0.71532450163492      0.00545886906656
C   0.00763786931376      1.41738314923765      0.00392452278437
C   1.23121980774686      0.70211669058719     -0.01490206287210
C   2.46082110053113      1.40329203612573      0.00460244601878
C   3.68443025419614      0.68719842821222      0.00377365974158
C   4.91870890153864      1.39173456118907     -0.00862816189375
C   7.36980207796101      2.77948220318441     -0.00242013321349
C   7.38016266612146      1.39121750785509     -0.00087345036788
C   6.13979953912259      0.67411862320065      0.00545489144369
H   -8.27919079934664      3.40711804112415     -0.00763522772059
H   8.31511347147953      3.31811809662368     -0.00663070901292
C   -8.59175593758115      0.72483255304480     -0.00123170985383
C   -8.59902460370342     -0.63263980622873      0.00089141472904
C   -6.13981313911873     -0.67413663715361     -0.00609792660607
C   -7.38018411213749     -1.39126618958160      0.00131813493501
C   -4.91868448025621     -1.39175501803000      0.00624257154343
C   -3.68443829568458     -0.68723731573599     -0.00478966852105
C   -2.46081704024768     -1.40334517882457      0.00575341766833
C   -1.23116201232071     -0.70217386488055     -0.00636696112346
C   -0.00756962538737     -1.41741884941102      0.00108956317991
C   1.22364771588843     -0.71527537726392      0.01109518512883
C   2.44567064933149     -1.42964328900682     -0.00065482763106
C   3.67686670284649     -0.72670743155550     -0.00479541202602
C   6.13224884641929     -0.73997883984993     -0.00632338623858
C   4.90351914550401     -1.44445752054090      0.00751768830159
C   8.59901484869081      0.63260386666793     -0.00101133422380
C   8.59174548810050     -0.72485086719319      0.00072504603735
C   7.36486276438985     -1.47033266560598      0.00049486934466
H   -9.52830597181814      1.27684744919284     -0.00270163681798
H   9.54141097460619      1.17457248844457     -0.00206336648518
C   -7.36983790976868     -2.77954514593389      0.00312634335708
C   -4.92459910905015     -2.80843725734101     -0.00460528907921
C   -6.16662249566744     -3.51665219282533      0.00169655107992
C   -3.70251035970491     -3.52468154912026      0.00571878010666
C   -2.46764698511392     -2.82132596280400     -0.00632585824990
C   -0.01513347410770     -2.83314164539971     -0.00604426974092
C   -1.24712184122656     -3.53473217556300      0.00551968366725
C   1.20924506964357     -3.54791467864352      0.00805871345849
C   2.43733602215464     -2.84764173817541     -0.00608104485234
C   4.89430234377080     -2.86112296828604     -0.00526030478103
C   3.66461525504104     -3.56421984553201      0.00761911515957
C   6.12863901474565     -3.58258405771778      0.00096495711699
C   7.33967266469532     -2.85841330737039      0.00248018319869
H   -9.54144911125902     -1.17456346666430      0.00226083090216
H   9.52826186807155     -1.27691907390448      0.00197485379837
H   -8.31516504384864     -3.31814985321231      0.00729857188773
H   8.27915514249207     -3.40714078989363      0.00681973918158
C   -6.14499418870218     -4.92764727278338      0.00302254913999
C   -3.70678334799751     -4.94126171411716     -0.00679841894792
C   -4.95559005800169     -5.64349397349412      0.00116871569699
C   -2.48612132622665     -5.65478557440947      0.00614125209662
C   -1.25405833548005     -4.95612205000132     -0.00503435388927
C   1.20101257386816     -4.96928038819302     -0.00385322963129
C   -0.03033667441341     -5.66952030313900      0.00398997003238
C   3.65375010132847     -4.98074377541453     -0.00309522988330
C   2.42549269587528     -5.68117463552727      0.00628170066869
C   6.09196561781097     -4.99325796338655      0.00325918379042
C   4.89497644461045     -5.69634842095790      0.00202298796027
H   -7.08989238804069     -5.46699984223871      0.00742531082125
H   7.03105520920009     -5.54265853633254      0.00683896355417
C   -4.92354532219813     -7.07882109967734      0.00061394679214
C   -2.48534208823777     -7.08772807792913     -0.00189594564379
C   -3.75168589177895     -7.76394715763627     -0.00170126671874
C   -0.03794895698805     -7.09946487446944     -0.00168022049625
C   -1.27795610040136     -7.77290438466689     -0.00366491325785
C   2.40944432072629     -7.11402201200282     -0.00081701968533
C   1.19474993715296     -7.78618536556242     -0.00296931056689
C   4.84762105249800     -7.13126211057943      0.00168979497423
C   3.66847160587561     -7.80378799294376     -0.00065863938960
H   -5.86994035041618     -7.61383059804164      0.00215798365757
H   5.78824962538815     -7.67633218931421      0.00281691445618
H   -3.75352693944918     -8.85107156923607     -0.00353718114765
H   -1.28430440589466     -8.86087539249706     -0.00809229711623
H   1.18922157469537     -8.87416062058945     -0.00706194725726
H   3.65854661482387     -8.89086063405326     -0.00231318081200

    units angstrom      # Angstroms are the default
    no_reorient         # Geometry fixed, default
    symmetry c1         # C1 symmetry, default
}

set {
    scf_type DF         # Density fitting, faster than exact integrals
    freeze_core True    # Freeze core electrons
    basis jun-cc-pVDZ   # Jun-cc-pVDZ basis set, recommended for sSAPT0 in https://doi.org/10.1063/1.4867135
}

energy('ssapt0')        # Compute sSAPT0 energy, includes also SAPT0
--------------------------------------------------------------------------

  //              Dimer HF             //
    Molecular point group: c1
  Charge       = -1
  Multiplicity = 1
  Basis Set: JUN-CC-PVDZ
    Blend: JUN-CC-PVDZ
  Basis Set: (JUN-CC-PVDZ AUX)
    Blend: JUN-CC-PVDZ-JKFIT
  @DF-RHF Final Energy: -4073.10398615492431
    Total Energy =                      -4073.1039861549252237
 Dipole X            :         -0.0008127           -0.0000548           -0.0008674
 Dipole Y            :          0.0009313           -0.0002464            0.0006849
 Dipole Z            :        -31.9337347           44.0380412           12.1043065
 Magnitude           :                                                   12.1043066
  //            Monomer A HF           //
    Molecular point group: c1
  Multiplicity = 1
  Basis Set: JUN-CC-PVDZ
    Blend: JUN-CC-PVDZ
  Basis Set: (JUN-CC-PVDZ AUX)
    Blend: JUN-CC-PVDZ-JKFIT
  @DF-RHF Final Energy:  -422.77147343347440
    Total Energy =                       -422.7714734334743980
  //            Monomer B HF           //
    Molecular point group: c1

    Geometry (in Angstrom), charge = 0, multiplicity = 1:

       Center              X                  Y                   Z               Mass
    ------------   -----------------  -----------------  -----------------  -----------------
      Gh(B)          -0.000201921932     0.000288800891    -6.890290284096    11.009305360000
      Gh(F)          -0.000004162732     0.000014527991    -5.477505284096    18.998403162730
      Gh(F)           1.147855837268     0.675795727991    -7.361431284096    18.998403162730
      Gh(F)           0.011913897268    -1.331996472009    -7.361229284096    18.998403162730
      Gh(F)          -1.159670162732     0.656088027991    -7.361150284096    18.998403162730
         C           -3.668445426752     7.803766698073     0.511575757240    12.000000000000
         C           -4.847602882078     7.131256359331     0.509209182307    12.000000000000
         C           -4.894963461907     5.696344931522     0.508636271209    12.000000000000
         C           -3.653744841505     4.980744868950     0.516296712939    12.000000000000
         C           -2.409429284226     7.113995564665     0.511770099500    12.000000000000
         C           -2.425481506836     5.681136478894     0.504765210630    12.000000000000
         C           -1.194748179167     7.786158722300     0.513242280042    12.000000000000
         C            0.037954866205     7.099436173748     0.511071575737    12.000000000000
         C            0.030328424687     5.669504087695     0.505588190821    12.000000000000
         C           -1.200988670637     4.969284875906     0.514557924755    12.000000000000
         C            1.277953663083     7.772873971185     0.512447424298    12.000000000000
         C            2.485353921992     7.087711413228     0.510172936393    12.000000000000
         C            2.486124522185     5.654785338231     0.503235187405    12.000000000000
         C            1.254078756912     4.956092641655     0.514863128993    12.000000000000
         C            3.751710428674     7.763926678971     0.510299787773    12.000000000000
         C            4.923561893453     7.078795304981     0.508243307065    12.000000000000
         C            4.955603108594     5.643461991360     0.508082894258    12.000000000000
         C            3.706797371473     4.941224736324     0.513174454428    12.000000000000
         H           -3.658525300490     8.890841947126     0.513260745490     1.007825032230
         H           -1.189217492488     8.874135615351     0.517214156483     1.007825032230
         H            1.284290076155     8.860847963479     0.516606248439     1.007825032230
         H            3.753537924068     8.851049806963     0.511822312089     1.007825032230
         H            5.869954540475     7.613809362646     0.507317940023     1.007825032230
         H           -5.788235870234     7.676316740925     0.507649334951     1.007825032230
         C           -6.091978121428     4.993274541634     0.506764030718    12.000000000000
         C           -6.128665643049     3.582594696789     0.507965207747    12.000000000000
         C           -3.664583902777     3.564196707735     0.505040113130    12.000000000000
         C           -4.894302367430     2.861095303891     0.514209098115    12.000000000000
         C           -2.437339157630     2.847626185075     0.516871891666    12.000000000000
         C           -1.209232020328     3.547901462969     0.503192864874    12.000000000000
         C            1.247137409430     3.534695279420     0.502384258469    12.000000000000
         C            0.015171876837     2.833126367296     0.514068441693    12.000000000000
         C            2.467641009709     2.821304505246     0.514168499817    12.000000000000
         C            3.702545311848     3.524674682415     0.500680538974    12.000000000000
         C            6.144976223652     4.927586894122     0.506849449047    12.000000000000
         C            6.166584196130     3.516599003933     0.509016002483    12.000000000000
         C            4.924605795728     2.808422453345     0.515554748720    12.000000000000
         H            7.089901346909     5.466902294214     0.503087568197     1.007825032230
         H           -7.031045913833     5.542702480848     0.502530815767     1.007825032230
         C           -7.339702203855     2.858426062570     0.506338040305    12.000000000000
         C           -7.364886120791     1.470337899574     0.508103578433    12.000000000000
         C           -4.903508771679     1.444441340151     0.503387314241    12.000000000000
         C           -6.132261315343     0.739953885044     0.515677358224    12.000000000000
         C           -3.676878963248     0.726711670664     0.514015030641    12.000000000000
         C           -2.445660748797     1.429655661253     0.503705320440    12.000000000000
         C           -1.223604844033     0.715339029625     0.515134584971    12.000000000000
         C            0.007633706582     1.417397677228     0.513600238689    12.000000000000
         C            1.231215645015     0.702131218578     0.494773653032    12.000000000000
         C            2.460816937799     1.403306564116     0.514278161923    12.000000000000
         C            3.684426091464     0.687212956203     0.513449375646    12.000000000000
         C            4.918704738807     1.391749089180     0.501047554011    12.000000000000
         C            7.369797915229     2.779496731175     0.507255582691    12.000000000000
         C            7.380158503390     1.391232035846     0.508802265536    12.000000000000
         C            6.139795376391     0.674133151191     0.515130607348    12.000000000000
         H           -8.279194962078     3.407132569115     0.502040488184     1.007825032230
         H            8.315109308748     3.318132624614     0.503045006891     1.007825032230
         C           -8.591760100313     0.724847081035     0.508444006051    12.000000000000
         C           -8.599028766435    -0.632625278238     0.510567130633    12.000000000000
         C           -6.139817301850    -0.674122109163     0.503577789298    12.000000000000
         C           -7.380188274869    -1.391251661591     0.510993850839    12.000000000000
         C           -4.918688642988    -1.391740490039     0.515918287448    12.000000000000
         C           -3.684442458416    -0.687222787745     0.504886047383    12.000000000000
         C           -2.460821202979    -1.403330650834     0.515429133573    12.000000000000
         C           -1.231166175052    -0.702159336890     0.503308754781    12.000000000000
         C           -0.007573788119    -1.417404321420     0.510765279084    12.000000000000
         C            1.223643553157    -0.715260849273     0.520770901033    12.000000000000
         C            2.445666486600    -1.429628761016     0.509020888273    12.000000000000
         C            3.676862540115    -0.726692903565     0.504880303878    12.000000000000
         C            6.132244683688    -0.739964311859     0.503352329666    12.000000000000
         C            4.903514982772    -1.444442992550     0.517193404206    12.000000000000
         C            8.599010685959     0.632618394658     0.508664381681    12.000000000000
         C            8.591741325369    -0.724836339203     0.510400761942    12.000000000000
         C            7.364858601658    -1.470318137615     0.510170585249    12.000000000000
         H           -9.528310134550     1.276861977183     0.506974079086     1.007825032230
         H            9.541406811874     1.174587016435     0.507612349419     1.007825032230
         C           -7.369842072500    -2.779530617943     0.512802059261    12.000000000000
         C           -4.924603271782    -2.808422729350     0.505070426825    12.000000000000
         C           -6.166626658399    -3.516637664835     0.511372266984    12.000000000000
         C           -3.702514522437    -3.524667021130     0.515394496011    12.000000000000
         C           -2.467651147846    -2.821311434813     0.503349857654    12.000000000000
         C           -0.015137636839    -2.833127117409     0.503631446163    12.000000000000
         C           -1.247126003958    -3.534717647572     0.515195399572    12.000000000000
         C            1.209240906912    -3.547900150653     0.517734429363    12.000000000000
         C            2.437331859423    -2.847627210185     0.503594671052    12.000000000000
         C            4.894298181039    -2.861108440295     0.504415411123    12.000000000000
         C            3.664611092309    -3.564205317541     0.517294831064    12.000000000000
         C            6.128634852014    -3.582569529727     0.510640673021    12.000000000000
         C            7.339668501964    -2.858398779380     0.512155899103    12.000000000000
         H           -9.541453273991    -1.174548938674     0.511936546807     1.007825032230
         H            9.528257705340    -1.276904545914     0.511650569703     1.007825032230
         H           -8.315169206580    -3.318135325222     0.516974287792     1.007825032230
         H            8.279150979760    -3.407126261903     0.516495455086     1.007825032230
         C           -6.144998351434    -4.927632744793     0.512698265044    12.000000000000
         C           -3.706787510729    -4.941247186127     0.502877296956    12.000000000000
         C           -4.955594220733    -5.643479445504     0.510844431601    12.000000000000
         C           -2.486125488958    -5.654771046419     0.515816968001    12.000000000000
         C           -1.254062498212    -4.956107522011     0.504641362015    12.000000000000
         C            1.201008411136    -4.969265860202     0.505822486273    12.000000000000
         C           -0.030340837145    -5.669505775148     0.513665685937    12.000000000000
         C            3.653745938597    -4.980729247424     0.506580486021    12.000000000000
         C            2.425488533144    -5.681160107537     0.515957416573    12.000000000000
         C            6.091961455079    -4.993243435396     0.512934899695    12.000000000000
         C            4.894972281879    -5.696333892967     0.511698703865    12.000000000000
         H           -7.089896550772    -5.466985314248     0.517101026726     1.007825032230
         H            7.031051046468    -5.542644008342     0.516514679459     1.007825032230
         C           -4.923549484930    -7.078806571687     0.510289662696    12.000000000000
         C           -2.485346250970    -7.087713549939     0.507779770261    12.000000000000
         C           -3.751690054511    -7.763932629646     0.507974449186    12.000000000000
         C           -0.037953119720    -7.099450346479     0.507995495408    12.000000000000
         C           -1.277960263133    -7.772889856676     0.506010802646    12.000000000000
         C            2.409440157995    -7.114007484012     0.508858696219    12.000000000000
         C            1.194745774421    -7.786170837572     0.506706405337    12.000000000000
         C            4.847616889766    -7.131247582589     0.511365510879    12.000000000000
         C            3.668467443144    -7.803773464953     0.509017076515    12.000000000000
         H           -5.869944513148    -7.613816070051     0.511833699562     1.007825032230
         H            5.788245462656    -7.676317661324     0.512492630361     1.007825032230
         H           -3.753531102181    -8.851057041246     0.506138534757     1.007825032230
         H           -1.284308568626    -8.860860864507     0.501583418788     1.007825032230
         H            1.189217411964    -8.874146092599     0.502613768647     1.007825032230
         H            3.658542452092    -8.890846106063     0.507362535092     1.007825032230

  Charge       = 0
  Multiplicity = 1
  Basis Set: JUN-CC-PVDZ
    Blend: JUN-CC-PVDZ
  Basis Set: (JUN-CC-PVDZ AUX)
    Blend: JUN-CC-PVDZ-JKFIT

    Orbital Energies [Eh]
    ---------------------

    Doubly Occupied:

       1A    -11.264059     2A    -11.263745     3A    -11.263742
       4A    -11.263401     5A    -11.263398     6A    -11.263364
       7A    -11.263206     8A    -11.263180     9A    -11.263178
      10A    -11.263020    11A    -11.262861    12A    -11.262856
      13A    -11.262378    14A    -11.262375    15A    -11.262301
      16A    -11.262300    17A    -11.262250    18A    -11.262214
      19A    -11.262169    20A    -11.262131    21A    -11.262129
      22A    -11.261975    23A    -11.261972    24A    -11.261851
      25A    -11.261837    26A    -11.261823    27A    -11.261819
      28A    -11.261772    29A    -11.261764    30A    -11.261691
      31A    -11.261665    32A    -11.261662    33A    -11.261636
      34A    -11.261634    35A    -11.261613    36A    -11.261568
      37A    -11.261426    38A    -11.261414    39A    -11.261408
      40A    -11.261401    41A    -11.261396    42A    -11.261388
      43A    -11.261384    44A    -11.261369    45A    -11.261364
      46A    -11.261342    47A    -11.261338    48A    -11.261334
      49A    -11.261181    50A    -11.261150    51A    -11.261148
      52A    -11.261067    53A    -11.261066    54A    -11.260996
      55A    -11.260028    56A    -11.260014    57A    -11.260012
      58A    -11.259983    59A    -11.259981    60A    -11.259965
      61A    -11.259405    62A    -11.259380    63A    -11.259378
      64A    -11.259326    65A    -11.259323    66A    -11.259294
      67A    -11.259032    68A    -11.259014    69A    -11.259012
      70A    -11.258985    71A    -11.258983    72A    -11.258971
      73A    -11.254598    74A    -11.254597    75A    -11.254596
      76A    -11.254593    77A    -11.254588    78A    -11.254585
      79A    -11.253751    80A    -11.253749    81A    -11.253747
      82A    -11.253745    83A    -11.253743    84A    -11.253737
      85A    -11.253666    86A    -11.253665    87A    -11.253662
      88A    -11.253661    89A    -11.253658    90A    -11.253653
      91A    -11.253126    92A    -11.253125    93A    -11.253124
      94A    -11.253121    95A    -11.253115    96A    -11.253113
      97A     -1.254155    98A     -1.239157    99A     -1.239157
     100A     -1.220598   101A     -1.220594   102A     -1.215628
     103A     -1.201159   104A     -1.195729   105A     -1.188317
     106A     -1.188316   107A     -1.173878   108A     -1.173875
     109A     -1.155790   110A     -1.155786   111A     -1.152897
     112A     -1.144831   113A     -1.144829   114A     -1.128713
     115A     -1.114872   116A     -1.113273   117A     -1.112656
     118A     -1.112643   119A     -1.111721   120A     -1.088574
     121A     -1.088559   122A     -1.077069   123A     -1.077068
     124A     -1.067768   125A     -1.067739   126A     -1.065140
     127A     -1.046933   128A     -1.046925   129A     -1.040622
     130A     -1.038842   131A     -1.038841   132A     -1.025408
     133A     -1.021580   134A     -1.021531   135A     -1.007303
     136A     -1.006949   137A     -1.003923   138A     -1.000650
     139A     -1.000602   140A     -0.991177   141A     -0.971137
     142A     -0.971089   143A     -0.956003   144A     -0.955947
     145A     -0.905779   146A     -0.905738   147A     -0.905649
     148A     -0.905608   149A     -0.904537   150A     -0.892551
     151A     -0.892491   152A     -0.890534   153A     -0.890477
     154A     -0.889608   155A     -0.872332   156A     -0.869143
     157A     -0.851662   158A     -0.848029   159A     -0.848007
     160A     -0.845765   161A     -0.843169   162A     -0.834697
     163A     -0.834685   164A     -0.828223   165A     -0.828220
     166A     -0.784687   167A     -0.784676   168A     -0.783815
     169A     -0.783788   170A     -0.782434   171A     -0.782414
     172A     -0.782199   173A     -0.767122   174A     -0.760972
     175A     -0.750747   176A     -0.733597   177A     -0.727204
     178A     -0.727191   179A     -0.725230   180A     -0.724671
     181A     -0.724653   182A     -0.718675   183A     -0.713937
     184A     -0.713931   185A     -0.699707   186A     -0.699695
     187A     -0.686309   188A     -0.686072   189A     -0.686069
     190A     -0.682295   191A     -0.682285   192A     -0.678930
     193A     -0.653759   194A     -0.651008   195A     -0.650978
     196A     -0.649984   197A     -0.649968   198A     -0.649679
     199A     -0.641103   200A     -0.641077   201A     -0.640205
     202A     -0.639268   203A     -0.636175   204A     -0.636149
     205A     -0.629276   206A     -0.617662   207A     -0.615413
     208A     -0.615393   209A     -0.608926   210A     -0.608920
     211A     -0.599189   212A     -0.599150   213A     -0.598885
     214A     -0.598760   215A     -0.598734   216A     -0.598213
     217A     -0.595180   218A     -0.595168   219A     -0.594854
     220A     -0.594418   221A     -0.592102   222A     -0.592099
     223A     -0.587575   224A     -0.577885   225A     -0.577875
     226A     -0.575738   227A     -0.575734   228A     -0.573501
     229A     -0.569573   230A     -0.568310   231A     -0.568286
     232A     -0.566891   233A     -0.566881   234A     -0.561005
     235A     -0.558869   236A     -0.558851   237A     -0.558522
     238A     -0.554502   239A     -0.550634   240A     -0.547564
     241A     -0.544345   242A     -0.535040   243A     -0.535000
     244A     -0.533664   245A     -0.533641   246A     -0.528190
     247A     -0.528175   248A     -0.527971   249A     -0.517329
     250A     -0.517295   251A     -0.515430   252A     -0.515424
     253A     -0.509753   254A     -0.509737   255A     -0.498149
     256A     -0.496580   257A     -0.496554   258A     -0.493848
     259A     -0.493837   260A     -0.489484   261A     -0.481561
     262A     -0.477493   263A     -0.477490   264A     -0.474114
     265A     -0.469585   266A     -0.466662   267A     -0.466657
     268A     -0.458882   269A     -0.446875   270A     -0.446814
     271A     -0.441106   272A     -0.440830   273A     -0.440807
     274A     -0.434761   275A     -0.433978   276A     -0.407454
     277A     -0.407430   278A     -0.386491   279A     -0.386443
     280A     -0.385802   281A     -0.385801   282A     -0.383836
     283A     -0.354405   284A     -0.354389   285A     -0.350743
     286A     -0.338175   287A     -0.335677   288A     -0.335608
     289A     -0.332785   290A     -0.332778   291A     -0.307171
     292A     -0.302033   293A     -0.301971   294A     -0.300918
     295A     -0.286248   296A     -0.256532   297A     -0.253585
     298A     -0.253533   299A     -0.204342   300A     -0.204253

  @DF-RHF Final Energy: -3650.33754481190272

   => Energetics <=

    Nuclear Repulsion Energy =          15611.4211649754324753
    One-Electron Energy =              -36072.0731646022977657
    Two-Electron Energy =               16810.3144548149612092
    Total Energy =                      -3650.3375448119040811
 Dipole X            :         -0.0009430            0.0002304           -0.0007125
 Dipole Y            :          0.0010638           -0.0013052           -0.0002414
 Dipole Z            :       -577.8906456          577.8919014            0.0012558
 Magnitude           :                                                    0.0014639

    SAPT Results
  --------------------------------------------------------------------------------------------------------
    Electrostatics                  7.82760441 [mEh]       4.91189592 [kcal/mol]      20.55137255 [kJ/mol]
      Elst10,r                      7.82760441 [mEh]       4.91189592 [kcal/mol]      20.55137255 [kJ/mol]

    Exchange                       -0.00018719 [mEh]      -0.00011746 [kcal/mol]      -0.00049147 [kJ/mol]
      Exch10                       -0.00018719 [mEh]      -0.00011746 [kcal/mol]      -0.00049147 [kJ/mol]
      Exch10(S^2)                  -0.00018719 [mEh]      -0.00011746 [kcal/mol]      -0.00049147 [kJ/mol]

    Induction                      -2.79532677 [mEh]      -1.75409403 [kcal/mol]      -7.33912942 [kJ/mol]
      Ind20,r                      -2.80925047 [mEh]      -1.76283128 [kcal/mol]      -7.37568609 [kJ/mol]
      Exch-Ind20,r                  0.00032919 [mEh]       0.00020657 [kcal/mol]       0.00086430 [kJ/mol]
      delta HF,r (2)                0.01359451 [mEh]       0.00853068 [kcal/mol]       0.03569237 [kJ/mol]

    Dispersion                     -0.38540489 [mEh]      -0.24184522 [kcal/mol]      -1.01188041 [kJ/mol]
      Disp20                       -0.38553007 [mEh]      -0.24192377 [kcal/mol]      -1.01220906 [kJ/mol]
      Exch-Disp20                   0.00012518 [mEh]       0.00007855 [kcal/mol]       0.00032866 [kJ/mol]
      Disp20 (SS)                  -0.19276504 [mEh]      -0.12096189 [kcal/mol]      -0.50610453 [kJ/mol]
      Disp20 (OS)                  -0.19276504 [mEh]      -0.12096189 [kcal/mol]      -0.50610453 [kJ/mol]
      Exch-Disp20 (SS)              0.00009817 [mEh]       0.00006160 [kcal/mol]       0.00025774 [kJ/mol]
      Exch-Disp20 (OS)              0.00002701 [mEh]       0.00001695 [kcal/mol]       0.00007092 [kJ/mol]

  Total HF                          5.03209045 [mEh]       3.15768443 [kcal/mol]      13.21175166 [kJ/mol]
  Total SAPT0                       4.64668556 [mEh]       2.91583921 [kcal/mol]      12.19987126 [kJ/mol]

  Special recipe for scaled SAPT0 (see Manual):
    Electrostatics sSAPT0           7.82760441 [mEh]       4.91189592 [kcal/mol]      20.55137255 [kJ/mol]
    Exchange sSAPT0                -0.00018719 [mEh]      -0.00011746 [kcal/mol]      -0.00049147 [kJ/mol]
    Induction sSAPT0               -2.79532677 [mEh]      -1.75409403 [kcal/mol]      -7.33912942 [kJ/mol]
    Dispersion sSAPT0              -0.38540489 [mEh]      -0.24184522 [kcal/mol]      -1.01188041 [kJ/mol]
  Total sSAPT0                      4.64668556 [mEh]       2.91583921 [kcal/mol]      12.19987126 [kJ/mol]
  --------------------------------------------------------------------------------------------------------

*** Psi4 exiting successfully. Buy a developer a beer!
