                               Psi4 1.9 release

  ==> Input File <==

--------------------------------------------------------------------------
memory 32 GB # how much memory is available ! Depends on the nodes/cores !

molecule dimer {
# monomer A
-1 1    # Charge and multiplicity
B -1.977592e-04  2.742729e-04 3.600034
F  1.123153e-16  1.430594e-17 5.012819
F  1.147860e+00  6.757812e-01 3.128893
F  1.191806e-02 -1.332011e+00 3.129095
F -1.159666e+00  6.560735e-01 3.129174
--
# monomer B
0 1     # Charge and multiplicity
C   1.22531237526482      0.70753866091955      0.00613762728373
C   1.22532433589282     -0.70753852257020     -0.00619318228664
C   -0.00000567409046      1.41496628609039     -0.00672680580738
C   2.45644923379077      1.41832825917820      0.00902448468363
C   0.00001130712078     -1.41497612663474      0.00347275151708
C   -1.22530046906674      0.70754574598412      0.00838914760619
C   2.45643823516184     -1.41832293188077     -0.00843833914343
C   -0.00000085313587      2.83680140328112     -0.00913035594137
C   3.68182717731192      0.70931832800114     -0.00808954934571
C   2.45512052870677      2.83422403348893     -0.00819210630633
C   3.68182158506039     -0.70933346742900      0.00798293467272
C   -1.22531311884624     -0.70752714354401     -0.00512042085974
C   1.22670006104402      3.54346985599427      0.00816696660346
C   0.00000526469929     -2.83678176723568      0.00832091913869
C   -2.45643555300670      1.41831729028492      0.00842454345199
C   2.45512389762097     -2.83422965658853      0.00783102630520
C   -1.22671388474763      3.54346943575023      0.00827029982280
C   4.91451777504333      1.42717324448953     -0.00160886631602
C   3.69315067131765      3.54279566454522     -0.00155906667985
C   -2.45643712022637     -1.41831290883911     -0.00846337726810
C   1.22670532178455     -3.54347386990643     -0.00780316414624
C   -2.45512491866593      2.83421703463423     -0.00818572995999
C   4.91452486062398     -1.42718653794377      0.00136387641845
C   1.22142509354026      4.97013443726031      0.00150231067809
C   4.89300870916237      2.82518837202648     -0.00039219795739
C   -1.22669652864725     -3.54347062507680     -0.00753595973677
C   -3.68181849668397      0.70932533873199     -0.00807686886569
C   3.69314758099218     -3.54280096939050      0.00148176697923
C   -1.22143177215231      4.97012866986289      0.00168580605083
C   6.13477145276790      0.68054831910577     -0.00083909176631
C   3.65678936045204      4.97295361556775     -0.00065042889723
C   -2.45512642789169     -2.83421472106065      0.00758666850712
C   -3.68181869921921     -0.70932533146830      0.00810055625144
C   4.89301309775526     -2.82519973363176      0.00021895393805
C   -0.00000059327114      5.65044773803267      0.00045449734393
C   6.13477559217374     -0.68055448207492      0.00042622874941
C   2.47813196269732      5.65357712333155      0.00063835075260
C   1.22142288457925     -4.97012668293268     -0.00129718634452
C   -3.69316190412301      3.54279732619245     -0.00139355922051
C   -1.22142804110313     -4.97011793159564     -0.00140994817719
C   -4.91452132810043      1.42717581899491     -0.00153192130862
C   3.65678749952045     -4.97295485423912      0.00080007163680
C   -2.47813805026426      5.65357479452875      0.00092287576113
C   -3.69314125872231     -3.54278984697859      0.00136564082345
C   -4.91451200321153     -1.42718062802730      0.00139857359209
C   -0.00000552908399     -5.65043791501335      0.00005899322272
C   -4.89302000425900      2.82518897091939     -0.00040227981744
C   2.47812647313991     -5.65357317188818     -0.00029052915548
C   -3.65679823041642      4.97295655404175     -0.00047374852278
C   -4.89299899901461     -2.82519139505969      0.00006491824035
C   -2.47812801824129     -5.65356579800621     -0.00056571680280
C   -6.13477002348955      0.68054913825639     -0.00086464346868
C   -3.65678835334731     -4.97294365097028      0.00058578382008
C   -6.13476456307132     -0.68055354348201      0.00040575295444
H   5.83528897565761      3.36927626695423      0.00396712770529
H   7.07385965258860      1.22821762089947     -0.00037744837300
H   4.60066374401555      5.51238117445323     -0.00014522814529
H   5.83528386714679     -3.36930568472863     -0.00423551337640
H   -0.00001167146422      6.73853104613662     -0.00389474766392
H   7.07386165167227     -1.22822657074368     -0.00008250934481
H   2.47331421164041      6.74068466339473      0.00017162982210
H   4.60066897122302     -5.51237575717576      0.00039007446835
H   -2.47331820069565      6.74068209160650      0.00047297644710
H   -0.00000978838621     -6.73852780445195      0.00458867820736
H   -5.83530143450167      3.36927132229595      0.00410314985360
H   2.47330840367253     -6.74068500242887      0.00027980126949
H   -4.60067436136587      5.51237839860371      0.00002010017831
H   -5.83527902699321     -3.36928859177951     -0.00451481925734
H   -2.47329986759855     -6.74067870613986     -0.00016951527498
H   -7.07385728692578      1.22822084484047     -0.00046143985387
H   -4.60067330624313     -5.51236229778631      0.00021776644566
H   -7.07385645456741     -1.22822025997701     -0.00017736581114

    units angstrom      # Angstroms are the default
    no_reorient         # Geometry fixed, default
    symmetry c1         # C1 symmetry, default
}

set {
    scf_type DF         # Density fitting, faster than exact integrals
    freeze_core True    # Freeze core electrons
    basis jun-cc-pVDZ   # Jun-cc-pVDZ basis set, recommended for sSAPT0 in https://doi.org/10.1063/1.4867135
}

energy('ssapt0')        # Compute sSAPT0 energy, includes also SAPT0
--------------------------------------------------------------------------

  //              Dimer HF             //
    Molecular point group: c1
  Charge       = -1
  Multiplicity = 1
  Basis Set: JUN-CC-PVDZ
    Blend: JUN-CC-PVDZ
  Basis Set: (JUN-CC-PVDZ AUX)
    Blend: JUN-CC-PVDZ-JKFIT
  @DF-RHF Final Energy: -2478.66339236605472
    Total Energy =                      -2478.6633923660556320
 Dipole X            :         -0.0005738            0.0000481           -0.0005257
 Dipole Y            :          0.0010327           -0.0001453            0.0008875
 Dipole Z            :         17.4741604          -22.0690452           -4.5948848
 Magnitude           :                                                    4.5948849
  //            Monomer A HF           //
    Molecular point group: c1
  Multiplicity = 1
  Basis Set: JUN-CC-PVDZ
    Blend: JUN-CC-PVDZ
  Basis Set: (JUN-CC-PVDZ AUX)
    Blend: JUN-CC-PVDZ-JKFIT
  @DF-RHF Final Energy:  -422.77327427680387
    Total Energy =                       -422.7732742768038747
  //            Monomer B HF           //
    Molecular point group: c1

    Geometry (in Angstrom), charge = 0, multiplicity = 1:

       Center              X                  Y                   Z               Mass
    ------------   -----------------  -----------------  -----------------  -----------------
      Gh(B)          -0.000198161052     0.000273808717     3.184165406841    11.009305360000
      Gh(F)          -0.000000401852    -0.000000464183     4.596950406841    18.998403162730
      Gh(F)           1.147859598148     0.675780735817     2.713024406841    18.998403162730
      Gh(F)           0.011917658148    -1.332011464183     2.713226406841    18.998403162730
      Gh(F)          -1.159666401852     0.656073035817     2.713305406841    18.998403162730
         C            1.225311973413     0.707538196736    -0.409730965876    12.000000000000
         C            1.225323934041    -0.707538986754    -0.422061775446    12.000000000000
         C           -0.000006075942     1.414965821907    -0.422595398967    12.000000000000
         C            2.456448831939     1.418327794995    -0.406844108476    12.000000000000
         C            0.000010905269    -1.414976590818    -0.412395841642    12.000000000000
         C           -1.225300870919     0.707545281801    -0.407479445553    12.000000000000
         C            2.456437833310    -1.418323396064    -0.424306932303    12.000000000000
         C           -0.000001254988     2.836800939098    -0.424998949101    12.000000000000
         C            3.681826775460     0.709317863818    -0.423958142505    12.000000000000
         C            2.455120126855     2.834223569306    -0.424060699466    12.000000000000
         C            3.681821183209    -0.709333931612    -0.407885658487    12.000000000000
         C           -1.225313520698    -0.707527607727    -0.420989014019    12.000000000000
         C            1.226699659192     3.543469391811    -0.407701626556    12.000000000000
         C            0.000004862847    -2.836782231419    -0.407547674021    12.000000000000
         C           -2.456435954859     1.418316826102    -0.407444049707    12.000000000000
         C            2.455123495769    -2.834230120772    -0.408037566854    12.000000000000
         C           -1.226714286599     3.543468971567    -0.407598293337    12.000000000000
         C            4.914517373191     1.427172780306    -0.417477459475    12.000000000000
         C            3.693150269466     3.542795200362    -0.417427659839    12.000000000000
         C           -2.456437522078    -1.418313373022    -0.424331970428    12.000000000000
         C            1.226704919933    -3.543474334090    -0.423671757306    12.000000000000
         C           -2.455125320518     2.834216570451    -0.424054323119    12.000000000000
         C            4.914524458772    -1.427187002127    -0.414504716741    12.000000000000
         C            1.221424691688     4.970133973077    -0.414366282481    12.000000000000
         C            4.893008307311     2.825187907843    -0.416260791117    12.000000000000
         C           -1.226696930499    -3.543471089260    -0.423404552896    12.000000000000
         C           -3.681818898536     0.709324874549    -0.423945462025    12.000000000000
         C            3.693147179140    -3.542801433574    -0.414386826180    12.000000000000
         C           -1.221432174004     4.970128205680    -0.414182787109    12.000000000000
         C            6.134771050916     0.680547854922    -0.416707684926    12.000000000000
         C            3.656788958600     4.972953151384    -0.416519022057    12.000000000000
         C           -2.455126829744    -2.834215185244    -0.408281924652    12.000000000000
         C           -3.681819101071    -0.709325795652    -0.407768036908    12.000000000000
         C            4.893012695903    -2.825200197815    -0.415649639221    12.000000000000
         C           -0.000000995123     5.650447273849    -0.415414095816    12.000000000000
         C            6.134775190322    -0.680554946258    -0.415442364410    12.000000000000
         C            2.478131560845     5.653576659148    -0.415230242407    12.000000000000
         C            1.221422482727    -4.970127147116    -0.417165779504    12.000000000000
         C           -3.693162305975     3.542796862009    -0.417262152380    12.000000000000
         C           -1.221428442955    -4.970118395779    -0.417278541337    12.000000000000
         C           -4.914521729952     1.427175354812    -0.417400514468    12.000000000000
         C            3.656787097669    -4.972955318422    -0.415068521523    12.000000000000
         C           -2.478138452116     5.653574330345    -0.414945717398    12.000000000000
         C           -3.693141660574    -3.542790311162    -0.414502952336    12.000000000000
         C           -4.914512405063    -1.427181092211    -0.414470019567    12.000000000000
         C           -0.000005930936    -5.650438379197    -0.415809599937    12.000000000000
         C           -4.893020406111     2.825188506736    -0.416270872977    12.000000000000
         C            2.478126071288    -5.653573636072    -0.416159122315    12.000000000000
         C           -3.656798632268     4.972956089858    -0.416342341682    12.000000000000
         C           -4.892999400866    -2.825191859243    -0.415803674919    12.000000000000
         C           -2.478128420093    -5.653566262190    -0.416434309962    12.000000000000
         C           -6.134770425341     0.680548674073    -0.416733236628    12.000000000000
         C           -3.656788755199    -4.972944115154    -0.415282809339    12.000000000000
         C           -6.134764964923    -0.680554007665    -0.415462840205    12.000000000000
         H            5.835288573806     3.369275802771    -0.411901465454     1.007825032230
         H            7.073859250737     1.228217156716    -0.416246041532     1.007825032230
         H            4.600663342164     5.512380710270    -0.416013821305     1.007825032230
         H            5.835283465295    -3.369306148912    -0.420104106536     1.007825032230
         H           -0.000012073316     6.738530581953    -0.419763340823     1.007825032230
         H            7.073861249820    -1.228227034927    -0.415951102504     1.007825032230
         H            2.473313809789     6.740684199211    -0.415696963337     1.007825032230
         H            4.600668569371    -5.512376221359    -0.415478518691     1.007825032230
         H           -2.473318602548     6.740681627423    -0.415395616712     1.007825032230
         H           -0.000010190238    -6.738528268635    -0.411279914952     1.007825032230
         H           -5.835301836354     3.369270858113    -0.411765443306     1.007825032230
         H            2.473308001821    -6.740685466612    -0.415588791890     1.007825032230
         H           -4.600674763218     5.512377934420    -0.415848492981     1.007825032230
         H           -5.835279428845    -3.369289055963    -0.420383412417     1.007825032230
         H           -2.473300269450    -6.740679170323    -0.416038108434     1.007825032230
         H           -7.073857688778     1.228220380657    -0.416330033013     1.007825032230
         H           -4.600673708095    -5.512362761970    -0.415650826714     1.007825032230
         H           -7.073856856419    -1.228220724160    -0.416045958971     1.007825032230

  Charge       = 0
  Multiplicity = 1
  Basis Set: JUN-CC-PVDZ
    Blend: JUN-CC-PVDZ
  Basis Set: (JUN-CC-PVDZ AUX)
    Blend: JUN-CC-PVDZ-JKFIT

    Orbital Energies [Eh]
    ---------------------

    Doubly Occupied:

       1A    -11.260685     2A    -11.260235     3A    -11.260234
       4A    -11.259486     5A    -11.259485     6A    -11.259302
       7A    -11.259050     8A    -11.258981     9A    -11.258980
      10A    -11.258644    11A    -11.258641    12A    -11.258522
      13A    -11.258466    14A    -11.258462    15A    -11.258461
      16A    -11.258425    17A    -11.258419    18A    -11.258401
      19A    -11.258398    20A    -11.258397    21A    -11.258393
      22A    -11.258332    23A    -11.258327    24A    -11.258102
      25A    -11.257325    26A    -11.257267    27A    -11.257266
      28A    -11.257138    29A    -11.257137    30A    -11.257057
      31A    -11.256423    32A    -11.256355    33A    -11.256354
      34A    -11.256247    35A    -11.256247    36A    -11.256201
      37A    -11.252269    38A    -11.252269    39A    -11.252267
      40A    -11.252266    41A    -11.252264    42A    -11.252262
      43A    -11.251373    44A    -11.251370    45A    -11.251370
      46A    -11.251364    47A    -11.251363    48A    -11.251359
      49A    -11.250831    50A    -11.250830    51A    -11.250828
      52A    -11.250826    53A    -11.250825    54A    -11.250823
      55A     -1.244012    56A     -1.219778    57A     -1.219777
      58A     -1.189511    59A     -1.189504    60A     -1.180891
      61A     -1.157534    62A     -1.148953    63A     -1.135448
      64A     -1.135442    65A     -1.113170    66A     -1.113165
      67A     -1.082397    68A     -1.082390    69A     -1.078557
      70A     -1.065961    71A     -1.065957    72A     -1.039370
      73A     -1.024235    74A     -1.021713    75A     -1.021670
      76A     -1.017708    77A     -1.012782    78A     -0.986985
      79A     -0.986939    80A     -0.961857    81A     -0.961808
      82A     -0.894267    83A     -0.894241    84A     -0.887876
      85A     -0.886133    86A     -0.886075    87A     -0.881354
      88A     -0.881306    89A     -0.861876    90A     -0.837401
      91A     -0.818178    92A     -0.816568    93A     -0.812095
      94A     -0.812085    95A     -0.794668    96A     -0.794658
      97A     -0.746574    98A     -0.744819    99A     -0.733366
     100A     -0.733357   101A     -0.732158   102A     -0.732134
     103A     -0.716455   104A     -0.698947   105A     -0.698936
     106A     -0.693548   107A     -0.693533   108A     -0.661208
     109A     -0.653056   110A     -0.651103   111A     -0.650231
     112A     -0.650225   113A     -0.639336   114A     -0.639334
     115A     -0.629672   116A     -0.627481   117A     -0.627465
     118A     -0.606447   119A     -0.605800   120A     -0.601620
     121A     -0.599700   122A     -0.599669   123A     -0.593602
     124A     -0.591155   125A     -0.591144   126A     -0.585266
     127A     -0.576400   128A     -0.576394   129A     -0.567306
     130A     -0.567292   131A     -0.565913   132A     -0.565894
     133A     -0.558672   134A     -0.554817   135A     -0.554811
     136A     -0.538571   137A     -0.538570   138A     -0.538217
     139A     -0.538211   140A     -0.529690   141A     -0.528167
     142A     -0.522841   143A     -0.522835   144A     -0.500482
     145A     -0.495596   146A     -0.493208   147A     -0.487836
     148A     -0.485032   149A     -0.481720   150A     -0.481713
     151A     -0.470343   152A     -0.470325   153A     -0.450963
     154A     -0.450885   155A     -0.439060   156A     -0.439050
     157A     -0.404745   158A     -0.404722   159A     -0.403366
     160A     -0.375404   161A     -0.375401   162A     -0.349119
     163A     -0.337643   164A     -0.336549   165A     -0.336492
     166A     -0.311053   167A     -0.298110   168A     -0.284345
     169A     -0.284290   170A     -0.224893   171A     -0.224827

  @DF-RHF Final Energy: -2055.89411426023798

   => Energetics <=

    Nuclear Repulsion Energy =           6452.5568002797772351
    One-Electron Energy =              -15636.4897523338131577
    Two-Electron Energy =                7128.0388377937979385
    Total Energy =                      -2055.8941142602379841
 Dipole X            :          0.0000221            0.0000419            0.0000640
 Dipole Y            :          0.0000483           -0.0000426            0.0000057
 Dipole Z            :        268.7724548         -268.7716318            0.0008230
 Magnitude           :                                                    0.0008255

    SAPT Results
  --------------------------------------------------------------------------------------------------------
    Electrostatics                 10.28708092 [mEh]       6.45524074 [kcal/mol]      27.00872725 [kJ/mol]
      Elst10,r                     10.28708092 [mEh]       6.45524074 [kcal/mol]      27.00872725 [kJ/mol]

    Exchange                        9.11097844 [mEh]       5.71722528 [kcal/mol]      23.92087059 [kJ/mol]
      Exch10                        9.11097844 [mEh]       5.71722528 [kcal/mol]      23.92087059 [kJ/mol]
      Exch10(S^2)                   9.10426460 [mEh]       5.71301229 [kcal/mol]      23.90324341 [kJ/mol]

    Induction                     -15.40188837 [mEh]      -9.66483087 [kcal/mol]     -40.43765235 [kJ/mol]
      Ind20,r                     -17.53669113 [mEh]     -11.00443982 [kcal/mol]     -46.04257621 [kJ/mol]
      Exch-Ind20,r                  2.78324270 [mEh]       1.74651116 [kcal/mol]       7.30740270 [kJ/mol]
      delta HF,r (2)               -0.64843995 [mEh]      -0.40690221 [kcal/mol]      -1.70247884 [kJ/mol]

    Dispersion                    -10.19413118 [mEh]      -6.39691389 [kcal/mol]     -26.76468772 [kJ/mol]
      Disp20                      -11.49640269 [mEh]      -7.21410160 [kcal/mol]     -30.18380111 [kJ/mol]
      Exch-Disp20                   1.30227152 [mEh]       0.81718771 [kcal/mol]       3.41911339 [kJ/mol]
      Disp20 (SS)                  -5.74820135 [mEh]      -3.60705080 [kcal/mol]     -15.09190056 [kJ/mol]
      Disp20 (OS)                  -5.74820135 [mEh]      -3.60705080 [kcal/mol]     -15.09190056 [kJ/mol]
      Exch-Disp20 (SS)              0.76911839 [mEh]       0.48262908 [kcal/mol]       2.01932007 [kJ/mol]
      Exch-Disp20 (OS)              0.53315312 [mEh]       0.33455864 [kcal/mol]       1.39979333 [kJ/mol]

  Total HF                          3.99617099 [mEh]       2.50763515 [kcal/mol]      10.49194548 [kJ/mol]
  Total SAPT0                      -6.19796019 [mEh]      -3.88927874 [kcal/mol]     -16.27274224 [kJ/mol]

  Special recipe for scaled SAPT0 (see Manual):
    Electrostatics sSAPT0          10.28708092 [mEh]       6.45524074 [kcal/mol]      27.00872725 [kJ/mol]
    Exchange sSAPT0                 9.11097844 [mEh]       5.71722528 [kcal/mol]      23.92087059 [kJ/mol]
    Induction sSAPT0              -15.39572642 [mEh]      -9.66096418 [kcal/mol]     -40.42147414 [kJ/mol]
    Dispersion sSAPT0             -10.19124802 [mEh]      -6.39510468 [kcal/mol]     -26.75711798 [kJ/mol]
  Total sSAPT0                     -6.18891507 [mEh]      -3.88360284 [kcal/mol]     -16.24899429 [kJ/mol]
  --------------------------------------------------------------------------------------------------------

*** Psi4 exiting successfully. Buy a developer a beer!
