                               Psi4 1.9 release

  ==> Input File <==

--------------------------------------------------------------------------
memory 32 GB # how much memory is available ! Depends on the nodes/cores !

molecule dimer {
# monomer A
-1 1    # Charge and multiplicity
B -0.000046  0.000337 3.799994
F -1.153597  0.000048 4.615641
F  1.153661 -0.000581 4.615641
F -0.000019 -1.153637 2.984360
F -0.000019  1.153978 2.984360
--
# monomer B
0 1     # Charge and multiplicity
C   1.22531237526482      0.70753866091955      0.00613762728373
C   1.22532433589282     -0.70753852257020     -0.00619318228664
C   -0.00000567409046      1.41496628609039     -0.00672680580738
C   2.45644923379077      1.41832825917820      0.00902448468363
C   0.00001130712078     -1.41497612663474      0.00347275151708
C   -1.22530046906674      0.70754574598412      0.00838914760619
C   2.45643823516184     -1.41832293188077     -0.00843833914343
C   -0.00000085313587      2.83680140328112     -0.00913035594137
C   3.68182717731192      0.70931832800114     -0.00808954934571
C   2.45512052870677      2.83422403348893     -0.00819210630633
C   3.68182158506039     -0.70933346742900      0.00798293467272
C   -1.22531311884624     -0.70752714354401     -0.00512042085974
C   1.22670006104402      3.54346985599427      0.00816696660346
C   0.00000526469929     -2.83678176723568      0.00832091913869
C   -2.45643555300670      1.41831729028492      0.00842454345199
C   2.45512389762097     -2.83422965658853      0.00783102630520
C   -1.22671388474763      3.54346943575023      0.00827029982280
C   4.91451777504333      1.42717324448953     -0.00160886631602
C   3.69315067131765      3.54279566454522     -0.00155906667985
C   -2.45643712022637     -1.41831290883911     -0.00846337726810
C   1.22670532178455     -3.54347386990643     -0.00780316414624
C   -2.45512491866593      2.83421703463423     -0.00818572995999
C   4.91452486062398     -1.42718653794377      0.00136387641845
C   1.22142509354026      4.97013443726031      0.00150231067809
C   4.89300870916237      2.82518837202648     -0.00039219795739
C   -1.22669652864725     -3.54347062507680     -0.00753595973677
C   -3.68181849668397      0.70932533873199     -0.00807686886569
C   3.69314758099218     -3.54280096939050      0.00148176697923
C   -1.22143177215231      4.97012866986289      0.00168580605083
C   6.13477145276790      0.68054831910577     -0.00083909176631
C   3.65678936045204      4.97295361556775     -0.00065042889723
C   -2.45512642789169     -2.83421472106065      0.00758666850712
C   -3.68181869921921     -0.70932533146830      0.00810055625144
C   4.89301309775526     -2.82519973363176      0.00021895393805
C   -0.00000059327114      5.65044773803267      0.00045449734393
C   6.13477559217374     -0.68055448207492      0.00042622874941
C   2.47813196269732      5.65357712333155      0.00063835075260
C   1.22142288457925     -4.97012668293268     -0.00129718634452
C   -3.69316190412301      3.54279732619245     -0.00139355922051
C   -1.22142804110313     -4.97011793159564     -0.00140994817719
C   -4.91452132810043      1.42717581899491     -0.00153192130862
C   3.65678749952045     -4.97295485423912      0.00080007163680
C   -2.47813805026426      5.65357479452875      0.00092287576113
C   -3.69314125872231     -3.54278984697859      0.00136564082345
C   -4.91451200321153     -1.42718062802730      0.00139857359209
C   -0.00000552908399     -5.65043791501335      0.00005899322272
C   -4.89302000425900      2.82518897091939     -0.00040227981744
C   2.47812647313991     -5.65357317188818     -0.00029052915548
C   -3.65679823041642      4.97295655404175     -0.00047374852278
C   -4.89299899901461     -2.82519139505969      0.00006491824035
C   -2.47812801824129     -5.65356579800621     -0.00056571680280
C   -6.13477002348955      0.68054913825639     -0.00086464346868
C   -3.65678835334731     -4.97294365097028      0.00058578382008
C   -6.13476456307132     -0.68055354348201      0.00040575295444
H   5.83528897565761      3.36927626695423      0.00396712770529
H   7.07385965258860      1.22821762089947     -0.00037744837300
H   4.60066374401555      5.51238117445323     -0.00014522814529
H   5.83528386714679     -3.36930568472863     -0.00423551337640
H   -0.00001167146422      6.73853104613662     -0.00389474766392
H   7.07386165167227     -1.22822657074368     -0.00008250934481
H   2.47331421164041      6.74068466339473      0.00017162982210
H   4.60066897122302     -5.51237575717576      0.00039007446835
H   -2.47331820069565      6.74068209160650      0.00047297644710
H   -0.00000978838621     -6.73852780445195      0.00458867820736
H   -5.83530143450167      3.36927132229595      0.00410314985360
H   2.47330840367253     -6.74068500242887      0.00027980126949
H   -4.60067436136587      5.51237839860371      0.00002010017831
H   -5.83527902699321     -3.36928859177951     -0.00451481925734
H   -2.47329986759855     -6.74067870613986     -0.00016951527498
H   -7.07385728692578      1.22822084484047     -0.00046143985387
H   -4.60067330624313     -5.51236229778631      0.00021776644566
H   -7.07385645456741     -1.22822025997701     -0.00017736581114

    units angstrom      # Angstroms are the default
    no_reorient         # Geometry fixed, default
    symmetry c1         # C1 symmetry, default
}

set {
    scf_type DF         # Density fitting, faster than exact integrals
    freeze_core True    # Freeze core electrons
    basis jun-cc-pVDZ   # Jun-cc-pVDZ basis set, recommended for sSAPT0 in https://doi.org/10.1063/1.4867135
}

energy('ssapt0')        # Compute sSAPT0 energy, includes also SAPT0
--------------------------------------------------------------------------

  //              Dimer HF             //
    Molecular point group: c1
  Charge       = -1
  Multiplicity = 1
  Basis Set: JUN-CC-PVDZ
    Blend: JUN-CC-PVDZ
  Basis Set: (JUN-CC-PVDZ AUX)
    Blend: JUN-CC-PVDZ-JKFIT
  @DF-RHF Final Energy: -2478.66228736506400
    Total Energy =                      -2478.6622873650630936
 Dipole X            :         -0.0002254           -0.0000160           -0.0002415
 Dipole Y            :          0.0010809           -0.0001716            0.0009093
 Dipole Z            :         18.3162279          -23.2950929           -4.9788650
 Magnitude           :                                                    4.9788650
  //            Monomer A HF           //
    Molecular point group: c1
  Multiplicity = 1
  Basis Set: JUN-CC-PVDZ
    Blend: JUN-CC-PVDZ
  Basis Set: (JUN-CC-PVDZ AUX)
    Blend: JUN-CC-PVDZ-JKFIT
  @DF-RHF Final Energy:  -422.77315548310963
    Total Energy =                       -422.7731554831096332
  //            Monomer B HF           //
    Molecular point group: c1

    Geometry (in Angstrom), charge = 0, multiplicity = 1:

       Center              X                  Y                   Z               Mass
    ------------   -----------------  -----------------  -----------------  -----------------
      Gh(B)          -0.000046449334     0.000336519434     3.361021528242    11.009305360000
      Gh(F)          -1.153597449334     0.000047519434     4.176668528242    18.998403162730
      Gh(F)           1.153660550666    -0.000581480566     4.176668528242    18.998403162730
      Gh(F)          -0.000019449334    -1.153637480566     2.545387528242    18.998403162730
      Gh(F)          -0.000019449334     1.153977519434     2.545387528242    18.998403162730
         C            1.225311925931     0.707538180353    -0.432834844474    12.000000000000
         C            1.225323886559    -0.707539003137    -0.445165654044    12.000000000000
         C           -0.000006123424     1.414965805524    -0.445699277565    12.000000000000
         C            2.456448784457     1.418327778612    -0.429947987074    12.000000000000
         C            0.000010857787    -1.414976607201    -0.435499720240    12.000000000000
         C           -1.225300918401     0.707545265418    -0.430583324151    12.000000000000
         C            2.456437785828    -1.418323412447    -0.447410810901    12.000000000000
         C           -0.000001302470     2.836800922715    -0.448102827699    12.000000000000
         C            3.681826727978     0.709317847435    -0.447062021103    12.000000000000
         C            2.455120079373     2.834223552923    -0.447164578064    12.000000000000
         C            3.681821135726    -0.709333947995    -0.430989537085    12.000000000000
         C           -1.225313568180    -0.707527624110    -0.444092892617    12.000000000000
         C            1.226699611710     3.543469375428    -0.430805505154    12.000000000000
         C            0.000004815365    -2.836782247802    -0.430651552619    12.000000000000
         C           -2.456436002341     1.418316809719    -0.430547928306    12.000000000000
         C            2.455123448287    -2.834230137155    -0.431141445452    12.000000000000
         C           -1.226714334082     3.543468955184    -0.430702171935    12.000000000000
         C            4.914517325709     1.427172763923    -0.440581338074    12.000000000000
         C            3.693150221984     3.542795183979    -0.440531538437    12.000000000000
         C           -2.456437569560    -1.418313389406    -0.447435849026    12.000000000000
         C            1.226704872451    -3.543474350473    -0.446775635904    12.000000000000
         C           -2.455125368000     2.834216554068    -0.447158201718    12.000000000000
         C            4.914524411290    -1.427187018510    -0.437608595339    12.000000000000
         C            1.221424644206     4.970133956694    -0.437470161079    12.000000000000
         C            4.893008259828     2.825187891460    -0.439364669715    12.000000000000
         C           -1.226696977981    -3.543471105643    -0.446508431494    12.000000000000
         C           -3.681818946018     0.709324858166    -0.447049340623    12.000000000000
         C            3.693147131658    -3.542801449957    -0.437490704778    12.000000000000
         C           -1.221432221486     4.970128189296    -0.437286665707    12.000000000000
         C            6.134771003434     0.680547838539    -0.439811563524    12.000000000000
         C            3.656788911118     4.972953135001    -0.439622900655    12.000000000000
         C           -2.455126877226    -2.834215201627    -0.431385803250    12.000000000000
         C           -3.681819148553    -0.709325812035    -0.430871915506    12.000000000000
         C            4.893012648421    -2.825200214198    -0.438753517820    12.000000000000
         C           -0.000001042605     5.650447257466    -0.438517974414    12.000000000000
         C            6.134775142840    -0.680554962641    -0.438546243008    12.000000000000
         C            2.478131513363     5.653576642765    -0.438334121005    12.000000000000
         C            1.221422435245    -4.970127163499    -0.440269658102    12.000000000000
         C           -3.693162353457     3.542796845626    -0.440366030978    12.000000000000
         C           -1.221428490437    -4.970118412162    -0.440382419935    12.000000000000
         C           -4.914521777434     1.427175338429    -0.440504393066    12.000000000000
         C            3.656787050187    -4.972955334806    -0.438172400121    12.000000000000
         C           -2.478138499598     5.653574313962    -0.438049595996    12.000000000000
         C           -3.693141708056    -3.542790327545    -0.437606830934    12.000000000000
         C           -4.914512452545    -1.427181108594    -0.437573898165    12.000000000000
         C           -0.000005978418    -5.650438395580    -0.438913478535    12.000000000000
         C           -4.893020453593     2.825188490353    -0.439374751575    12.000000000000
         C            2.478126023806    -5.653573652455    -0.439263000913    12.000000000000
         C           -3.656798679750     4.972956073475    -0.439446220280    12.000000000000
         C           -4.892999448349    -2.825191875626    -0.438907553517    12.000000000000
         C           -2.478128467575    -5.653566278573    -0.439538188560    12.000000000000
         C           -6.134770472823     0.680548657690    -0.439837115226    12.000000000000
         C           -3.656788802681    -4.972944131537    -0.438386687937    12.000000000000
         C           -6.134765012405    -0.680554024048    -0.438566718803    12.000000000000
         H            5.835288526324     3.369275786388    -0.435005344052     1.007825032230
         H            7.073859203255     1.228217140333    -0.439349920131     1.007825032230
         H            4.600663294682     5.512380693887    -0.439117699903     1.007825032230
         H            5.835283417813    -3.369306165295    -0.443207985134     1.007825032230
         H           -0.000012120798     6.738530565570    -0.442867219421     1.007825032230
         H            7.073861202338    -1.228227051310    -0.439054981102     1.007825032230
         H            2.473313762307     6.740684182828    -0.438800841935     1.007825032230
         H            4.600668521889    -5.512376237742    -0.438582397289     1.007825032230
         H           -2.473318650030     6.740681611040    -0.438499495310     1.007825032230
         H           -0.000010237720    -6.738528285018    -0.434383793550     1.007825032230
         H           -5.835301883836     3.369270841730    -0.434869321904     1.007825032230
         H            2.473307954339    -6.740685482995    -0.438692670488     1.007825032230
         H           -4.600674810700     5.512377918037    -0.438952371579     1.007825032230
         H           -5.835279476327    -3.369289072346    -0.443487291015     1.007825032230
         H           -2.473300316932    -6.740679186706    -0.439141987033     1.007825032230
         H           -7.073857736260     1.228220364274    -0.439433911611     1.007825032230
         H           -4.600673755577    -5.512362778353    -0.438754705312     1.007825032230
         H           -7.073856903901    -1.228220740543    -0.439149837569     1.007825032230

  Charge       = 0
  Multiplicity = 1
  Basis Set: JUN-CC-PVDZ
    Blend: JUN-CC-PVDZ
  Basis Set: (JUN-CC-PVDZ AUX)
    Blend: JUN-CC-PVDZ-JKFIT

    Orbital Energies [Eh]
    ---------------------

    Doubly Occupied:

       1A    -11.260686     2A    -11.260266     3A    -11.260203
       4A    -11.259521     5A    -11.259452     6A    -11.259302
       7A    -11.259064     8A    -11.259015     9A    -11.258958
      10A    -11.258672    11A    -11.258644    12A    -11.258548
      13A    -11.258491    14A    -11.258487    15A    -11.258483
      16A    -11.258450    17A    -11.258446    18A    -11.258432
      19A    -11.258425    20A    -11.258424    21A    -11.258404
      22A    -11.258364    23A    -11.258330    24A    -11.258104
      25A    -11.257347    26A    -11.257297    27A    -11.257276
      28A    -11.257167    29A    -11.257140    30A    -11.257071
      31A    -11.256443    32A    -11.256381    33A    -11.256366
      34A    -11.256281    35A    -11.256246    36A    -11.256215
      37A    -11.252298    38A    -11.252297    39A    -11.252293
      40A    -11.252292    41A    -11.252290    42A    -11.252289
      43A    -11.251402    44A    -11.251400    45A    -11.251397
      46A    -11.251394    47A    -11.251389    48A    -11.251386
      49A    -11.250859    50A    -11.250858    51A    -11.250855
      52A    -11.250853    53A    -11.250851    54A    -11.250850
      55A     -1.244056    56A     -1.219827    57A     -1.219817
      58A     -1.189550    59A     -1.189548    60A     -1.180933
      61A     -1.157574    62A     -1.148990    63A     -1.135488
      64A     -1.135486    65A     -1.113207    66A     -1.113201
      67A     -1.082438    68A     -1.082431    69A     -1.078599
      70A     -1.065995    71A     -1.065993    72A     -1.039413
      73A     -1.024278    74A     -1.021752    75A     -1.021719
      76A     -1.017744    77A     -1.012812    78A     -0.987026
      79A     -0.986983    80A     -0.961892    81A     -0.961842
      82A     -0.894306    83A     -0.894279    84A     -0.887925
      85A     -0.886182    86A     -0.886116    87A     -0.881396
      88A     -0.881356    89A     -0.861914    90A     -0.837430
      91A     -0.818220    92A     -0.816611    93A     -0.812138
      94A     -0.812128    95A     -0.794702    96A     -0.794694
      97A     -0.746623    98A     -0.744863    99A     -0.733411
     100A     -0.733398   101A     -0.732194   102A     -0.732173
     103A     -0.716497   104A     -0.698983   105A     -0.698978
     106A     -0.693586   107A     -0.693577   108A     -0.661244
     109A     -0.653097   110A     -0.651150   111A     -0.650264
     112A     -0.650262   113A     -0.639375   114A     -0.639370
     115A     -0.629715   116A     -0.627529   117A     -0.627504
     118A     -0.606469   119A     -0.605827   120A     -0.601664
     121A     -0.599738   122A     -0.599719   123A     -0.593645
     124A     -0.591200   125A     -0.591198   126A     -0.585296
     127A     -0.576442   128A     -0.576365   129A     -0.567339
     130A     -0.567326   131A     -0.565953   132A     -0.565933
     133A     -0.558716   134A     -0.554854   135A     -0.554847
     136A     -0.538608   137A     -0.538604   138A     -0.538205
     139A     -0.538204   140A     -0.529728   141A     -0.528184
     142A     -0.522878   143A     -0.522875   144A     -0.500517
     145A     -0.495618   146A     -0.493247   147A     -0.487852
     148A     -0.485077   149A     -0.481763   150A     -0.481754
     151A     -0.470372   152A     -0.470331   153A     -0.451014
     154A     -0.450931   155A     -0.439089   156A     -0.439070
     157A     -0.404759   158A     -0.404728   159A     -0.403394
     160A     -0.375432   161A     -0.375427   162A     -0.349149
     163A     -0.337627   164A     -0.336574   165A     -0.336519
     166A     -0.311085   167A     -0.298128   168A     -0.284356
     169A     -0.284307   170A     -0.224925   171A     -0.224856

  @DF-RHF Final Energy: -2055.89367797009299

   => Energetics <=

    Nuclear Repulsion Energy =           6452.5568002797781446
    One-Electron Energy =              -15636.4786010372572491
    Two-Electron Energy =                7128.0281227873847456
    Total Energy =                      -2055.8936779700934494
 Dipole X            :          0.0000674            0.0000112            0.0000786
 Dipole Y            :          0.0003706           -0.0000531            0.0003174
 Dipole Z            :        283.7032849         -283.7033529           -0.0000679
 Magnitude           :                                                    0.0003340

    SAPT Results
  --------------------------------------------------------------------------------------------------------
    Electrostatics                  9.61121118 [mEh]       6.03112607 [kcal/mol]      25.23423148 [kJ/mol]
      Elst10,r                      9.61121118 [mEh]       6.03112607 [kcal/mol]      25.23423148 [kJ/mol]

    Exchange                        9.48696355 [mEh]       5.95315951 [kcal/mol]      24.90801937 [kJ/mol]
      Exch10                        9.48696355 [mEh]       5.95315951 [kcal/mol]      24.90801937 [kJ/mol]
      Exch10(S^2)                   9.47439545 [mEh]       5.94527290 [kcal/mol]      24.87502182 [kJ/mol]

    Induction                     -14.55208660 [mEh]      -9.13157220 [kcal/mol]     -38.20649809 [kJ/mol]
      Ind20,r                     -16.80063481 [mEh]     -10.54255751 [kcal/mol]     -44.11006062 [kJ/mol]
      Exch-Ind20,r                  2.95202591 [mEh]       1.85242422 [kcal/mol]       7.75054296 [kJ/mol]
      delta HF,r (2)               -0.70347769 [mEh]      -0.44143892 [kcal/mol]      -1.84698043 [kJ/mol]

    Dispersion                     -9.06301627 [mEh]      -5.68712857 [kcal/mol]     -23.79494594 [kJ/mol]
      Disp20                      -10.33123270 [mEh]      -6.48294639 [kcal/mol]     -27.12464771 [kJ/mol]
      Exch-Disp20                   1.26821643 [mEh]       0.79581782 [kcal/mol]       3.32970177 [kJ/mol]
      Disp20 (SS)                  -5.16561635 [mEh]      -3.24147320 [kcal/mol]     -13.56232386 [kJ/mol]
      Disp20 (OS)                  -5.16561635 [mEh]      -3.24147320 [kcal/mol]     -13.56232386 [kJ/mol]
      Exch-Disp20 (SS)              0.73417802 [mEh]       0.46070366 [kcal/mol]       1.92758413 [kJ/mol]
      Exch-Disp20 (OS)              0.53403841 [mEh]       0.33511416 [kcal/mol]       1.40211764 [kJ/mol]

  Total HF                          4.54608814 [mEh]       2.85271338 [kcal/mol]      11.93575276 [kJ/mol]
  Total SAPT0                      -4.51692813 [mEh]      -2.83441520 [kcal/mol]     -11.85919318 [kJ/mol]

  Special recipe for scaled SAPT0 (see Manual):
    Electrostatics sSAPT0           9.61121118 [mEh]       6.03112607 [kcal/mol]      25.23423148 [kJ/mol]
    Exchange sSAPT0                 9.48696355 [mEh]       5.95315951 [kcal/mol]      24.90801937 [kJ/mol]
    Induction sSAPT0              -14.54032312 [mEh]      -9.12419051 [kcal/mol]     -38.17561309 [kJ/mol]
    Dispersion sSAPT0              -9.05796258 [mEh]      -5.68395733 [kcal/mol]     -23.78167747 [kJ/mol]
  Total sSAPT0                     -4.50011096 [mEh]      -2.82386226 [kcal/mol]     -11.81503971 [kJ/mol]
  --------------------------------------------------------------------------------------------------------

*** Psi4 exiting successfully. Buy a developer a beer!
