                               Psi4 1.9 release

  ==> Input File <==

--------------------------------------------------------------------------
memory 47 GB # how much memory is available ! Depends on the nodes/cores !

molecule dimer {
# monomer A
-1 1    # Charge and multiplicity
B -1.977592e-04  2.742729e-04 6.000034
F  1.123153e-16  1.430594e-17 7.412819
F  1.147860e+00  6.757812e-01 5.528893
F  1.191806e-02 -1.332011e+00 5.529095
F -1.159666e+00  6.560735e-01 5.529174
--
# monomer B
0 1     # Charge and multiplicity
C   -3.66844126402057      7.80375217008252      0.00190004133558
C   -4.84759871934653      7.13124183134024     -0.00046653359696
C   -4.89495929917518      5.69633040353158     -0.00103944469517
C   -3.65374067877320      4.98073034095895      0.00662099703436
C   -2.40942512149445      7.11398103667468      0.00209438359570
C   -2.42547734410473      5.68112195090346     -0.00491050527438
C   -1.19474401643570      7.78614419430947      0.00356656413763
C   0.03795902893699      7.09942164575698      0.00139585983271
C   0.03033258741920      5.66948955970466     -0.00408752508301
C   -1.20098450790502      4.96927034791531      0.00488220885047
C   1.27795782581485      7.77285944319479      0.00277170839332
C   2.48535808472416      7.08769688523756      0.00049722048857
C   2.48612868491717      5.65477081024076     -0.00644052849921
C   1.25408291964399      4.95607811366431      0.00518741308898
C   3.75171459140595      7.76391215098033      0.00062407186893
C   4.92356605618520      7.07878077698995     -0.00143240883900
C   4.95560727132542      5.64344746336949     -0.00159282164606
C   3.70680153420475      4.94121020833308      0.00349873852374
H   -3.65852113775815      8.89082741913536      0.00358502958574
H   -1.18921332975660      8.87412108735996      0.00753844057883
H   1.28429423888630      8.86083343548850      0.00693053253426
H   3.75354208679975      8.85103527897216      0.00214659618464
H   5.86995870320703      7.61379483465560     -0.00235777588134
H   -5.78823170750226      7.67630221293400     -0.00202638095293
C   -6.09197395869619      4.99326001364347     -0.00291168518608
C   -6.12866148031747      3.58258016879823     -0.00171050815740
C   -3.66457974004527      3.56418217974434     -0.00463560277484
C   -4.89429820469869      2.86108077590057      0.00453338221034
C   -2.43733499489796      2.84761165708481      0.00719617576166
C   -1.20922785759670      3.54788693497833     -0.00648285103018
C   1.24714157216223      3.53468075142962     -0.00729145743546
C   0.01517603956900      2.83311183930540      0.00439272578912
C   2.46764517244071      2.82128997725533      0.00449278391269
C   3.70254947457969      3.52466015442405     -0.00899517692985
C   6.14498038638375      4.92757236613191     -0.00282626685777
C   6.16658835886151      3.51658447594213     -0.00065971342101
C   4.92460995845939      2.80840792535402      0.00587903281610
H   7.08990550964105      5.46688776622306     -0.00658814770723
H   -7.03104175110130      5.54268795285765     -0.00714490013730
C   -7.33969804112295      2.85841153457957     -0.00333767559888
C   -7.36488195805880      1.47032337158330     -0.00157213747140
C   -4.90350460894690      1.44442681216000     -0.00628840166334
C   -6.13225715261081      0.73993935705394      0.00600164231964
C   -3.67687480051673      0.72669714267312      0.00433931473643
C   -2.44565658606518      1.42964113326212     -0.00597039546461
C   -1.22360068130162      0.71532450163492      0.00545886906656
C   0.00763786931376      1.41738314923765      0.00392452278437
C   1.23121980774686      0.70211669058719     -0.01490206287210
C   2.46082110053113      1.40329203612573      0.00460244601878
C   3.68443025419614      0.68719842821222      0.00377365974158
C   4.91870890153864      1.39173456118907     -0.00862816189375
C   7.36980207796101      2.77948220318441     -0.00242013321349
C   7.38016266612146      1.39121750785509     -0.00087345036788
C   6.13979953912259      0.67411862320065      0.00545489144369
H   -8.27919079934664      3.40711804112415     -0.00763522772059
H   8.31511347147953      3.31811809662368     -0.00663070901292
C   -8.59175593758115      0.72483255304480     -0.00123170985383
C   -8.59902460370342     -0.63263980622873      0.00089141472904
C   -6.13981313911873     -0.67413663715361     -0.00609792660607
C   -7.38018411213749     -1.39126618958160      0.00131813493501
C   -4.91868448025621     -1.39175501803000      0.00624257154343
C   -3.68443829568458     -0.68723731573599     -0.00478966852105
C   -2.46081704024768     -1.40334517882457      0.00575341766833
C   -1.23116201232071     -0.70217386488055     -0.00636696112346
C   -0.00756962538737     -1.41741884941102      0.00108956317991
C   1.22364771588843     -0.71527537726392      0.01109518512883
C   2.44567064933149     -1.42964328900682     -0.00065482763106
C   3.67686670284649     -0.72670743155550     -0.00479541202602
C   6.13224884641929     -0.73997883984993     -0.00632338623858
C   4.90351914550401     -1.44445752054090      0.00751768830159
C   8.59901484869081      0.63260386666793     -0.00101133422380
C   8.59174548810050     -0.72485086719319      0.00072504603735
C   7.36486276438985     -1.47033266560598      0.00049486934466
H   -9.52830597181814      1.27684744919284     -0.00270163681798
H   9.54141097460619      1.17457248844457     -0.00206336648518
C   -7.36983790976868     -2.77954514593389      0.00312634335708
C   -4.92459910905015     -2.80843725734101     -0.00460528907921
C   -6.16662249566744     -3.51665219282533      0.00169655107992
C   -3.70251035970491     -3.52468154912026      0.00571878010666
C   -2.46764698511392     -2.82132596280400     -0.00632585824990
C   -0.01513347410770     -2.83314164539971     -0.00604426974092
C   -1.24712184122656     -3.53473217556300      0.00551968366725
C   1.20924506964357     -3.54791467864352      0.00805871345849
C   2.43733602215464     -2.84764173817541     -0.00608104485234
C   4.89430234377080     -2.86112296828604     -0.00526030478103
C   3.66461525504104     -3.56421984553201      0.00761911515957
C   6.12863901474565     -3.58258405771778      0.00096495711699
C   7.33967266469532     -2.85841330737039      0.00248018319869
H   -9.54144911125902     -1.17456346666430      0.00226083090216
H   9.52826186807155     -1.27691907390448      0.00197485379837
H   -8.31516504384864     -3.31814985321231      0.00729857188773
H   8.27915514249207     -3.40714078989363      0.00681973918158
C   -6.14499418870218     -4.92764727278338      0.00302254913999
C   -3.70678334799751     -4.94126171411716     -0.00679841894792
C   -4.95559005800169     -5.64349397349412      0.00116871569699
C   -2.48612132622665     -5.65478557440947      0.00614125209662
C   -1.25405833548005     -4.95612205000132     -0.00503435388927
C   1.20101257386816     -4.96928038819302     -0.00385322963129
C   -0.03033667441341     -5.66952030313900      0.00398997003238
C   3.65375010132847     -4.98074377541453     -0.00309522988330
C   2.42549269587528     -5.68117463552727      0.00628170066869
C   6.09196561781097     -4.99325796338655      0.00325918379042
C   4.89497644461045     -5.69634842095790      0.00202298796027
H   -7.08989238804069     -5.46699984223871      0.00742531082125
H   7.03105520920009     -5.54265853633254      0.00683896355417
C   -4.92354532219813     -7.07882109967734      0.00061394679214
C   -2.48534208823777     -7.08772807792913     -0.00189594564379
C   -3.75168589177895     -7.76394715763627     -0.00170126671874
C   -0.03794895698805     -7.09946487446944     -0.00168022049625
C   -1.27795610040136     -7.77290438466689     -0.00366491325785
C   2.40944432072629     -7.11402201200282     -0.00081701968533
C   1.19474993715296     -7.78618536556242     -0.00296931056689
C   4.84762105249800     -7.13126211057943      0.00168979497423
C   3.66847160587561     -7.80378799294376     -0.00065863938960
H   -5.86994035041618     -7.61383059804164      0.00215798365757
H   5.78824962538815     -7.67633218931421      0.00281691445618
H   -3.75352693944918     -8.85107156923607     -0.00353718114765
H   -1.28430440589466     -8.86087539249706     -0.00809229711623
H   1.18922157469537     -8.87416062058945     -0.00706194725726
H   3.65854661482387     -8.89086063405326     -0.00231318081200

    units angstrom      # Angstroms are the default
    no_reorient         # Geometry fixed, default
    symmetry c1         # C1 symmetry, default
}

set {
    scf_type DF         # Density fitting, faster than exact integrals
    freeze_core True    # Freeze core electrons
    basis jun-cc-pVDZ   # Jun-cc-pVDZ basis set, recommended for sSAPT0 in https://doi.org/10.1063/1.4867135
}

energy('ssapt0')        # Compute sSAPT0 energy, includes also SAPT0
--------------------------------------------------------------------------

  //              Dimer HF             //
    Molecular point group: c1
  Charge       = -1
  Multiplicity = 1
  Basis Set: JUN-CC-PVDZ
    Blend: JUN-CC-PVDZ
  Basis Set: (JUN-CC-PVDZ AUX)
    Blend: JUN-CC-PVDZ-JKFIT
  @DF-RHF Final Energy: -4073.10459094135331
    Total Energy =                      -4073.1045909413514892
 Dipole X            :         -0.0004517           -0.0000548           -0.0005065
 Dipole Y            :          0.0010399           -0.0002464            0.0007936
 Dipole Z            :         26.2495917          -35.7072564           -9.4576647
 Magnitude           :                                                    9.4576647
  //            Monomer A HF           //
    Molecular point group: c1
  Multiplicity = 1
  Basis Set: JUN-CC-PVDZ
    Blend: JUN-CC-PVDZ
  Basis Set: (JUN-CC-PVDZ AUX)
    Blend: JUN-CC-PVDZ-JKFIT
  @DF-RHF Final Energy:  -422.77159177345447
    Total Energy =                       -422.7715917734544746
  //            Monomer B HF           //
    Molecular point group: c1

    Geometry (in Angstrom), charge = 0, multiplicity = 1:

       Center              X                  Y                   Z               Mass
    ------------   -----------------  -----------------  -----------------  -----------------
      Gh(B)          -0.000201921932     0.000288800891     5.586777743709    11.009305360000
      Gh(F)          -0.000004162732     0.000014527991     6.999562743709    18.998403162730
      Gh(F)           1.147855837268     0.675795727991     5.115636743709    18.998403162730
      Gh(F)           0.011913897268    -1.331996472009     5.115838743709    18.998403162730
      Gh(F)          -1.159670162732     0.656088027991     5.115917743709    18.998403162730
         C           -3.668445426752     7.803766698073    -0.411356214955    12.000000000000
         C           -4.847602882078     7.131256359331    -0.413722789888    12.000000000000
         C           -4.894963461907     5.696344931522    -0.414295700986    12.000000000000
         C           -3.653744841505     4.980744868950    -0.406635259256    12.000000000000
         C           -2.409429284226     7.113995564665    -0.411161872695    12.000000000000
         C           -2.425481506836     5.681136478894    -0.418166761565    12.000000000000
         C           -1.194748179167     7.786158722300    -0.409689692153    12.000000000000
         C            0.037954866205     7.099436173748    -0.411860396458    12.000000000000
         C            0.030328424687     5.669504087695    -0.417343781374    12.000000000000
         C           -1.200988670637     4.969284875906    -0.408374047440    12.000000000000
         C            1.277953663083     7.772873971185    -0.410484547897    12.000000000000
         C            2.485353921992     7.087711413228    -0.412759035802    12.000000000000
         C            2.486124522185     5.654785338231    -0.419696784790    12.000000000000
         C            1.254078756912     4.956092641655    -0.408068843202    12.000000000000
         C            3.751710428674     7.763926678971    -0.412632184422    12.000000000000
         C            4.923561893453     7.078795304981    -0.414688665130    12.000000000000
         C            4.955603108594     5.643461991360    -0.414849077937    12.000000000000
         C            3.706797371473     4.941224736324    -0.409757517767    12.000000000000
         H           -3.658525300490     8.890841947126    -0.409671226705     1.007825032230
         H           -1.189217492488     8.874135615351    -0.405717815712     1.007825032230
         H            1.284290076155     8.860847963479    -0.406325723757     1.007825032230
         H            3.753537924068     8.851049806963    -0.411109660106     1.007825032230
         H            5.869954540475     7.613809362646    -0.415614032172     1.007825032230
         H           -5.788235870234     7.676316740925    -0.415282637244     1.007825032230
         C           -6.091978121428     4.993274541634    -0.416167941477    12.000000000000
         C           -6.128665643049     3.582594696789    -0.414966764448    12.000000000000
         C           -3.664583902777     3.564196707735    -0.417891859066    12.000000000000
         C           -4.894302367430     2.861095303891    -0.408722874080    12.000000000000
         C           -2.437339157630     2.847626185075    -0.406060080529    12.000000000000
         C           -1.209232020328     3.547901462969    -0.419739107321    12.000000000000
         C            1.247137409430     3.534695279420    -0.420547713726    12.000000000000
         C            0.015171876837     2.833126367296    -0.408863530502    12.000000000000
         C            2.467641009709     2.821304505246    -0.408763472378    12.000000000000
         C            3.702545311848     3.524674682415    -0.422251433221    12.000000000000
         C            6.144976223652     4.927586894122    -0.416082523149    12.000000000000
         C            6.166584196130     3.516599003933    -0.413915969712    12.000000000000
         C            4.924605795728     2.808422453345    -0.407377223475    12.000000000000
         H            7.089901346909     5.466902294214    -0.419844403998     1.007825032230
         H           -7.031045913833     5.542702480848    -0.420401156428     1.007825032230
         C           -7.339702203855     2.858426062570    -0.416593931890    12.000000000000
         C           -7.364886120791     1.470337899574    -0.414828393762    12.000000000000
         C           -4.903508771679     1.444441340151    -0.419544657954    12.000000000000
         C           -6.132261315343     0.739953885044    -0.407254613971    12.000000000000
         C           -3.676878963248     0.726711670664    -0.408916941554    12.000000000000
         C           -2.445660748797     1.429655661253    -0.419226651755    12.000000000000
         C           -1.223604844033     0.715339029625    -0.407797387224    12.000000000000
         C            0.007633706582     1.417397677228    -0.409331733506    12.000000000000
         C            1.231215645015     0.702131218578    -0.428158319163    12.000000000000
         C            2.460816937799     1.403306564116    -0.408653810272    12.000000000000
         C            3.684426091464     0.687212956203    -0.409482596549    12.000000000000
         C            4.918704738807     1.391749089180    -0.421884418185    12.000000000000
         C            7.369797915229     2.779496731175    -0.415676389504    12.000000000000
         C            7.380158503390     1.391232035846    -0.414129706659    12.000000000000
         C            6.139795376391     0.674133151191    -0.407801364847    12.000000000000
         H           -8.279194962078     3.407132569115    -0.420891484011     1.007825032230
         H            8.315109308748     3.318132624614    -0.419886965304     1.007825032230
         C           -8.591760100313     0.724847081035    -0.414487966145    12.000000000000
         C           -8.599028766435    -0.632625278238    -0.412364841562    12.000000000000
         C           -6.139817301850    -0.674122109163    -0.419354182897    12.000000000000
         C           -7.380188274869    -1.391251661591    -0.411938121356    12.000000000000
         C           -4.918688642988    -1.391740490039    -0.407013684747    12.000000000000
         C           -3.684442458416    -0.687222787745    -0.418045924812    12.000000000000
         C           -2.460821202979    -1.403330650834    -0.407502838622    12.000000000000
         C           -1.231166175052    -0.702159336890    -0.419623217414    12.000000000000
         C           -0.007573788119    -1.417404321420    -0.412166693111    12.000000000000
         C            1.223643553157    -0.715260849273    -0.402161071162    12.000000000000
         C            2.445666486600    -1.429628761016    -0.413911083922    12.000000000000
         C            3.676862540115    -0.726692903565    -0.418051668317    12.000000000000
         C            6.132244683688    -0.739964311859    -0.419579642529    12.000000000000
         C            4.903514982772    -1.444442992550    -0.405738567989    12.000000000000
         C            8.599010685959     0.632618394658    -0.414267590515    12.000000000000
         C            8.591741325369    -0.724836339203    -0.412531210253    12.000000000000
         C            7.364858601658    -1.470318137615    -0.412761386946    12.000000000000
         H           -9.528310134550     1.276861977183    -0.415957893109     1.007825032230
         H            9.541406811874     1.174587016435    -0.415319622776     1.007825032230
         C           -7.369842072500    -2.779530617943    -0.410129912934    12.000000000000
         C           -4.924603271782    -2.808422729350    -0.417861545370    12.000000000000
         C           -6.166626658399    -3.516637664835    -0.411559705211    12.000000000000
         C           -3.702514522437    -3.524667021130    -0.407537476184    12.000000000000
         C           -2.467651147846    -2.821311434813    -0.419582114541    12.000000000000
         C           -0.015137636839    -2.833127117409    -0.419300526032    12.000000000000
         C           -1.247126003958    -3.534717647572    -0.407736572624    12.000000000000
         C            1.209240906912    -3.547900150653    -0.405197542832    12.000000000000
         C            2.437331859423    -2.847627210185    -0.419337301143    12.000000000000
         C            4.894298181039    -2.861108440295    -0.418516561072    12.000000000000
         C            3.664611092309    -3.564205317541    -0.405637141131    12.000000000000
         C            6.128634852014    -3.582569529727    -0.412291299174    12.000000000000
         C            7.339668501964    -2.858398779380    -0.410776073092    12.000000000000
         H           -9.541453273991    -1.174548938674    -0.410995425389     1.007825032230
         H            9.528257705340    -1.276904545914    -0.411281402492     1.007825032230
         H           -8.315169206580    -3.318135325222    -0.405957684403     1.007825032230
         H            8.279150979760    -3.407126261903    -0.406436517109     1.007825032230
         C           -6.144998351434    -4.927632744793    -0.410233707151    12.000000000000
         C           -3.706787510729    -4.941247186127    -0.420054675239    12.000000000000
         C           -4.955594220733    -5.643479445504    -0.412087540594    12.000000000000
         C           -2.486125488958    -5.654771046419    -0.407115004194    12.000000000000
         C           -1.254062498212    -4.956107522011    -0.418290610180    12.000000000000
         C            1.201008411136    -4.969265860202    -0.417109485922    12.000000000000
         C           -0.030340837145    -5.669505775148    -0.409266286258    12.000000000000
         C            3.653745938597    -4.980729247424    -0.416351486174    12.000000000000
         C            2.425488533144    -5.681160107537    -0.406974555622    12.000000000000
         C            6.091961455079    -4.993243435396    -0.409997072500    12.000000000000
         C            4.894972281879    -5.696333892967    -0.411233268331    12.000000000000
         H           -7.089896550772    -5.466985314248    -0.405830945470     1.007825032230
         H            7.031051046468    -5.542644008342    -0.406417292737     1.007825032230
         C           -4.923549484930    -7.078806571687    -0.412642309499    12.000000000000
         C           -2.485346250970    -7.087713549939    -0.415152201935    12.000000000000
         C           -3.751690054511    -7.763932629646    -0.414957523010    12.000000000000
         C           -0.037953119720    -7.099450346479    -0.414936476787    12.000000000000
         C           -1.277960263133    -7.772889856676    -0.416921169549    12.000000000000
         C            2.409440157995    -7.114007484012    -0.414073275976    12.000000000000
         C            1.194745774421    -7.786170837572    -0.416225566858    12.000000000000
         C            4.847616889766    -7.131247582589    -0.411566461317    12.000000000000
         C            3.668467443144    -7.803773464953    -0.413914895680    12.000000000000
         H           -5.869944513148    -7.613816070051    -0.411098272633     1.007825032230
         H            5.788245462656    -7.676317661324    -0.410439341835     1.007825032230
         H           -3.753531102181    -8.851057041246    -0.416793437438     1.007825032230
         H           -1.284308568626    -8.860860864507    -0.421348553407     1.007825032230
         H            1.189217411964    -8.874146092599    -0.420318203548     1.007825032230
         H            3.658542452092    -8.890846106063    -0.415569437103     1.007825032230

  Charge       = 0
  Multiplicity = 1
  Basis Set: JUN-CC-PVDZ
    Blend: JUN-CC-PVDZ
  Basis Set: (JUN-CC-PVDZ AUX)
    Blend: JUN-CC-PVDZ-JKFIT

    Orbital Energies [Eh]
    ---------------------

    Doubly Occupied:

       1A    -11.264042     2A    -11.263727     3A    -11.263726
       4A    -11.263385     5A    -11.263383     6A    -11.263347
       7A    -11.263190     8A    -11.263164     9A    -11.263161
      10A    -11.263004    11A    -11.262844    12A    -11.262840
      13A    -11.262362    14A    -11.262360    15A    -11.262286
      16A    -11.262285    17A    -11.262235    18A    -11.262200
      19A    -11.262156    20A    -11.262117    21A    -11.262116
      22A    -11.261961    23A    -11.261957    24A    -11.261839
      25A    -11.261825    26A    -11.261811    27A    -11.261807
      28A    -11.261760    29A    -11.261752    30A    -11.261679
      31A    -11.261652    32A    -11.261649    33A    -11.261623
      34A    -11.261622    35A    -11.261600    36A    -11.261551
      37A    -11.261416    38A    -11.261405    39A    -11.261398
      40A    -11.261391    41A    -11.261386    42A    -11.261378
      43A    -11.261373    44A    -11.261358    45A    -11.261353
      46A    -11.261331    47A    -11.261327    48A    -11.261323
      49A    -11.261167    50A    -11.261136    51A    -11.261133
      52A    -11.261052    53A    -11.261051    54A    -11.260980
      55A    -11.260016    56A    -11.260002    57A    -11.260000
      58A    -11.259971    59A    -11.259969    60A    -11.259953
      61A    -11.259392    62A    -11.259367    63A    -11.259364
      64A    -11.259313    65A    -11.259310    66A    -11.259281
      67A    -11.259020    68A    -11.259002    69A    -11.259000
      70A    -11.258973    71A    -11.258971    72A    -11.258959
      73A    -11.254591    74A    -11.254589    75A    -11.254588
      76A    -11.254585    77A    -11.254580    78A    -11.254578
      79A    -11.253741    80A    -11.253739    81A    -11.253736
      82A    -11.253735    83A    -11.253732    84A    -11.253727
      85A    -11.253656    86A    -11.253654    87A    -11.253651
      88A    -11.253650    89A    -11.253648    90A    -11.253642
      91A    -11.253118    92A    -11.253117    93A    -11.253116
      94A    -11.253113    95A    -11.253108    96A    -11.253106
      97A     -1.254127    98A     -1.239139    99A     -1.239138
     100A     -1.220584   101A     -1.220579   102A     -1.215602
     103A     -1.201146   104A     -1.195715   105A     -1.188295
     106A     -1.188294   107A     -1.173866   108A     -1.173863
     109A     -1.155772   110A     -1.155768   111A     -1.152873
     112A     -1.144819   113A     -1.144817   114A     -1.128696
     115A     -1.114853   116A     -1.113261   117A     -1.112635
     118A     -1.112621   119A     -1.111710   120A     -1.088557
     121A     -1.088542   122A     -1.077057   123A     -1.077055
     124A     -1.067750   125A     -1.067721   126A     -1.065119
     127A     -1.046918   128A     -1.046910   129A     -1.040605
     130A     -1.038830   131A     -1.038829   132A     -1.025386
     133A     -1.021555   134A     -1.021505   135A     -1.007289
     136A     -1.006933   137A     -1.003907   138A     -1.000629
     139A     -1.000581   140A     -0.991165   141A     -0.971119
     142A     -0.971071   143A     -0.955988   144A     -0.955933
     145A     -0.905756   146A     -0.905714   147A     -0.905638
     148A     -0.905597   149A     -0.904511   150A     -0.892527
     151A     -0.892468   152A     -0.890512   153A     -0.890455
     154A     -0.889590   155A     -0.872318   156A     -0.869134
     157A     -0.851648   158A     -0.848008   159A     -0.847986
     160A     -0.845744   161A     -0.843151   162A     -0.834681
     163A     -0.834669   164A     -0.828211   165A     -0.828207
     166A     -0.784670   167A     -0.784659   168A     -0.783795
     169A     -0.783769   170A     -0.782416   171A     -0.782396
     172A     -0.782178   173A     -0.767107   174A     -0.760949
     175A     -0.750724   176A     -0.733584   177A     -0.727188
     178A     -0.727175   179A     -0.725211   180A     -0.724655
     181A     -0.724637   182A     -0.718650   183A     -0.713916
     184A     -0.713910   185A     -0.699690   186A     -0.699678
     187A     -0.686284   188A     -0.686058   189A     -0.686056
     190A     -0.682281   191A     -0.682270   192A     -0.678910
     193A     -0.653742   194A     -0.650990   195A     -0.650961
     196A     -0.649961   197A     -0.649946   198A     -0.649666
     199A     -0.641080   200A     -0.641054   201A     -0.640191
     202A     -0.639256   203A     -0.636155   204A     -0.636129
     205A     -0.629259   206A     -0.617683   207A     -0.615400
     208A     -0.615380   209A     -0.608911   210A     -0.608904
     211A     -0.599178   212A     -0.599139   213A     -0.598866
     214A     -0.598741   215A     -0.598715   216A     -0.598189
     217A     -0.595167   218A     -0.595154   219A     -0.594836
     220A     -0.594393   221A     -0.592082   222A     -0.592079
     223A     -0.587549   224A     -0.577875   225A     -0.577865
     226A     -0.575728   227A     -0.575725   228A     -0.573487
     229A     -0.569571   230A     -0.568287   231A     -0.568263
     232A     -0.566873   233A     -0.566863   234A     -0.560994
     235A     -0.558850   236A     -0.558831   237A     -0.558511
     238A     -0.554484   239A     -0.550624   240A     -0.547553
     241A     -0.544334   242A     -0.535034   243A     -0.534995
     244A     -0.533647   245A     -0.533625   246A     -0.528176
     247A     -0.528161   248A     -0.527947   249A     -0.517307
     250A     -0.517273   251A     -0.515420   252A     -0.515415
     253A     -0.509739   254A     -0.509723   255A     -0.498133
     256A     -0.496564   257A     -0.496538   258A     -0.493837
     259A     -0.493827   260A     -0.489471   261A     -0.481548
     262A     -0.477483   263A     -0.477480   264A     -0.474099
     265A     -0.469566   266A     -0.466644   267A     -0.466639
     268A     -0.458870   269A     -0.446849   270A     -0.446788
     271A     -0.441094   272A     -0.440820   273A     -0.440796
     274A     -0.434752   275A     -0.433968   276A     -0.407443
     277A     -0.407419   278A     -0.386479   279A     -0.386431
     280A     -0.385793   281A     -0.385792   282A     -0.383823
     283A     -0.354394   284A     -0.354378   285A     -0.350732
     286A     -0.338162   287A     -0.335661   288A     -0.335592
     289A     -0.332776   290A     -0.332769   291A     -0.307157
     292A     -0.302020   293A     -0.301957   294A     -0.300908
     295A     -0.286238   296A     -0.256523   297A     -0.253571
     298A     -0.253519   299A     -0.204330   300A     -0.204241

  @DF-RHF Final Energy: -3650.33779632873438

   => Energetics <=

    Nuclear Repulsion Energy =          15611.4211649754324753
    One-Electron Energy =              -36072.0824972132686526
    Two-Electron Energy =               16810.3235359091013379
    Total Energy =                      -3650.3377963287348393
 Dipole X            :         -0.0008966            0.0002304           -0.0006662
 Dipole Y            :          0.0010994           -0.0013052           -0.0002058
 Dipole Z            :        468.5568741         -468.5612945           -0.0044204
 Magnitude           :                                                    0.0044751

    SAPT Results
  --------------------------------------------------------------------------------------------------------
    Electrostatics                  9.75754243 [mEh]       6.12295031 [kcal/mol]      25.61842411 [kJ/mol]
      Elst10,r                      9.75754243 [mEh]       6.12295031 [kcal/mol]      25.61842411 [kJ/mol]

    Exchange                        0.00054909 [mEh]       0.00034456 [kcal/mol]       0.00144162 [kJ/mol]
      Exch10                        0.00054909 [mEh]       0.00034456 [kcal/mol]       0.00144162 [kJ/mol]
      Exch10(S^2)                   0.00054909 [mEh]       0.00034456 [kcal/mol]       0.00144165 [kJ/mol]

    Induction                      -4.96093068 [mEh]      -3.11303100 [kcal/mol]     -13.02492169 [kJ/mol]
      Ind20,r                      -4.99257245 [mEh]      -3.13288651 [kcal/mol]     -13.10799716 [kJ/mol]
      Exch-Ind20,r                  0.00091820 [mEh]       0.00057618 [kcal/mol]       0.00241073 [kJ/mol]
      delta HF,r (2)                0.03072357 [mEh]       0.01927933 [kcal/mol]       0.08066473 [kJ/mol]

    Dispersion                     -0.93365922 [mEh]      -0.58588000 [kcal/mol]      -2.45132194 [kJ/mol]
      Disp20                       -0.93467491 [mEh]      -0.58651736 [kcal/mol]      -2.45398865 [kJ/mol]
      Exch-Disp20                   0.00101570 [mEh]       0.00063736 [kcal/mol]       0.00266671 [kJ/mol]
      Disp20 (SS)                  -0.46733746 [mEh]      -0.29325868 [kcal/mol]      -1.22699432 [kJ/mol]
      Disp20 (OS)                  -0.46733746 [mEh]      -0.29325868 [kcal/mol]      -1.22699432 [kJ/mol]
      Exch-Disp20 (SS)              0.00078064 [mEh]       0.00048986 [kcal/mol]       0.00204958 [kJ/mol]
      Exch-Disp20 (OS)              0.00023505 [mEh]       0.00014750 [kcal/mol]       0.00061713 [kJ/mol]

  Total HF                          4.79716084 [mEh]       3.01026387 [kcal/mol]      12.59494404 [kJ/mol]
  Total SAPT0                       3.86350162 [mEh]       2.42438387 [kcal/mol]      10.14362210 [kJ/mol]

  Special recipe for scaled SAPT0 (see Manual):
    Electrostatics sSAPT0           9.75754243 [mEh]       6.12295031 [kcal/mol]      25.61842411 [kJ/mol]
    Exchange sSAPT0                 0.00054909 [mEh]       0.00034456 [kcal/mol]       0.00144162 [kJ/mol]
    Induction sSAPT0               -4.96093068 [mEh]      -3.11303100 [kcal/mol]     -13.02492169 [kJ/mol]
    Dispersion sSAPT0              -0.93365922 [mEh]      -0.58588000 [kcal/mol]      -2.45132194 [kJ/mol]
  Total sSAPT0                      3.86350162 [mEh]       2.42438387 [kcal/mol]      10.14362210 [kJ/mol]
  --------------------------------------------------------------------------------------------------------

*** Psi4 exiting successfully. Buy a developer a beer!
