                               Psi4 1.9 release

  ==> Input File <==

--------------------------------------------------------------------------
memory 32 GB # how much memory is available ! Depends on the nodes/cores !

molecule dimer {
# monomer A
-1 1    # Charge and multiplicity
B -1.977592e-04  2.742729e-04 5.600034
F  1.123153e-16  1.430594e-17 7.012819
F  1.147860e+00  6.757812e-01 5.128893
F  1.191806e-02 -1.332011e+00 5.129095
F -1.159666e+00  6.560735e-01 5.129174
--
# monomer B
0 1     # Charge and multiplicity
C   1.22531237526482      0.70753866091955      0.00613762728373
C   1.22532433589282     -0.70753852257020     -0.00619318228664
C   -0.00000567409046      1.41496628609039     -0.00672680580738
C   2.45644923379077      1.41832825917820      0.00902448468363
C   0.00001130712078     -1.41497612663474      0.00347275151708
C   -1.22530046906674      0.70754574598412      0.00838914760619
C   2.45643823516184     -1.41832293188077     -0.00843833914343
C   -0.00000085313587      2.83680140328112     -0.00913035594137
C   3.68182717731192      0.70931832800114     -0.00808954934571
C   2.45512052870677      2.83422403348893     -0.00819210630633
C   3.68182158506039     -0.70933346742900      0.00798293467272
C   -1.22531311884624     -0.70752714354401     -0.00512042085974
C   1.22670006104402      3.54346985599427      0.00816696660346
C   0.00000526469929     -2.83678176723568      0.00832091913869
C   -2.45643555300670      1.41831729028492      0.00842454345199
C   2.45512389762097     -2.83422965658853      0.00783102630520
C   -1.22671388474763      3.54346943575023      0.00827029982280
C   4.91451777504333      1.42717324448953     -0.00160886631602
C   3.69315067131765      3.54279566454522     -0.00155906667985
C   -2.45643712022637     -1.41831290883911     -0.00846337726810
C   1.22670532178455     -3.54347386990643     -0.00780316414624
C   -2.45512491866593      2.83421703463423     -0.00818572995999
C   4.91452486062398     -1.42718653794377      0.00136387641845
C   1.22142509354026      4.97013443726031      0.00150231067809
C   4.89300870916237      2.82518837202648     -0.00039219795739
C   -1.22669652864725     -3.54347062507680     -0.00753595973677
C   -3.68181849668397      0.70932533873199     -0.00807686886569
C   3.69314758099218     -3.54280096939050      0.00148176697923
C   -1.22143177215231      4.97012866986289      0.00168580605083
C   6.13477145276790      0.68054831910577     -0.00083909176631
C   3.65678936045204      4.97295361556775     -0.00065042889723
C   -2.45512642789169     -2.83421472106065      0.00758666850712
C   -3.68181869921921     -0.70932533146830      0.00810055625144
C   4.89301309775526     -2.82519973363176      0.00021895393805
C   -0.00000059327114      5.65044773803267      0.00045449734393
C   6.13477559217374     -0.68055448207492      0.00042622874941
C   2.47813196269732      5.65357712333155      0.00063835075260
C   1.22142288457925     -4.97012668293268     -0.00129718634452
C   -3.69316190412301      3.54279732619245     -0.00139355922051
C   -1.22142804110313     -4.97011793159564     -0.00140994817719
C   -4.91452132810043      1.42717581899491     -0.00153192130862
C   3.65678749952045     -4.97295485423912      0.00080007163680
C   -2.47813805026426      5.65357479452875      0.00092287576113
C   -3.69314125872231     -3.54278984697859      0.00136564082345
C   -4.91451200321153     -1.42718062802730      0.00139857359209
C   -0.00000552908399     -5.65043791501335      0.00005899322272
C   -4.89302000425900      2.82518897091939     -0.00040227981744
C   2.47812647313991     -5.65357317188818     -0.00029052915548
C   -3.65679823041642      4.97295655404175     -0.00047374852278
C   -4.89299899901461     -2.82519139505969      0.00006491824035
C   -2.47812801824129     -5.65356579800621     -0.00056571680280
C   -6.13477002348955      0.68054913825639     -0.00086464346868
C   -3.65678835334731     -4.97294365097028      0.00058578382008
C   -6.13476456307132     -0.68055354348201      0.00040575295444
H   5.83528897565761      3.36927626695423      0.00396712770529
H   7.07385965258860      1.22821762089947     -0.00037744837300
H   4.60066374401555      5.51238117445323     -0.00014522814529
H   5.83528386714679     -3.36930568472863     -0.00423551337640
H   -0.00001167146422      6.73853104613662     -0.00389474766392
H   7.07386165167227     -1.22822657074368     -0.00008250934481
H   2.47331421164041      6.74068466339473      0.00017162982210
H   4.60066897122302     -5.51237575717576      0.00039007446835
H   -2.47331820069565      6.74068209160650      0.00047297644710
H   -0.00000978838621     -6.73852780445195      0.00458867820736
H   -5.83530143450167      3.36927132229595      0.00410314985360
H   2.47330840367253     -6.74068500242887      0.00027980126949
H   -4.60067436136587      5.51237839860371      0.00002010017831
H   -5.83527902699321     -3.36928859177951     -0.00451481925734
H   -2.47329986759855     -6.74067870613986     -0.00016951527498
H   -7.07385728692578      1.22822084484047     -0.00046143985387
H   -4.60067330624313     -5.51236229778631      0.00021776644566
H   -7.07385645456741     -1.22822025997701     -0.00017736581114

    units angstrom      # Angstroms are the default
    no_reorient         # Geometry fixed, default
    symmetry c1         # C1 symmetry, default
}

set {
    scf_type DF         # Density fitting, faster than exact integrals
    freeze_core True    # Freeze core electrons
    basis jun-cc-pVDZ   # Jun-cc-pVDZ basis set, recommended for sSAPT0 in https://doi.org/10.1063/1.4867135
}

energy('ssapt0')        # Compute sSAPT0 energy, includes also SAPT0
--------------------------------------------------------------------------

  //              Dimer HF             //
    Molecular point group: c1
  Charge       = -1
  Multiplicity = 1
  Basis Set: JUN-CC-PVDZ
    Blend: JUN-CC-PVDZ
  Basis Set: (JUN-CC-PVDZ AUX)
    Blend: JUN-CC-PVDZ-JKFIT
  @DF-RHF Final Energy: -2478.65830931010441
    Total Energy =                      -2478.6583093101053237
 Dipole X            :         -0.0005435            0.0000481           -0.0004955
 Dipole Y            :          0.0010359           -0.0001453            0.0008906
 Dipole Z            :         25.9359335          -34.3297122           -8.3937787
 Magnitude           :                                                    8.3937788
  //            Monomer A HF           //
    Molecular point group: c1
  Multiplicity = 1
  Basis Set: JUN-CC-PVDZ
    Blend: JUN-CC-PVDZ
  Basis Set: (JUN-CC-PVDZ AUX)
    Blend: JUN-CC-PVDZ-JKFIT
  @DF-RHF Final Energy:  -422.77169250688945
    Total Energy =                       -422.7716925068894511
  //            Monomer B HF           //
    Molecular point group: c1

    Geometry (in Angstrom), charge = 0, multiplicity = 1:

       Center              X                  Y                   Z               Mass
    ------------   -----------------  -----------------  -----------------  -----------------
      Gh(B)          -0.000198161052     0.000273808717     4.953126071087    11.009305360000
      Gh(F)          -0.000000401852    -0.000000464183     6.365911071087    18.998403162730
      Gh(F)           1.147859598148     0.675780735817     4.481985071087    18.998403162730
      Gh(F)           0.011917658148    -1.332011464183     4.482187071087    18.998403162730
      Gh(F)          -1.159666401852     0.656073035817     4.482266071087    18.998403162730
         C            1.225311973413     0.707538196736    -0.640770301629    12.000000000000
         C            1.225323934041    -0.707538986754    -0.653101111199    12.000000000000
         C           -0.000006075942     1.414965821907    -0.653634734720    12.000000000000
         C            2.456448831939     1.418327794995    -0.637883444229    12.000000000000
         C            0.000010905269    -1.414976590818    -0.643435177395    12.000000000000
         C           -1.225300870919     0.707545281801    -0.638518781306    12.000000000000
         C            2.456437833310    -1.418323396064    -0.655346268056    12.000000000000
         C           -0.000001254988     2.836800939098    -0.656038284854    12.000000000000
         C            3.681826775460     0.709317863818    -0.654997478258    12.000000000000
         C            2.455120126855     2.834223569306    -0.655100035219    12.000000000000
         C            3.681821183209    -0.709333931612    -0.638924994240    12.000000000000
         C           -1.225313520698    -0.707527607727    -0.652028349772    12.000000000000
         C            1.226699659192     3.543469391811    -0.638740962309    12.000000000000
         C            0.000004862847    -2.836782231419    -0.638587009774    12.000000000000
         C           -2.456435954859     1.418316826102    -0.638483385461    12.000000000000
         C            2.455123495769    -2.834230120772    -0.639076902607    12.000000000000
         C           -1.226714286599     3.543468971567    -0.638637629090    12.000000000000
         C            4.914517373191     1.427172780306    -0.648516795229    12.000000000000
         C            3.693150269466     3.542795200362    -0.648466995592    12.000000000000
         C           -2.456437522078    -1.418313373022    -0.655371306181    12.000000000000
         C            1.226704919933    -3.543474334090    -0.654711093059    12.000000000000
         C           -2.455125320518     2.834216570451    -0.655093658873    12.000000000000
         C            4.914524458772    -1.427187002127    -0.645544052494    12.000000000000
         C            1.221424691688     4.970133973077    -0.645405618234    12.000000000000
         C            4.893008307311     2.825187907843    -0.647300126870    12.000000000000
         C           -1.226696930499    -3.543471089260    -0.654443888649    12.000000000000
         C           -3.681818898536     0.709324874549    -0.654984797778    12.000000000000
         C            3.693147179140    -3.542801433574    -0.645426161933    12.000000000000
         C           -1.221432174004     4.970128205680    -0.645222122862    12.000000000000
         C            6.134771050916     0.680547854922    -0.647747020679    12.000000000000
         C            3.656788958600     4.972953151384    -0.647558357810    12.000000000000
         C           -2.455126829744    -2.834215185244    -0.639321260405    12.000000000000
         C           -3.681819101071    -0.709325795652    -0.638807372661    12.000000000000
         C            4.893012695903    -2.825200197815    -0.646688974974    12.000000000000
         C           -0.000000995123     5.650447273849    -0.646453431569    12.000000000000
         C            6.134775190322    -0.680554946258    -0.646481700163    12.000000000000
         C            2.478131560845     5.653576659148    -0.646269578160    12.000000000000
         C            1.221422482727    -4.970127147116    -0.648205115257    12.000000000000
         C           -3.693162305975     3.542796862009    -0.648301488133    12.000000000000
         C           -1.221428442955    -4.970118395779    -0.648317877090    12.000000000000
         C           -4.914521729952     1.427175354812    -0.648439850221    12.000000000000
         C            3.656787097669    -4.972955318422    -0.646107857276    12.000000000000
         C           -2.478138452116     5.653574330345    -0.645985053151    12.000000000000
         C           -3.693141660574    -3.542790311162    -0.645542288089    12.000000000000
         C           -4.914512405063    -1.427181092211    -0.645509355320    12.000000000000
         C           -0.000005930936    -5.650438379197    -0.646848935690    12.000000000000
         C           -4.893020406111     2.825188506736    -0.647310208730    12.000000000000
         C            2.478126071288    -5.653573636072    -0.647198458068    12.000000000000
         C           -3.656798632268     4.972956089858    -0.647381677435    12.000000000000
         C           -4.892999400866    -2.825191859243    -0.646843010672    12.000000000000
         C           -2.478128420093    -5.653566262190    -0.647473645715    12.000000000000
         C           -6.134770425341     0.680548674073    -0.647772572381    12.000000000000
         C           -3.656788755199    -4.972944115154    -0.646322145092    12.000000000000
         C           -6.134764964923    -0.680554007665    -0.646502175958    12.000000000000
         H            5.835288573806     3.369275802771    -0.642940801207     1.007825032230
         H            7.073859250737     1.228217156716    -0.647285377286     1.007825032230
         H            4.600663342164     5.512380710270    -0.647053157058     1.007825032230
         H            5.835283465295    -3.369306148912    -0.651143442289     1.007825032230
         H           -0.000012073316     6.738530581953    -0.650802676576     1.007825032230
         H            7.073861249820    -1.228227034927    -0.646990438257     1.007825032230
         H            2.473313809789     6.740684199211    -0.646736299090     1.007825032230
         H            4.600668569371    -5.512376221359    -0.646517854444     1.007825032230
         H           -2.473318602548     6.740681627423    -0.646434952465     1.007825032230
         H           -0.000010190238    -6.738528268635    -0.642319250705     1.007825032230
         H           -5.835301836354     3.369270858113    -0.642804779059     1.007825032230
         H            2.473308001821    -6.740685466612    -0.646628127643     1.007825032230
         H           -4.600674763218     5.512377934420    -0.646887828734     1.007825032230
         H           -5.835279428845    -3.369289055963    -0.651422748170     1.007825032230
         H           -2.473300269450    -6.740679170323    -0.647077444188     1.007825032230
         H           -7.073857688778     1.228220380657    -0.647369368766     1.007825032230
         H           -4.600673708095    -5.512362761970    -0.646690162467     1.007825032230
         H           -7.073856856419    -1.228220724160    -0.647085294724     1.007825032230

  Charge       = 0
  Multiplicity = 1
  Basis Set: JUN-CC-PVDZ
    Blend: JUN-CC-PVDZ
  Basis Set: (JUN-CC-PVDZ AUX)
    Blend: JUN-CC-PVDZ-JKFIT

    Orbital Energies [Eh]
    ---------------------

    Doubly Occupied:

       1A    -11.260629     2A    -11.260186     3A    -11.260185
       4A    -11.259477     5A    -11.259477     6A    -11.259308
       7A    -11.259099     8A    -11.259022     9A    -11.259020
      10A    -11.258697    11A    -11.258693    12A    -11.258627
      13A    -11.258565    14A    -11.258560    15A    -11.258557
      16A    -11.258528    17A    -11.258522    18A    -11.258506
      19A    -11.258493    20A    -11.258487    21A    -11.258482
      22A    -11.258380    23A    -11.258377    24A    -11.258075
      25A    -11.257418    26A    -11.257356    27A    -11.257355
      28A    -11.257220    29A    -11.257219    30A    -11.257135
      31A    -11.256512    32A    -11.256441    33A    -11.256440
      34A    -11.256331    35A    -11.256331    36A    -11.256283
      37A    -11.252370    38A    -11.252370    39A    -11.252368
      40A    -11.252367    41A    -11.252365    42A    -11.252363
      43A    -11.251497    44A    -11.251494    45A    -11.251494
      46A    -11.251487    47A    -11.251486    48A    -11.251482
      49A    -11.250932    50A    -11.250931    51A    -11.250929
      52A    -11.250927    53A    -11.250926    54A    -11.250924
      55A     -1.244219    56A     -1.219958    57A     -1.219957
      58A     -1.189675    59A     -1.189667    60A     -1.181096
      61A     -1.157681    62A     -1.149109    63A     -1.135640
      64A     -1.135634    65A     -1.113314    66A     -1.113309
      67A     -1.082572    68A     -1.082565    69A     -1.078748
      70A     -1.066099    71A     -1.066095    72A     -1.039529
      73A     -1.024425    74A     -1.021921    75A     -1.021878
      76A     -1.017847    77A     -1.012910    78A     -0.987162
      79A     -0.987116    80A     -0.962003    81A     -0.961953
      82A     -0.894420    83A     -0.894393    84A     -0.888093
      85A     -0.886341    86A     -0.886283    87A     -0.881541
      88A     -0.881493    89A     -0.862026    90A     -0.837518
      91A     -0.818340    92A     -0.816765    93A     -0.812279
      94A     -0.812270    95A     -0.794810    96A     -0.794799
      97A     -0.746776    98A     -0.745004    99A     -0.733565
     100A     -0.733556   101A     -0.732307   102A     -0.732283
     103A     -0.716639   104A     -0.699101   105A     -0.699091
     106A     -0.693722   107A     -0.693706   108A     -0.661354
     109A     -0.653261   110A     -0.651308   111A     -0.650373
     112A     -0.650368   113A     -0.639484   114A     -0.639482
     115A     -0.629855   116A     -0.627665   117A     -0.627649
     118A     -0.606472   119A     -0.605905   120A     -0.601805
     121A     -0.599868   122A     -0.599837   123A     -0.593771
     124A     -0.591378   125A     -0.591368   126A     -0.585385
     127A     -0.576403   128A     -0.576397   129A     -0.567439
     130A     -0.567424   131A     -0.566101   132A     -0.566081
     133A     -0.558873   134A     -0.554973   135A     -0.554967
     136A     -0.538715   137A     -0.538713   138A     -0.538261
     139A     -0.538255   140A     -0.529846   141A     -0.528198
     142A     -0.523001   143A     -0.522994   144A     -0.500624
     145A     -0.495688   146A     -0.493360   147A     -0.487917
     148A     -0.485211   149A     -0.481892   150A     -0.481884
     151A     -0.470412   152A     -0.470394   153A     -0.451178
     154A     -0.451100   155A     -0.439158   156A     -0.439149
     157A     -0.404836   158A     -0.404813   159A     -0.403459
     160A     -0.375512   161A     -0.375510   162A     -0.349214
     163A     -0.337679   164A     -0.336646   165A     -0.336588
     166A     -0.311190   167A     -0.298183   168A     -0.284442
     169A     -0.284388   170A     -0.225013   171A     -0.224947

  @DF-RHF Final Energy: -2055.89211753653080

   => Energetics <=

    Nuclear Repulsion Energy =           6452.5568002797772351
    One-Electron Energy =              -15636.4427460852239165
    Two-Electron Energy =                7127.9938282689163316
    Total Energy =                      -2055.8921175365303498
 Dipole X            :          0.0000464            0.0000419            0.0000883
 Dipole Y            :          0.0000251           -0.0000426           -0.0000175
 Dipole Z            :        418.0837693         -418.0891974           -0.0054280
 Magnitude           :                                                    0.0054288

    SAPT Results
  --------------------------------------------------------------------------------------------------------
    Electrostatics                 10.00712938 [mEh]       6.27956849 [kcal/mol]      26.27371456 [kJ/mol]
      Elst10,r                     10.00712938 [mEh]       6.27956849 [kcal/mol]      26.27371456 [kJ/mol]

    Exchange                        0.00413606 [mEh]       0.00259542 [kcal/mol]       0.01085923 [kJ/mol]
      Exch10                        0.00413606 [mEh]       0.00259542 [kcal/mol]       0.01085923 [kJ/mol]
      Exch10(S^2)                   0.00413613 [mEh]       0.00259546 [kcal/mol]       0.01085940 [kJ/mol]

    Induction                      -4.51053212 [mEh]      -2.83040164 [kcal/mol]     -11.84240045 [kJ/mol]
      Ind20,r                      -4.55522426 [mEh]      -2.85844638 [kcal/mol]     -11.95973964 [kJ/mol]
      Exch-Ind20,r                  0.00259439 [mEh]       0.00162801 [kcal/mol]       0.00681158 [kJ/mol]
      delta HF,r (2)                0.04209774 [mEh]       0.02641673 [kcal/mol]       0.11052761 [kJ/mol]

    Dispersion                     -1.15395525 [mEh]      -0.72411785 [kcal/mol]      -3.02970909 [kJ/mol]
      Disp20                       -1.15713393 [mEh]      -0.72611250 [kcal/mol]      -3.03805470 [kJ/mol]
      Exch-Disp20                   0.00317868 [mEh]       0.00199465 [kcal/mol]       0.00834562 [kJ/mol]
      Disp20 (SS)                  -0.57856696 [mEh]      -0.36305625 [kcal/mol]      -1.51902735 [kJ/mol]
      Disp20 (OS)                  -0.57856696 [mEh]      -0.36305625 [kcal/mol]      -1.51902735 [kJ/mol]
      Exch-Disp20 (SS)              0.00242179 [mEh]       0.00151969 [kcal/mol]       0.00635840 [kJ/mol]
      Exch-Disp20 (OS)              0.00075689 [mEh]       0.00047496 [kcal/mol]       0.00198722 [kJ/mol]

  Total HF                          5.50073332 [mEh]       3.45176227 [kcal/mol]      14.44217333 [kJ/mol]
  Total SAPT0                       4.34677807 [mEh]       2.72764442 [kcal/mol]      11.41246425 [kJ/mol]

  Special recipe for scaled SAPT0 (see Manual):
    Electrostatics sSAPT0          10.00712938 [mEh]       6.27956849 [kcal/mol]      26.27371456 [kJ/mol]
    Exchange sSAPT0                 0.00413606 [mEh]       0.00259542 [kcal/mol]       0.01085923 [kJ/mol]
    Induction sSAPT0               -4.51053212 [mEh]      -2.83040164 [kcal/mol]     -11.84240045 [kJ/mol]
    Dispersion sSAPT0              -1.15395525 [mEh]      -0.72411785 [kcal/mol]      -3.02970909 [kJ/mol]
  Total sSAPT0                      4.34677807 [mEh]       2.72764442 [kcal/mol]      11.41246425 [kJ/mol]
  --------------------------------------------------------------------------------------------------------

*** Psi4 exiting successfully. Buy a developer a beer!
