                               Psi4 1.9 release

  ==> Input File <==

--------------------------------------------------------------------------
memory 64 GB # how much memory is available ! Depends on the nodes/cores !

molecule dimer {
# monomer A
-1 1    # Charge and multiplicity
B -1.977592e-04  2.742729e-04 -2.999966
F  1.123153e-16  1.430594e-17 -1.587181
F  1.147860e+00  6.757812e-01 -3.471107
F  1.191806e-02 -1.332011e+00 -3.470905
F -1.159666e+00  6.560735e-01 -3.470826
--
# monomer B
0 1     # Charge and multiplicity
C   -3.66844126402057      7.80375217008252      0.00190004133558
C   -4.84759871934653      7.13124183134024     -0.00046653359696
C   -4.89495929917518      5.69633040353158     -0.00103944469517
C   -3.65374067877320      4.98073034095895      0.00662099703436
C   -2.40942512149445      7.11398103667468      0.00209438359570
C   -2.42547734410473      5.68112195090346     -0.00491050527438
C   -1.19474401643570      7.78614419430947      0.00356656413763
C   0.03795902893699      7.09942164575698      0.00139585983271
C   0.03033258741920      5.66948955970466     -0.00408752508301
C   -1.20098450790502      4.96927034791531      0.00488220885047
C   1.27795782581485      7.77285944319479      0.00277170839332
C   2.48535808472416      7.08769688523756      0.00049722048857
C   2.48612868491717      5.65477081024076     -0.00644052849921
C   1.25408291964399      4.95607811366431      0.00518741308898
C   3.75171459140595      7.76391215098033      0.00062407186893
C   4.92356605618520      7.07878077698995     -0.00143240883900
C   4.95560727132542      5.64344746336949     -0.00159282164606
C   3.70680153420475      4.94121020833308      0.00349873852374
H   -3.65852113775815      8.89082741913536      0.00358502958574
H   -1.18921332975660      8.87412108735996      0.00753844057883
H   1.28429423888630      8.86083343548850      0.00693053253426
H   3.75354208679975      8.85103527897216      0.00214659618464
H   5.86995870320703      7.61379483465560     -0.00235777588134
H   -5.78823170750226      7.67630221293400     -0.00202638095293
C   -6.09197395869619      4.99326001364347     -0.00291168518608
C   -6.12866148031747      3.58258016879823     -0.00171050815740
C   -3.66457974004527      3.56418217974434     -0.00463560277484
C   -4.89429820469869      2.86108077590057      0.00453338221034
C   -2.43733499489796      2.84761165708481      0.00719617576166
C   -1.20922785759670      3.54788693497833     -0.00648285103018
C   1.24714157216223      3.53468075142962     -0.00729145743546
C   0.01517603956900      2.83311183930540      0.00439272578912
C   2.46764517244071      2.82128997725533      0.00449278391269
C   3.70254947457969      3.52466015442405     -0.00899517692985
C   6.14498038638375      4.92757236613191     -0.00282626685777
C   6.16658835886151      3.51658447594213     -0.00065971342101
C   4.92460995845939      2.80840792535402      0.00587903281610
H   7.08990550964105      5.46688776622306     -0.00658814770723
H   -7.03104175110130      5.54268795285765     -0.00714490013730
C   -7.33969804112295      2.85841153457957     -0.00333767559888
C   -7.36488195805880      1.47032337158330     -0.00157213747140
C   -4.90350460894690      1.44442681216000     -0.00628840166334
C   -6.13225715261081      0.73993935705394      0.00600164231964
C   -3.67687480051673      0.72669714267312      0.00433931473643
C   -2.44565658606518      1.42964113326212     -0.00597039546461
C   -1.22360068130162      0.71532450163492      0.00545886906656
C   0.00763786931376      1.41738314923765      0.00392452278437
C   1.23121980774686      0.70211669058719     -0.01490206287210
C   2.46082110053113      1.40329203612573      0.00460244601878
C   3.68443025419614      0.68719842821222      0.00377365974158
C   4.91870890153864      1.39173456118907     -0.00862816189375
C   7.36980207796101      2.77948220318441     -0.00242013321349
C   7.38016266612146      1.39121750785509     -0.00087345036788
C   6.13979953912259      0.67411862320065      0.00545489144369
H   -8.27919079934664      3.40711804112415     -0.00763522772059
H   8.31511347147953      3.31811809662368     -0.00663070901292
C   -8.59175593758115      0.72483255304480     -0.00123170985383
C   -8.59902460370342     -0.63263980622873      0.00089141472904
C   -6.13981313911873     -0.67413663715361     -0.00609792660607
C   -7.38018411213749     -1.39126618958160      0.00131813493501
C   -4.91868448025621     -1.39175501803000      0.00624257154343
C   -3.68443829568458     -0.68723731573599     -0.00478966852105
C   -2.46081704024768     -1.40334517882457      0.00575341766833
C   -1.23116201232071     -0.70217386488055     -0.00636696112346
C   -0.00756962538737     -1.41741884941102      0.00108956317991
C   1.22364771588843     -0.71527537726392      0.01109518512883
C   2.44567064933149     -1.42964328900682     -0.00065482763106
C   3.67686670284649     -0.72670743155550     -0.00479541202602
C   6.13224884641929     -0.73997883984993     -0.00632338623858
C   4.90351914550401     -1.44445752054090      0.00751768830159
C   8.59901484869081      0.63260386666793     -0.00101133422380
C   8.59174548810050     -0.72485086719319      0.00072504603735
C   7.36486276438985     -1.47033266560598      0.00049486934466
H   -9.52830597181814      1.27684744919284     -0.00270163681798
H   9.54141097460619      1.17457248844457     -0.00206336648518
C   -7.36983790976868     -2.77954514593389      0.00312634335708
C   -4.92459910905015     -2.80843725734101     -0.00460528907921
C   -6.16662249566744     -3.51665219282533      0.00169655107992
C   -3.70251035970491     -3.52468154912026      0.00571878010666
C   -2.46764698511392     -2.82132596280400     -0.00632585824990
C   -0.01513347410770     -2.83314164539971     -0.00604426974092
C   -1.24712184122656     -3.53473217556300      0.00551968366725
C   1.20924506964357     -3.54791467864352      0.00805871345849
C   2.43733602215464     -2.84764173817541     -0.00608104485234
C   4.89430234377080     -2.86112296828604     -0.00526030478103
C   3.66461525504104     -3.56421984553201      0.00761911515957
C   6.12863901474565     -3.58258405771778      0.00096495711699
C   7.33967266469532     -2.85841330737039      0.00248018319869
H   -9.54144911125902     -1.17456346666430      0.00226083090216
H   9.52826186807155     -1.27691907390448      0.00197485379837
H   -8.31516504384864     -3.31814985321231      0.00729857188773
H   8.27915514249207     -3.40714078989363      0.00681973918158
C   -6.14499418870218     -4.92764727278338      0.00302254913999
C   -3.70678334799751     -4.94126171411716     -0.00679841894792
C   -4.95559005800169     -5.64349397349412      0.00116871569699
C   -2.48612132622665     -5.65478557440947      0.00614125209662
C   -1.25405833548005     -4.95612205000132     -0.00503435388927
C   1.20101257386816     -4.96928038819302     -0.00385322963129
C   -0.03033667441341     -5.66952030313900      0.00398997003238
C   3.65375010132847     -4.98074377541453     -0.00309522988330
C   2.42549269587528     -5.68117463552727      0.00628170066869
C   6.09196561781097     -4.99325796338655      0.00325918379042
C   4.89497644461045     -5.69634842095790      0.00202298796027
H   -7.08989238804069     -5.46699984223871      0.00742531082125
H   7.03105520920009     -5.54265853633254      0.00683896355417
C   -4.92354532219813     -7.07882109967734      0.00061394679214
C   -2.48534208823777     -7.08772807792913     -0.00189594564379
C   -3.75168589177895     -7.76394715763627     -0.00170126671874
C   -0.03794895698805     -7.09946487446944     -0.00168022049625
C   -1.27795610040136     -7.77290438466689     -0.00366491325785
C   2.40944432072629     -7.11402201200282     -0.00081701968533
C   1.19474993715296     -7.78618536556242     -0.00296931056689
C   4.84762105249800     -7.13126211057943      0.00168979497423
C   3.66847160587561     -7.80378799294376     -0.00065863938960
H   -5.86994035041618     -7.61383059804164      0.00215798365757
H   5.78824962538815     -7.67633218931421      0.00281691445618
H   -3.75352693944918     -8.85107156923607     -0.00353718114765
H   -1.28430440589466     -8.86087539249706     -0.00809229711623
H   1.18922157469537     -8.87416062058945     -0.00706194725726
H   3.65854661482387     -8.89086063405326     -0.00231318081200

    units angstrom      # Angstroms are the default
    no_reorient         # Geometry fixed, default
    symmetry c1         # C1 symmetry, default
}

set {
    scf_type DF         # Density fitting, faster than exact integrals
    freeze_core True    # Freeze core electrons
    basis jun-cc-pVDZ   # Jun-cc-pVDZ basis set, recommended for sSAPT0 in https://doi.org/10.1063/1.4867135
}

energy('ssapt0')        # Compute sSAPT0 energy, includes also SAPT0
--------------------------------------------------------------------------

  //              Dimer HF             //
    Molecular point group: c1
  Charge       = -1
  Multiplicity = 1
  Basis Set: JUN-CC-PVDZ
    Blend: JUN-CC-PVDZ
  Basis Set: (JUN-CC-PVDZ AUX)
    Blend: JUN-CC-PVDZ-JKFIT
  @DF-RHF Final Energy: -4073.00065253128469
    Total Energy =                      -4073.0006525312855956
 Dipole X            :          0.0006489           -0.0000548            0.0005941
 Dipole Y            :          0.0002924           -0.0002464            0.0000461
 Dipole Z            :        -14.3936035           17.8530181            3.4594146
 Magnitude           :                                                    3.4594147
  //            Monomer A HF           //
    Molecular point group: c1
  Multiplicity = 1
  Basis Set: JUN-CC-PVDZ
    Blend: JUN-CC-PVDZ
  Basis Set: (JUN-CC-PVDZ AUX)
    Blend: JUN-CC-PVDZ-JKFIT
  @DF-RHF Final Energy:  -422.77534806553626
    Total Energy =                       -422.7753480655362637
  //            Monomer B HF           //
    Molecular point group: c1

    Geometry (in Angstrom), charge = 0, multiplicity = 1:

       Center              X                  Y                   Z               Mass
    ------------   -----------------  -----------------  -----------------  -----------------
      Gh(B)          -0.000201921932     0.000288800891    -2.793342573473    11.009305360000
      Gh(F)          -0.000004162732     0.000014527991    -1.380557573473    18.998403162730
      Gh(F)           1.147855837268     0.675795727991    -3.264483573473    18.998403162730
      Gh(F)           0.011913897268    -1.331996472009    -3.264281573473    18.998403162730
      Gh(F)          -1.159670162732     0.656088027991    -3.264202573473    18.998403162730
         C           -3.668445426752     7.803766698073     0.208523467862    12.000000000000
         C           -4.847602882078     7.131256359331     0.206156892930    12.000000000000
         C           -4.894963461907     5.696344931522     0.205583981832    12.000000000000
         C           -3.653744841505     4.980744868950     0.213244423561    12.000000000000
         C           -2.409429284226     7.113995564665     0.208717810123    12.000000000000
         C           -2.425481506836     5.681136478894     0.201712921252    12.000000000000
         C           -1.194748179167     7.786158722300     0.210189990664    12.000000000000
         C            0.037954866205     7.099436173748     0.208019286360    12.000000000000
         C            0.030328424687     5.669504087695     0.202535901444    12.000000000000
         C           -1.200988670637     4.969284875906     0.211505635377    12.000000000000
         C            1.277953663083     7.772873971185     0.209395134920    12.000000000000
         C            2.485353921992     7.087711413228     0.207120647015    12.000000000000
         C            2.486124522185     5.654785338231     0.200182898028    12.000000000000
         C            1.254078756912     4.956092641655     0.211810839616    12.000000000000
         C            3.751710428674     7.763926678971     0.207247498396    12.000000000000
         C            4.923561893453     7.078795304981     0.205191017688    12.000000000000
         C            4.955603108594     5.643461991360     0.205030604881    12.000000000000
         C            3.706797371473     4.941224736324     0.210122165051    12.000000000000
         H           -3.658525300490     8.890841947126     0.210208456113     1.007825032230
         H           -1.189217492488     8.874135615351     0.214161867106     1.007825032230
         H            1.284290076155     8.860847963479     0.213553959061     1.007825032230
         H            3.753537924068     8.851049806963     0.208770022711     1.007825032230
         H            5.869954540475     7.613809362646     0.204265650645     1.007825032230
         H           -5.788235870234     7.676316740925     0.204597045574     1.007825032230
         C           -6.091978121428     4.993274541634     0.203711741341    12.000000000000
         C           -6.128665643049     3.582594696789     0.204912918369    12.000000000000
         C           -3.664583902777     3.564196707735     0.201987823752    12.000000000000
         C           -4.894302367430     2.861095303891     0.211156808737    12.000000000000
         C           -2.437339157630     2.847626185075     0.213819602288    12.000000000000
         C           -1.209232020328     3.547901462969     0.200140575497    12.000000000000
         C            1.247137409430     3.534695279420     0.199331969091    12.000000000000
         C            0.015171876837     2.833126367296     0.211016152316    12.000000000000
         C            2.467641009709     2.821304505246     0.211116210440    12.000000000000
         C            3.702545311848     3.524674682415     0.197628249597    12.000000000000
         C            6.144976223652     4.927586894122     0.203797159669    12.000000000000
         C            6.166584196130     3.516599003933     0.205963713106    12.000000000000
         C            4.924605795728     2.808422453345     0.212502459343    12.000000000000
         H            7.089901346909     5.466902294214     0.200035278820     1.007825032230
         H           -7.031045913833     5.542702480848     0.199478526390     1.007825032230
         C           -7.339702203855     2.858426062570     0.203285750928    12.000000000000
         C           -7.364886120791     1.470337899574     0.205051289055    12.000000000000
         C           -4.903508771679     1.444441340151     0.200335024863    12.000000000000
         C           -6.132261315343     0.739953885044     0.212625068846    12.000000000000
         C           -3.676878963248     0.726711670664     0.210962741263    12.000000000000
         C           -2.445660748797     1.429655661253     0.200653031062    12.000000000000
         C           -1.223604844033     0.715339029625     0.212082295593    12.000000000000
         C            0.007633706582     1.417397677228     0.210547949311    12.000000000000
         C            1.231215645015     0.702131218578     0.191721363655    12.000000000000
         C            2.460816937799     1.403306564116     0.211225872546    12.000000000000
         C            3.684426091464     0.687212956203     0.210397086268    12.000000000000
         C            4.918704738807     1.391749089180     0.197995264633    12.000000000000
         C            7.369797915229     2.779496731175     0.204203293313    12.000000000000
         C            7.380158503390     1.391232035846     0.205749976159    12.000000000000
         C            6.139795376391     0.674133151191     0.212078317971    12.000000000000
         H           -8.279194962078     3.407132569115     0.198988198806     1.007825032230
         H            8.315109308748     3.318132624614     0.199992717514     1.007825032230
         C           -8.591760100313     0.724847081035     0.205391716673    12.000000000000
         C           -8.599028766435    -0.632625278238     0.207514841256    12.000000000000
         C           -6.139817301850    -0.674122109163     0.200525499921    12.000000000000
         C           -7.380188274869    -1.391251661591     0.207941561462    12.000000000000
         C           -4.918688642988    -1.391740490039     0.212865998070    12.000000000000
         C           -3.684442458416    -0.687222787745     0.201833758006    12.000000000000
         C           -2.460821202979    -1.403330650834     0.212376844195    12.000000000000
         C           -1.231166175052    -0.702159336890     0.200256465403    12.000000000000
         C           -0.007573788119    -1.417404321420     0.207712989707    12.000000000000
         C            1.223643553157    -0.715260849273     0.217718611656    12.000000000000
         C            2.445666486600    -1.429628761016     0.205968598896    12.000000000000
         C            3.676862540115    -0.726692903565     0.201828014501    12.000000000000
         C            6.132244683688    -0.739964311859     0.200300040288    12.000000000000
         C            4.903514982772    -1.444442992550     0.214141114828    12.000000000000
         C            8.599010685959     0.632618394658     0.205612092303    12.000000000000
         C            8.591741325369    -0.724836339203     0.207348472564    12.000000000000
         C            7.364858601658    -1.470318137615     0.207118295871    12.000000000000
         H           -9.528310134550     1.276861977183     0.203921789709     1.007825032230
         H            9.541406811874     1.174587016435     0.204560060042     1.007825032230
         C           -7.369842072500    -2.779530617943     0.209749769884    12.000000000000
         C           -4.924603271782    -2.808422729350     0.202018137448    12.000000000000
         C           -6.166626658399    -3.516637664835     0.208319977607    12.000000000000
         C           -3.702514522437    -3.524667021130     0.212342206633    12.000000000000
         C           -2.467651147846    -2.821311434813     0.200297568277    12.000000000000
         C           -0.015137636839    -2.833127117409     0.200579156786    12.000000000000
         C           -1.247126003958    -3.534717647572     0.212143110194    12.000000000000
         C            1.209240906912    -3.547900150653     0.214682139985    12.000000000000
         C            2.437331859423    -2.847627210185     0.200542381674    12.000000000000
         C            4.894298181039    -2.861108440295     0.201363121746    12.000000000000
         C            3.664611092309    -3.564205317541     0.214242541686    12.000000000000
         C            6.128634852014    -3.582569529727     0.207588383644    12.000000000000
         C            7.339668501964    -2.858398779380     0.209103609726    12.000000000000
         H           -9.541453273991    -1.174548938674     0.208884257429     1.007825032230
         H            9.528257705340    -1.276904545914     0.208598280325     1.007825032230
         H           -8.315169206580    -3.318135325222     0.213921998415     1.007825032230
         H            8.279150979760    -3.407126261903     0.213443165708     1.007825032230
         C           -6.144998351434    -4.927632744793     0.209645975667    12.000000000000
         C           -3.706787510729    -4.941247186127     0.199825007579    12.000000000000
         C           -4.955594220733    -5.643479445504     0.207792142224    12.000000000000
         C           -2.486125488958    -5.654771046419     0.212764678623    12.000000000000
         C           -1.254062498212    -4.956107522011     0.201589072638    12.000000000000
         C            1.201008411136    -4.969265860202     0.202770196896    12.000000000000
         C           -0.030340837145    -5.669505775148     0.210613396559    12.000000000000
         C            3.653745938597    -4.980729247424     0.203528196644    12.000000000000
         C            2.425488533144    -5.681160107537     0.212905127196    12.000000000000
         C            6.091961455079    -4.993243435396     0.209882610317    12.000000000000
         C            4.894972281879    -5.696333892967     0.208646414487    12.000000000000
         H           -7.089896550772    -5.466985314248     0.214048737348     1.007825032230
         H            7.031051046468    -5.542644008342     0.213462390081     1.007825032230
         C           -4.923549484930    -7.078806571687     0.207237373319    12.000000000000
         C           -2.485346250970    -7.087713549939     0.204727480883    12.000000000000
         C           -3.751690054511    -7.763932629646     0.204922159808    12.000000000000
         C           -0.037953119720    -7.099450346479     0.204943206031    12.000000000000
         C           -1.277960263133    -7.772889856676     0.202958513269    12.000000000000
         C            2.409440157995    -7.114007484012     0.205806406842    12.000000000000
         C            1.194745774421    -7.786170837572     0.203654115960    12.000000000000
         C            4.847616889766    -7.131247582589     0.208313221501    12.000000000000
         C            3.668467443144    -7.803773464953     0.205964787137    12.000000000000
         H           -5.869944513148    -7.613816070051     0.208781410184     1.007825032230
         H            5.788245462656    -7.676317661324     0.209440340983     1.007825032230
         H           -3.753531102181    -8.851057041246     0.203086245379     1.007825032230
         H           -1.284308568626    -8.860860864507     0.198531129411     1.007825032230
         H            1.189217411964    -8.874146092599     0.199561479270     1.007825032230
         H            3.658542452092    -8.890846106063     0.204310245715     1.007825032230

  Charge       = 0
  Multiplicity = 1
  Basis Set: JUN-CC-PVDZ
    Blend: JUN-CC-PVDZ
  Basis Set: (JUN-CC-PVDZ AUX)
    Blend: JUN-CC-PVDZ-JKFIT

    Orbital Energies [Eh]
    ---------------------

    Doubly Occupied:

       1A    -11.264106     2A    -11.263733     3A    -11.263724
       4A    -11.263285     5A    -11.263283     6A    -11.263247
       7A    -11.263106     8A    -11.263103     9A    -11.263093
      10A    -11.262855    11A    -11.262739    12A    -11.262735
      13A    -11.262242    14A    -11.262236    15A    -11.262226
      16A    -11.262225    17A    -11.262103    18A    -11.262098
      19A    -11.262050    20A    -11.262011    21A    -11.262009
      22A    -11.261911    23A    -11.261908    24A    -11.261749
      25A    -11.261743    26A    -11.261719    27A    -11.261711
      28A    -11.261676    29A    -11.261668    30A    -11.261570
      31A    -11.261560    32A    -11.261548    33A    -11.261545
      34A    -11.261516    35A    -11.261514    36A    -11.261492
      37A    -11.261328    38A    -11.261320    39A    -11.261315
      40A    -11.261310    41A    -11.261304    42A    -11.261300
      43A    -11.261280    44A    -11.261262    45A    -11.261259
      46A    -11.261235    47A    -11.261233    48A    -11.261226
      49A    -11.261037    50A    -11.261004    51A    -11.261001
      52A    -11.260923    53A    -11.260921    54A    -11.260865
      55A    -11.259910    56A    -11.259896    57A    -11.259894
      58A    -11.259864    59A    -11.259862    60A    -11.259846
      61A    -11.259281    62A    -11.259255    63A    -11.259252
      64A    -11.259200    65A    -11.259197    66A    -11.259167
      67A    -11.258912    68A    -11.258894    69A    -11.258892
      70A    -11.258864    71A    -11.258862    72A    -11.258849
      73A    -11.254528    74A    -11.254526    75A    -11.254523
      76A    -11.254521    77A    -11.254521    78A    -11.254519
      79A    -11.253650    80A    -11.253649    81A    -11.253647
      82A    -11.253646    83A    -11.253642    84A    -11.253641
      85A    -11.253565    86A    -11.253564    87A    -11.253562
      88A    -11.253561    89A    -11.253558    90A    -11.253557
      91A    -11.253056    92A    -11.253054    93A    -11.253050
      94A    -11.253050    95A    -11.253049    96A    -11.253047
      97A     -1.253886    98A     -1.238969    99A     -1.238967
     100A     -1.220449   101A     -1.220444   102A     -1.215384
     103A     -1.201034   104A     -1.195595   105A     -1.188094
     106A     -1.188092   107A     -1.173758   108A     -1.173755
     109A     -1.155596   110A     -1.155592   111A     -1.152664
     112A     -1.144717   113A     -1.144714   114A     -1.128545
     115A     -1.114684   116A     -1.113155   117A     -1.112436
     118A     -1.112421   119A     -1.111615   120A     -1.088406
     121A     -1.088391   122A     -1.076954   123A     -1.076953
     124A     -1.067586   125A     -1.067556   126A     -1.064931
     127A     -1.046785   128A     -1.046778   129A     -1.040459
     130A     -1.038729   131A     -1.038728   132A     -1.025203
     133A     -1.021328   134A     -1.021278   135A     -1.007168
     136A     -1.006796   137A     -1.003779   138A     -1.000456
     139A     -1.000408   140A     -0.991069   141A     -0.970960
     142A     -0.970912   143A     -0.955870   144A     -0.955814
     145A     -0.905546   146A     -0.905546   147A     -0.905505
     148A     -0.905504   149A     -0.904280   150A     -0.892327
     151A     -0.892267   152A     -0.890327   153A     -0.890270
     154A     -0.889429   155A     -0.872207   156A     -0.869054
     157A     -0.851527   158A     -0.847832   159A     -0.847810
     160A     -0.845562   161A     -0.842995   162A     -0.834549
     163A     -0.834536   164A     -0.828105   165A     -0.828102
     166A     -0.784529   167A     -0.784518   168A     -0.783627
     169A     -0.783601   170A     -0.782262   171A     -0.782241
     172A     -0.782000   173A     -0.766978   174A     -0.760756
     175A     -0.750530   176A     -0.733474   177A     -0.727052
     178A     -0.727039   179A     -0.725059   180A     -0.724526
     181A     -0.724507   182A     -0.718444   183A     -0.713731
     184A     -0.713725   185A     -0.699555   186A     -0.699543
     187A     -0.686076   188A     -0.685946   189A     -0.685943
     190A     -0.682161   191A     -0.682150   192A     -0.678734
     193A     -0.653599   194A     -0.650846   195A     -0.650816
     196A     -0.649770   197A     -0.649754   198A     -0.649555
     199A     -0.640881   200A     -0.640854   201A     -0.640076
     202A     -0.639154   203A     -0.635985   204A     -0.635958
     205A     -0.629122   206A     -0.617730   207A     -0.615292
     208A     -0.615272   209A     -0.608784   210A     -0.608778
     211A     -0.599110   212A     -0.599076   213A     -0.598716
     214A     -0.598580   215A     -0.598557   216A     -0.597986
     217A     -0.595054   218A     -0.595041   219A     -0.594699
     220A     -0.594184   221A     -0.591923   222A     -0.591920
     223A     -0.587345   224A     -0.577789   225A     -0.577779
     226A     -0.575642   227A     -0.575638   228A     -0.573366
     229A     -0.569583   230A     -0.568093   231A     -0.568070
     232A     -0.566725   233A     -0.566715   234A     -0.560905
     235A     -0.558684   236A     -0.558665   237A     -0.558418
     238A     -0.554343   239A     -0.550536   240A     -0.547467
     241A     -0.544248   242A     -0.535012   243A     -0.534975
     244A     -0.533510   245A     -0.533489   246A     -0.528060
     247A     -0.528045   248A     -0.527745   249A     -0.517116
     250A     -0.517082   251A     -0.515337   252A     -0.515331
     253A     -0.509627   254A     -0.509611   255A     -0.498009
     256A     -0.496425   257A     -0.496398   258A     -0.493745
     259A     -0.493734   260A     -0.489449   261A     -0.481436
     262A     -0.477406   263A     -0.477403   264A     -0.473976
     265A     -0.469413   266A     -0.466498   267A     -0.466493
     268A     -0.458767   269A     -0.446632   270A     -0.446572
     271A     -0.441006   272A     -0.440768   273A     -0.440742
     274A     -0.434673   275A     -0.433896   276A     -0.407344
     277A     -0.407320   278A     -0.386360   279A     -0.386311
     280A     -0.385723   281A     -0.385722   282A     -0.383728
     283A     -0.354316   284A     -0.354299   285A     -0.350623
     286A     -0.338029   287A     -0.335544   288A     -0.335475
     289A     -0.332698   290A     -0.332691   291A     -0.307016
     292A     -0.301882   293A     -0.301819   294A     -0.300839
     295A     -0.286143   296A     -0.256461   297A     -0.253434
     298A     -0.253381   299A     -0.204234   300A     -0.204145

  @DF-RHF Final Energy: -3650.34048737322200

   => Energetics <=

    Nuclear Repulsion Energy =          15611.4211649754324753
    One-Electron Energy =              -36072.1599142682098318
    Two-Electron Energy =               16810.3982619195558073
    Total Energy =                      -3650.3404873732215492
 Dipole X            :          0.0003780            0.0002304            0.0006085
 Dipole Y            :          0.0014192           -0.0013052            0.0001140
 Dipole Z            :       -234.2801152          234.2804042            0.0002891
 Magnitude           :                                                    0.0006832

    SAPT Results
  --------------------------------------------------------------------------------------------------------
    Electrostatics                -91.46814140 [mEh]     -57.39712528 [kcal/mol]    -240.14957217 [kJ/mol]
      Elst10,r                    -91.46814140 [mEh]     -57.39712528 [kcal/mol]    -240.14957217 [kJ/mol]

    Exchange                      244.31591640 [mEh]     153.31055214 [kcal/mol]     641.45135014 [kJ/mol]
      Exch10                      244.31591640 [mEh]     153.31055214 [kcal/mol]     641.45135014 [kJ/mol]
      Exch10(S^2)                 238.10227723 [mEh]     149.41143469 [kcal/mol]     625.13744274 [kJ/mol]

    Induction                     -37.66486752 [mEh]     -23.63506120 [kcal/mol]     -98.88909606 [kJ/mol]
      Ind20,r                    -138.90960761 [mEh]     -87.16709477 [kcal/mol]    -364.70712453 [kJ/mol]
      Exch-Ind20,r                 99.66228375 [mEh]      62.53902723 [kcal/mol]     261.66328994 [kJ/mol]
      delta HF,r (2)                1.58245633 [mEh]       0.99300634 [kcal/mol]       4.15473853 [kJ/mol]

    Dispersion                    -36.49304477 [mEh]     -22.89973132 [kcal/mol]     -95.81247585 [kJ/mol]
      Disp20                      -53.39394439 [mEh]     -33.50520594 [kcal/mol]    -140.18578167 [kJ/mol]
      Exch-Disp20                  16.90089961 [mEh]      10.60547462 [kcal/mol]      44.37330583 [kJ/mol]
      Disp20 (SS)                 -26.69697219 [mEh]     -16.75260297 [kcal/mol]     -70.09289084 [kJ/mol]
      Disp20 (OS)                 -26.69697219 [mEh]     -16.75260297 [kcal/mol]     -70.09289084 [kJ/mol]
      Exch-Disp20 (SS)              8.76102785 [mEh]       5.49762797 [kcal/mol]      23.00207544 [kJ/mol]
      Exch-Disp20 (OS)              8.13987177 [mEh]       5.10784665 [kcal/mol]      21.37123038 [kJ/mol]

  Total HF                        115.18290747 [mEh]      72.27836566 [kcal/mol]     302.41268191 [kJ/mol]
  Total SAPT0                      78.68986270 [mEh]      49.37863434 [kcal/mol]     206.60020606 [kJ/mol]

  Special recipe for scaled SAPT0 (see Manual):
    Electrostatics sSAPT0         -91.46814140 [mEh]     -57.39712528 [kcal/mol]    -240.14957217 [kJ/mol]
    Exchange sSAPT0               244.31591640 [mEh]     153.31055214 [kcal/mol]     641.45135014 [kJ/mol]
    Induction sSAPT0              -29.65696362 [mEh]     -18.61002563 [kcal/mol]     -77.86434725 [kJ/mol]
    Dispersion sSAPT0             -35.13505080 [mEh]     -22.04757724 [kcal/mol]     -92.24706318 [kJ/mol]
  Total sSAPT0                     88.05576058 [mEh]      55.25582398 [kcal/mol]     231.19036755 [kJ/mol]
  --------------------------------------------------------------------------------------------------------

*** Psi4 exiting successfully. Buy a developer a beer!
