                               Psi4 1.9 release

  ==> Input File <==

--------------------------------------------------------------------------
memory 80 GB # how much memory is available ! Depends on the nodes/cores !

molecule dimer {
# monomer A
-1 1    # Charge and multiplicity
B -1.977592e-04  2.742729e-04 -3.099966
F  1.123153e-16  1.430594e-17 -1.687181
F  1.147860e+00  6.757812e-01 -3.571107
F  1.191806e-02 -1.332011e+00 -3.570905
F -1.159666e+00  6.560735e-01 -3.570826
--
# monomer B
0 1     # Charge and multiplicity
C   -3.66844126402057      7.80375217008252      0.00190004133558
C   -4.84759871934653      7.13124183134024     -0.00046653359696
C   -4.89495929917518      5.69633040353158     -0.00103944469517
C   -3.65374067877320      4.98073034095895      0.00662099703436
C   -2.40942512149445      7.11398103667468      0.00209438359570
C   -2.42547734410473      5.68112195090346     -0.00491050527438
C   -1.19474401643570      7.78614419430947      0.00356656413763
C   0.03795902893699      7.09942164575698      0.00139585983271
C   0.03033258741920      5.66948955970466     -0.00408752508301
C   -1.20098450790502      4.96927034791531      0.00488220885047
C   1.27795782581485      7.77285944319479      0.00277170839332
C   2.48535808472416      7.08769688523756      0.00049722048857
C   2.48612868491717      5.65477081024076     -0.00644052849921
C   1.25408291964399      4.95607811366431      0.00518741308898
C   3.75171459140595      7.76391215098033      0.00062407186893
C   4.92356605618520      7.07878077698995     -0.00143240883900
C   4.95560727132542      5.64344746336949     -0.00159282164606
C   3.70680153420475      4.94121020833308      0.00349873852374
H   -3.65852113775815      8.89082741913536      0.00358502958574
H   -1.18921332975660      8.87412108735996      0.00753844057883
H   1.28429423888630      8.86083343548850      0.00693053253426
H   3.75354208679975      8.85103527897216      0.00214659618464
H   5.86995870320703      7.61379483465560     -0.00235777588134
H   -5.78823170750226      7.67630221293400     -0.00202638095293
C   -6.09197395869619      4.99326001364347     -0.00291168518608
C   -6.12866148031747      3.58258016879823     -0.00171050815740
C   -3.66457974004527      3.56418217974434     -0.00463560277484
C   -4.89429820469869      2.86108077590057      0.00453338221034
C   -2.43733499489796      2.84761165708481      0.00719617576166
C   -1.20922785759670      3.54788693497833     -0.00648285103018
C   1.24714157216223      3.53468075142962     -0.00729145743546
C   0.01517603956900      2.83311183930540      0.00439272578912
C   2.46764517244071      2.82128997725533      0.00449278391269
C   3.70254947457969      3.52466015442405     -0.00899517692985
C   6.14498038638375      4.92757236613191     -0.00282626685777
C   6.16658835886151      3.51658447594213     -0.00065971342101
C   4.92460995845939      2.80840792535402      0.00587903281610
H   7.08990550964105      5.46688776622306     -0.00658814770723
H   -7.03104175110130      5.54268795285765     -0.00714490013730
C   -7.33969804112295      2.85841153457957     -0.00333767559888
C   -7.36488195805880      1.47032337158330     -0.00157213747140
C   -4.90350460894690      1.44442681216000     -0.00628840166334
C   -6.13225715261081      0.73993935705394      0.00600164231964
C   -3.67687480051673      0.72669714267312      0.00433931473643
C   -2.44565658606518      1.42964113326212     -0.00597039546461
C   -1.22360068130162      0.71532450163492      0.00545886906656
C   0.00763786931376      1.41738314923765      0.00392452278437
C   1.23121980774686      0.70211669058719     -0.01490206287210
C   2.46082110053113      1.40329203612573      0.00460244601878
C   3.68443025419614      0.68719842821222      0.00377365974158
C   4.91870890153864      1.39173456118907     -0.00862816189375
C   7.36980207796101      2.77948220318441     -0.00242013321349
C   7.38016266612146      1.39121750785509     -0.00087345036788
C   6.13979953912259      0.67411862320065      0.00545489144369
H   -8.27919079934664      3.40711804112415     -0.00763522772059
H   8.31511347147953      3.31811809662368     -0.00663070901292
C   -8.59175593758115      0.72483255304480     -0.00123170985383
C   -8.59902460370342     -0.63263980622873      0.00089141472904
C   -6.13981313911873     -0.67413663715361     -0.00609792660607
C   -7.38018411213749     -1.39126618958160      0.00131813493501
C   -4.91868448025621     -1.39175501803000      0.00624257154343
C   -3.68443829568458     -0.68723731573599     -0.00478966852105
C   -2.46081704024768     -1.40334517882457      0.00575341766833
C   -1.23116201232071     -0.70217386488055     -0.00636696112346
C   -0.00756962538737     -1.41741884941102      0.00108956317991
C   1.22364771588843     -0.71527537726392      0.01109518512883
C   2.44567064933149     -1.42964328900682     -0.00065482763106
C   3.67686670284649     -0.72670743155550     -0.00479541202602
C   6.13224884641929     -0.73997883984993     -0.00632338623858
C   4.90351914550401     -1.44445752054090      0.00751768830159
C   8.59901484869081      0.63260386666793     -0.00101133422380
C   8.59174548810050     -0.72485086719319      0.00072504603735
C   7.36486276438985     -1.47033266560598      0.00049486934466
H   -9.52830597181814      1.27684744919284     -0.00270163681798
H   9.54141097460619      1.17457248844457     -0.00206336648518
C   -7.36983790976868     -2.77954514593389      0.00312634335708
C   -4.92459910905015     -2.80843725734101     -0.00460528907921
C   -6.16662249566744     -3.51665219282533      0.00169655107992
C   -3.70251035970491     -3.52468154912026      0.00571878010666
C   -2.46764698511392     -2.82132596280400     -0.00632585824990
C   -0.01513347410770     -2.83314164539971     -0.00604426974092
C   -1.24712184122656     -3.53473217556300      0.00551968366725
C   1.20924506964357     -3.54791467864352      0.00805871345849
C   2.43733602215464     -2.84764173817541     -0.00608104485234
C   4.89430234377080     -2.86112296828604     -0.00526030478103
C   3.66461525504104     -3.56421984553201      0.00761911515957
C   6.12863901474565     -3.58258405771778      0.00096495711699
C   7.33967266469532     -2.85841330737039      0.00248018319869
H   -9.54144911125902     -1.17456346666430      0.00226083090216
H   9.52826186807155     -1.27691907390448      0.00197485379837
H   -8.31516504384864     -3.31814985321231      0.00729857188773
H   8.27915514249207     -3.40714078989363      0.00681973918158
C   -6.14499418870218     -4.92764727278338      0.00302254913999
C   -3.70678334799751     -4.94126171411716     -0.00679841894792
C   -4.95559005800169     -5.64349397349412      0.00116871569699
C   -2.48612132622665     -5.65478557440947      0.00614125209662
C   -1.25405833548005     -4.95612205000132     -0.00503435388927
C   1.20101257386816     -4.96928038819302     -0.00385322963129
C   -0.03033667441341     -5.66952030313900      0.00398997003238
C   3.65375010132847     -4.98074377541453     -0.00309522988330
C   2.42549269587528     -5.68117463552727      0.00628170066869
C   6.09196561781097     -4.99325796338655      0.00325918379042
C   4.89497644461045     -5.69634842095790      0.00202298796027
H   -7.08989238804069     -5.46699984223871      0.00742531082125
H   7.03105520920009     -5.54265853633254      0.00683896355417
C   -4.92354532219813     -7.07882109967734      0.00061394679214
C   -2.48534208823777     -7.08772807792913     -0.00189594564379
C   -3.75168589177895     -7.76394715763627     -0.00170126671874
C   -0.03794895698805     -7.09946487446944     -0.00168022049625
C   -1.27795610040136     -7.77290438466689     -0.00366491325785
C   2.40944432072629     -7.11402201200282     -0.00081701968533
C   1.19474993715296     -7.78618536556242     -0.00296931056689
C   4.84762105249800     -7.13126211057943      0.00168979497423
C   3.66847160587561     -7.80378799294376     -0.00065863938960
H   -5.86994035041618     -7.61383059804164      0.00215798365757
H   5.78824962538815     -7.67633218931421      0.00281691445618
H   -3.75352693944918     -8.85107156923607     -0.00353718114765
H   -1.28430440589466     -8.86087539249706     -0.00809229711623
H   1.18922157469537     -8.87416062058945     -0.00706194725726
H   3.65854661482387     -8.89086063405326     -0.00231318081200

    units angstrom      # Angstroms are the default
    no_reorient         # Geometry fixed, default
    symmetry c1         # C1 symmetry, default
}

set {
    scf_type DF         # Density fitting, faster than exact integrals
    freeze_core True    # Freeze core electrons
    basis jun-cc-pVDZ   # Jun-cc-pVDZ basis set, recommended for sSAPT0 in https://doi.org/10.1063/1.4867135
}

energy('ssapt0')        # Compute sSAPT0 energy, includes also SAPT0
--------------------------------------------------------------------------

  //              Dimer HF             //
    Molecular point group: c1
  Charge       = -1
  Multiplicity = 1
  Basis Set: JUN-CC-PVDZ
    Blend: JUN-CC-PVDZ
  Basis Set: (JUN-CC-PVDZ AUX)
    Blend: JUN-CC-PVDZ-JKFIT
  @DF-RHF Final Energy: -4073.02952063254634
    Total Energy =                      -4073.0295206325463369
 Dipole X            :          0.0006810           -0.0000548            0.0006263
 Dipole Y            :          0.0003983           -0.0002464            0.0001520
 Dipole Z            :        -14.7706765           18.4481323            3.6774558
 Magnitude           :                                                    3.6774558
  //            Monomer A HF           //
    Molecular point group: c1
  Multiplicity = 1
  Basis Set: JUN-CC-PVDZ
    Blend: JUN-CC-PVDZ
  Basis Set: (JUN-CC-PVDZ AUX)
    Blend: JUN-CC-PVDZ-JKFIT
  @DF-RHF Final Energy:  -422.77495320204036
    Total Energy =                       -422.7749532020403649
  //            Monomer B HF           //
    Molecular point group: c1

    Geometry (in Angstrom), charge = 0, multiplicity = 1:

       Center              X                  Y                   Z               Mass
    ------------   -----------------  -----------------  -----------------  -----------------
      Gh(B)          -0.000201921932     0.000288800891    -2.886455021442    11.009305360000
      Gh(F)          -0.000004162732     0.000014527991    -1.473670021442    18.998403162730
      Gh(F)           1.147855837268     0.675795727991    -3.357596021442    18.998403162730
      Gh(F)           0.011913897268    -1.331996472009    -3.357394021442    18.998403162730
      Gh(F)          -1.159670162732     0.656088027991    -3.357315021442    18.998403162730
         C           -3.668445426752     7.803766698073     0.215411019894    12.000000000000
         C           -4.847602882078     7.131256359331     0.213044444961    12.000000000000
         C           -4.894963461907     5.696344931522     0.212471533863    12.000000000000
         C           -3.653744841505     4.980744868950     0.220131975592    12.000000000000
         C           -2.409429284226     7.113995564665     0.215605362154    12.000000000000
         C           -2.425481506836     5.681136478894     0.208600473284    12.000000000000
         C           -1.194748179167     7.786158722300     0.217077542696    12.000000000000
         C            0.037954866205     7.099436173748     0.214906838391    12.000000000000
         C            0.030328424687     5.669504087695     0.209423453475    12.000000000000
         C           -1.200988670637     4.969284875906     0.218393187409    12.000000000000
         C            1.277953663083     7.772873971185     0.216282686951    12.000000000000
         C            2.485353921992     7.087711413228     0.214008199047    12.000000000000
         C            2.486124522185     5.654785338231     0.207070450059    12.000000000000
         C            1.254078756912     4.956092641655     0.218698391647    12.000000000000
         C            3.751710428674     7.763926678971     0.214135050427    12.000000000000
         C            4.923561893453     7.078795304981     0.212078569719    12.000000000000
         C            4.955603108594     5.643461991360     0.211918156912    12.000000000000
         C            3.706797371473     4.941224736324     0.217009717082    12.000000000000
         H           -3.658525300490     8.890841947126     0.217096008144     1.007825032230
         H           -1.189217492488     8.874135615351     0.221049419137     1.007825032230
         H            1.284290076155     8.860847963479     0.220441511092     1.007825032230
         H            3.753537924068     8.851049806963     0.215657574743     1.007825032230
         H            5.869954540475     7.613809362646     0.211153202677     1.007825032230
         H           -5.788235870234     7.676316740925     0.211484597605     1.007825032230
         C           -6.091978121428     4.993274541634     0.210599293372    12.000000000000
         C           -6.128665643049     3.582594696789     0.211800470401    12.000000000000
         C           -3.664583902777     3.564196707735     0.208875375783    12.000000000000
         C           -4.894302367430     2.861095303891     0.218044360768    12.000000000000
         C           -2.437339157630     2.847626185075     0.220707154320    12.000000000000
         C           -1.209232020328     3.547901462969     0.207028127528    12.000000000000
         C            1.247137409430     3.534695279420     0.206219521123    12.000000000000
         C            0.015171876837     2.833126367296     0.217903704347    12.000000000000
         C            2.467641009709     2.821304505246     0.218003762471    12.000000000000
         C            3.702545311848     3.524674682415     0.204515801628    12.000000000000
         C            6.144976223652     4.927586894122     0.210684711700    12.000000000000
         C            6.166584196130     3.516599003933     0.212851265137    12.000000000000
         C            4.924605795728     2.808422453345     0.219390011374    12.000000000000
         H            7.089901346909     5.466902294214     0.206922830851     1.007825032230
         H           -7.031045913833     5.542702480848     0.206366078421     1.007825032230
         C           -7.339702203855     2.858426062570     0.210173302959    12.000000000000
         C           -7.364886120791     1.470337899574     0.211938841087    12.000000000000
         C           -4.903508771679     1.444441340151     0.207222576895    12.000000000000
         C           -6.132261315343     0.739953885044     0.219512620878    12.000000000000
         C           -3.676878963248     0.726711670664     0.217850293295    12.000000000000
         C           -2.445660748797     1.429655661253     0.207540583094    12.000000000000
         C           -1.223604844033     0.715339029625     0.218969847625    12.000000000000
         C            0.007633706582     1.417397677228     0.217435501343    12.000000000000
         C            1.231215645015     0.702131218578     0.198608915686    12.000000000000
         C            2.460816937799     1.403306564116     0.218113424577    12.000000000000
         C            3.684426091464     0.687212956203     0.217284638300    12.000000000000
         C            4.918704738807     1.391749089180     0.204882816664    12.000000000000
         C            7.369797915229     2.779496731175     0.211090845345    12.000000000000
         C            7.380158503390     1.391232035846     0.212637528190    12.000000000000
         C            6.139795376391     0.674133151191     0.218965870002    12.000000000000
         H           -8.279194962078     3.407132569115     0.205875750838     1.007825032230
         H            8.315109308748     3.318132624614     0.206880269545     1.007825032230
         C           -8.591760100313     0.724847081035     0.212279268704    12.000000000000
         C           -8.599028766435    -0.632625278238     0.214402393287    12.000000000000
         C           -6.139817301850    -0.674122109163     0.207413051952    12.000000000000
         C           -7.380188274869    -1.391251661591     0.214829113493    12.000000000000
         C           -4.918688642988    -1.391740490039     0.219753550102    12.000000000000
         C           -3.684442458416    -0.687222787745     0.208721310037    12.000000000000
         C           -2.460821202979    -1.403330650834     0.219264396226    12.000000000000
         C           -1.231166175052    -0.702159336890     0.207144017435    12.000000000000
         C           -0.007573788119    -1.417404321420     0.214600541738    12.000000000000
         C            1.223643553157    -0.715260849273     0.224606163687    12.000000000000
         C            2.445666486600    -1.429628761016     0.212856150927    12.000000000000
         C            3.676862540115    -0.726692903565     0.208715566532    12.000000000000
         C            6.132244683688    -0.739964311859     0.207187592320    12.000000000000
         C            4.903514982772    -1.444442992550     0.221028666860    12.000000000000
         C            8.599010685959     0.632618394658     0.212499644334    12.000000000000
         C            8.591741325369    -0.724836339203     0.214236024595    12.000000000000
         C            7.364858601658    -1.470318137615     0.214005847903    12.000000000000
         H           -9.528310134550     1.276861977183     0.210809341740     1.007825032230
         H            9.541406811874     1.174587016435     0.211447612073     1.007825032230
         C           -7.369842072500    -2.779530617943     0.216637321915    12.000000000000
         C           -4.924603271782    -2.808422729350     0.208905689479    12.000000000000
         C           -6.166626658399    -3.516637664835     0.215207529638    12.000000000000
         C           -3.702514522437    -3.524667021130     0.219229758665    12.000000000000
         C           -2.467651147846    -2.821311434813     0.207185120308    12.000000000000
         C           -0.015137636839    -2.833127117409     0.207466708817    12.000000000000
         C           -1.247126003958    -3.534717647572     0.219030662225    12.000000000000
         C            1.209240906912    -3.547900150653     0.221569692017    12.000000000000
         C            2.437331859423    -2.847627210185     0.207429933706    12.000000000000
         C            4.894298181039    -2.861108440295     0.208250673777    12.000000000000
         C            3.664611092309    -3.564205317541     0.221130093718    12.000000000000
         C            6.128634852014    -3.582569529727     0.214475935675    12.000000000000
         C            7.339668501964    -2.858398779380     0.215991161757    12.000000000000
         H           -9.541453273991    -1.174548938674     0.215771809460     1.007825032230
         H            9.528257705340    -1.276904545914     0.215485832357     1.007825032230
         H           -8.315169206580    -3.318135325222     0.220809550446     1.007825032230
         H            8.279150979760    -3.407126261903     0.220330717740     1.007825032230
         C           -6.144998351434    -4.927632744793     0.216533527698    12.000000000000
         C           -3.706787510729    -4.941247186127     0.206712559610    12.000000000000
         C           -4.955594220733    -5.643479445504     0.214679694255    12.000000000000
         C           -2.486125488958    -5.654771046419     0.219652230655    12.000000000000
         C           -1.254062498212    -4.956107522011     0.208476624669    12.000000000000
         C            1.201008411136    -4.969265860202     0.209657748927    12.000000000000
         C           -0.030340837145    -5.669505775148     0.217500948591    12.000000000000
         C            3.653745938597    -4.980729247424     0.210415748675    12.000000000000
         C            2.425488533144    -5.681160107537     0.219792679227    12.000000000000
         C            6.091961455079    -4.993243435396     0.216770162349    12.000000000000
         C            4.894972281879    -5.696333892967     0.215533966518    12.000000000000
         H           -7.089896550772    -5.466985314248     0.220936289379     1.007825032230
         H            7.031051046468    -5.542644008342     0.220349942112     1.007825032230
         C           -4.923549484930    -7.078806571687     0.214124925350    12.000000000000
         C           -2.485346250970    -7.087713549939     0.211615032914    12.000000000000
         C           -3.751690054511    -7.763932629646     0.211809711839    12.000000000000
         C           -0.037953119720    -7.099450346479     0.211830758062    12.000000000000
         C           -1.277960263133    -7.772889856676     0.209846065300    12.000000000000
         C            2.409440157995    -7.114007484012     0.212693958873    12.000000000000
         C            1.194745774421    -7.786170837572     0.210541667991    12.000000000000
         C            4.847616889766    -7.131247582589     0.215200773532    12.000000000000
         C            3.668467443144    -7.803773464953     0.212852339169    12.000000000000
         H           -5.869944513148    -7.613816070051     0.215668962216     1.007825032230
         H            5.788245462656    -7.676317661324     0.216327893014     1.007825032230
         H           -3.753531102181    -8.851057041246     0.209973797410     1.007825032230
         H           -1.284308568626    -8.860860864507     0.205418681442     1.007825032230
         H            1.189217411964    -8.874146092599     0.206449031301     1.007825032230
         H            3.658542452092    -8.890846106063     0.211197797746     1.007825032230

  Charge       = 0
  Multiplicity = 1
  Basis Set: JUN-CC-PVDZ
    Blend: JUN-CC-PVDZ
  Basis Set: (JUN-CC-PVDZ AUX)
    Blend: JUN-CC-PVDZ-JKFIT

    Orbital Energies [Eh]
    ---------------------

    Doubly Occupied:

       1A    -11.264133     2A    -11.263756     3A    -11.263745
       4A    -11.263294     5A    -11.263291     6A    -11.263254
       7A    -11.263118     8A    -11.263115     9A    -11.263101
      10A    -11.262859    11A    -11.262749    12A    -11.262744
      13A    -11.262251    14A    -11.262242    15A    -11.262240
      16A    -11.262236    17A    -11.262112    18A    -11.262103
      19A    -11.262056    20A    -11.262017    21A    -11.262015
      22A    -11.261922    23A    -11.261918    24A    -11.261758
      25A    -11.261748    26A    -11.261724    27A    -11.261716
      28A    -11.261682    29A    -11.261673    30A    -11.261578
      31A    -11.261574    32A    -11.261554    33A    -11.261551
      34A    -11.261521    35A    -11.261518    36A    -11.261497
      37A    -11.261332    38A    -11.261324    39A    -11.261318
      40A    -11.261313    41A    -11.261308    42A    -11.261304
      43A    -11.261285    44A    -11.261267    45A    -11.261263
      46A    -11.261239    47A    -11.261237    48A    -11.261230
      49A    -11.261042    50A    -11.261009    51A    -11.261005
      52A    -11.260928    53A    -11.260927    54A    -11.260871
      55A    -11.259915    56A    -11.259901    57A    -11.259899
      58A    -11.259869    59A    -11.259867    60A    -11.259851
      61A    -11.259286    62A    -11.259260    63A    -11.259257
      64A    -11.259205    65A    -11.259202    66A    -11.259172
      67A    -11.258917    68A    -11.258899    69A    -11.258897
      70A    -11.258869    71A    -11.258867    72A    -11.258854
      73A    -11.254531    74A    -11.254529    75A    -11.254525
      76A    -11.254524    77A    -11.254524    78A    -11.254522
      79A    -11.253654    80A    -11.253653    81A    -11.253651
      82A    -11.253650    83A    -11.253647    84A    -11.253645
      85A    -11.253569    86A    -11.253568    87A    -11.253566
      88A    -11.253565    89A    -11.253562    90A    -11.253561
      91A    -11.253059    92A    -11.253057    93A    -11.253053
      94A    -11.253052    95A    -11.253052    96A    -11.253050
      97A     -1.253899    98A     -1.238976    99A     -1.238975
     100A     -1.220455   101A     -1.220450   102A     -1.215400
     103A     -1.201039   104A     -1.195600   105A     -1.188103
     106A     -1.188101   107A     -1.173763   108A     -1.173760
     109A     -1.155603   110A     -1.155599   111A     -1.152682
     112A     -1.144722   113A     -1.144719   114A     -1.128552
     115A     -1.114691   116A     -1.113161   117A     -1.112447
     118A     -1.112432   119A     -1.111620   120A     -1.088412
     121A     -1.088397   122A     -1.076959   123A     -1.076958
     124A     -1.067592   125A     -1.067563   126A     -1.064945
     127A     -1.046792   128A     -1.046784   129A     -1.040465
     130A     -1.038733   131A     -1.038732   132A     -1.025210
     133A     -1.021343   134A     -1.021293   135A     -1.007174
     136A     -1.006802   137A     -1.003784   138A     -1.000463
     139A     -1.000415   140A     -0.991073   141A     -0.970970
     142A     -0.970922   143A     -0.955875   144A     -0.955820
     145A     -0.905555   146A     -0.905550   147A     -0.905513
     148A     -0.905509   149A     -0.904297   150A     -0.892337
     151A     -0.892278   152A     -0.890336   153A     -0.890278
     154A     -0.889436   155A     -0.872213   156A     -0.869058
     157A     -0.851532   158A     -0.847842   159A     -0.847820
     160A     -0.845569   161A     -0.843001   162A     -0.834554
     163A     -0.834541   164A     -0.828111   165A     -0.828107
     166A     -0.784536   167A     -0.784525   168A     -0.783636
     169A     -0.783609   170A     -0.782269   171A     -0.782249
     172A     -0.782011   173A     -0.766984   174A     -0.760767
     175A     -0.750538   176A     -0.733479   177A     -0.727059
     178A     -0.727045   179A     -0.725066   180A     -0.724531
     181A     -0.724513   182A     -0.718452   183A     -0.713742
     184A     -0.713736   185A     -0.699560   186A     -0.699548
     187A     -0.686090   188A     -0.685951   189A     -0.685948
     190A     -0.682166   191A     -0.682156   192A     -0.678742
     193A     -0.653605   194A     -0.650853   195A     -0.650823
     196A     -0.649780   197A     -0.649764   198A     -0.649560
     199A     -0.640892   200A     -0.640865   201A     -0.640081
     202A     -0.639159   203A     -0.635992   204A     -0.635965
     205A     -0.629128   206A     -0.617731   207A     -0.615297
     208A     -0.615277   209A     -0.608790   210A     -0.608784
     211A     -0.599111   212A     -0.599077   213A     -0.598724
     214A     -0.598587   215A     -0.598564   216A     -0.597996
     217A     -0.595059   218A     -0.595046   219A     -0.594704
     220A     -0.594194   221A     -0.591931   222A     -0.591928
     223A     -0.587353   224A     -0.577793   225A     -0.577783
     226A     -0.575645   227A     -0.575641   228A     -0.573371
     229A     -0.569584   230A     -0.568105   231A     -0.568082
     232A     -0.566732   233A     -0.566722   234A     -0.560910
     235A     -0.558691   236A     -0.558672   237A     -0.558422
     238A     -0.554349   239A     -0.550540   240A     -0.547471
     241A     -0.544251   242A     -0.535013   243A     -0.534976
     244A     -0.533517   245A     -0.533496   246A     -0.528066
     247A     -0.528051   248A     -0.527755   249A     -0.517126
     250A     -0.517092   251A     -0.515340   252A     -0.515334
     253A     -0.509632   254A     -0.509616   255A     -0.498014
     256A     -0.496432   257A     -0.496405   258A     -0.493748
     259A     -0.493736   260A     -0.489447   261A     -0.481441
     262A     -0.477409   263A     -0.477406   264A     -0.473981
     265A     -0.469420   266A     -0.466504   267A     -0.466500
     268A     -0.458771   269A     -0.446643   270A     -0.446583
     271A     -0.441009   272A     -0.440774   273A     -0.440748
     274A     -0.434677   275A     -0.433899   276A     -0.407348
     277A     -0.407324   278A     -0.386365   279A     -0.386316
     280A     -0.385727   281A     -0.385725   282A     -0.383729
     283A     -0.354320   284A     -0.354304   285A     -0.350627
     286A     -0.338030   287A     -0.335556   288A     -0.335487
     289A     -0.332701   290A     -0.332694   291A     -0.307022
     292A     -0.301886   293A     -0.301823   294A     -0.300842
     295A     -0.286147   296A     -0.256464   297A     -0.253442
     298A     -0.253390   299A     -0.204238   300A     -0.204149

  @DF-RHF Final Energy: -3650.34032401550849

   => Energetics <=

    Nuclear Repulsion Energy =          15611.4211649754324753
    One-Electron Energy =              -36072.1558014270267449
    Two-Electron Energy =               16810.3943124360848742
    Total Energy =                      -3650.3403240155093954
 Dipole X            :          0.0003533            0.0002304            0.0005837
 Dipole Y            :          0.0014222           -0.0013052            0.0001170
 Dipole Z            :       -242.0889920          242.0897565            0.0007644
 Magnitude           :                                                    0.0009689

    SAPT Results
  --------------------------------------------------------------------------------------------------------
    Electrostatics                -67.36841190 [mEh]     -42.27431670 [kcal/mol]    -176.87574108 [kJ/mol]
      Elst10,r                    -67.36841190 [mEh]     -42.27431670 [kcal/mol]    -176.87574108 [kJ/mol]

    Exchange                      188.10653684 [mEh]     118.03863395 [kcal/mol]     493.87364443 [kJ/mol]
      Exch10                      188.10653684 [mEh]     118.03863395 [kcal/mol]     493.87364443 [kJ/mol]
      Exch10(S^2)                 184.34621052 [mEh]     115.67899355 [kcal/mol]     484.00090903 [kJ/mol]

    Induction                     -34.98153994 [mEh]     -21.95124772 [kcal/mol]     -91.84402045 [kJ/mol]
      Ind20,r                    -108.44046486 [mEh]     -68.04741904 [kcal/mol]    -284.71040125 [kJ/mol]
      Exch-Ind20,r                 75.16853023 [mEh]      47.16896485 [kcal/mol]     197.35494892 [kJ/mol]
      delta HF,r (2)               -1.70960531 [mEh]      -1.07279353 [kcal/mol]      -4.48856812 [kJ/mol]

    Dispersion                    -31.58022182 [mEh]     -19.81688838 [kcal/mol]     -82.91386097 [kJ/mol]
      Disp20                      -45.21471810 [mEh]     -28.37266396 [kcal/mol]    -118.71122602 [kJ/mol]
      Exch-Disp20                  13.63449628 [mEh]       8.55577558 [kcal/mol]      35.79736504 [kJ/mol]
      Disp20 (SS)                 -22.60735905 [mEh]     -14.18633198 [kcal/mol]     -59.35561301 [kJ/mol]
      Disp20 (OS)                 -22.60735905 [mEh]     -14.18633198 [kcal/mol]     -59.35561301 [kJ/mol]
      Exch-Disp20 (SS)              7.16134760 [mEh]       4.49381346 [kcal/mol]      18.80211553 [kJ/mol]
      Exch-Disp20 (OS)              6.47314868 [mEh]       4.06196212 [kcal/mol]      16.99524951 [kJ/mol]

  Total HF                         85.75658500 [mEh]      53.81306953 [kcal/mol]     225.15388290 [kJ/mol]
  Total SAPT0                      54.17636318 [mEh]      33.99618115 [kcal/mol]     142.24002193 [kJ/mol]

  Special recipe for scaled SAPT0 (see Manual):
    Electrostatics sSAPT0         -67.36841190 [mEh]     -42.27431670 [kcal/mol]    -176.87574108 [kJ/mol]
    Exchange sSAPT0               188.10653684 [mEh]     118.03863395 [kcal/mol]     493.87364443 [kJ/mol]
    Induction sSAPT0              -30.28716976 [mEh]     -19.00548596 [kcal/mol]     -79.51895324 [kJ/mol]
    Dispersion sSAPT0             -30.72873021 [mEh]     -19.28256933 [kcal/mol]     -80.67827006 [kJ/mol]
  Total sSAPT0                     59.72222497 [mEh]      37.47626196 [kcal/mol]     156.80068006 [kJ/mol]
  --------------------------------------------------------------------------------------------------------

*** Psi4 exiting successfully. Buy a developer a beer!
