                               Psi4 1.9 release

  ==> Input File <==

--------------------------------------------------------------------------
memory 32 GB # how much memory is available ! Depends on the nodes/cores !

molecule dimer {
# monomer A
-1 1    # Charge and multiplicity
B -1.977592e-04  2.742729e-04 4.000034
F  1.123153e-16  1.430594e-17 5.412819
F  1.147860e+00  6.757812e-01 3.528893
F  1.191806e-02 -1.332011e+00 3.529095
F -1.159666e+00  6.560735e-01 3.529174
--
# monomer B
0 1     # Charge and multiplicity
C   1.22531237526482      0.70753866091955      0.00613762728373
C   1.22532433589282     -0.70753852257020     -0.00619318228664
C   -0.00000567409046      1.41496628609039     -0.00672680580738
C   2.45644923379077      1.41832825917820      0.00902448468363
C   0.00001130712078     -1.41497612663474      0.00347275151708
C   -1.22530046906674      0.70754574598412      0.00838914760619
C   2.45643823516184     -1.41832293188077     -0.00843833914343
C   -0.00000085313587      2.83680140328112     -0.00913035594137
C   3.68182717731192      0.70931832800114     -0.00808954934571
C   2.45512052870677      2.83422403348893     -0.00819210630633
C   3.68182158506039     -0.70933346742900      0.00798293467272
C   -1.22531311884624     -0.70752714354401     -0.00512042085974
C   1.22670006104402      3.54346985599427      0.00816696660346
C   0.00000526469929     -2.83678176723568      0.00832091913869
C   -2.45643555300670      1.41831729028492      0.00842454345199
C   2.45512389762097     -2.83422965658853      0.00783102630520
C   -1.22671388474763      3.54346943575023      0.00827029982280
C   4.91451777504333      1.42717324448953     -0.00160886631602
C   3.69315067131765      3.54279566454522     -0.00155906667985
C   -2.45643712022637     -1.41831290883911     -0.00846337726810
C   1.22670532178455     -3.54347386990643     -0.00780316414624
C   -2.45512491866593      2.83421703463423     -0.00818572995999
C   4.91452486062398     -1.42718653794377      0.00136387641845
C   1.22142509354026      4.97013443726031      0.00150231067809
C   4.89300870916237      2.82518837202648     -0.00039219795739
C   -1.22669652864725     -3.54347062507680     -0.00753595973677
C   -3.68181849668397      0.70932533873199     -0.00807686886569
C   3.69314758099218     -3.54280096939050      0.00148176697923
C   -1.22143177215231      4.97012866986289      0.00168580605083
C   6.13477145276790      0.68054831910577     -0.00083909176631
C   3.65678936045204      4.97295361556775     -0.00065042889723
C   -2.45512642789169     -2.83421472106065      0.00758666850712
C   -3.68181869921921     -0.70932533146830      0.00810055625144
C   4.89301309775526     -2.82519973363176      0.00021895393805
C   -0.00000059327114      5.65044773803267      0.00045449734393
C   6.13477559217374     -0.68055448207492      0.00042622874941
C   2.47813196269732      5.65357712333155      0.00063835075260
C   1.22142288457925     -4.97012668293268     -0.00129718634452
C   -3.69316190412301      3.54279732619245     -0.00139355922051
C   -1.22142804110313     -4.97011793159564     -0.00140994817719
C   -4.91452132810043      1.42717581899491     -0.00153192130862
C   3.65678749952045     -4.97295485423912      0.00080007163680
C   -2.47813805026426      5.65357479452875      0.00092287576113
C   -3.69314125872231     -3.54278984697859      0.00136564082345
C   -4.91451200321153     -1.42718062802730      0.00139857359209
C   -0.00000552908399     -5.65043791501335      0.00005899322272
C   -4.89302000425900      2.82518897091939     -0.00040227981744
C   2.47812647313991     -5.65357317188818     -0.00029052915548
C   -3.65679823041642      4.97295655404175     -0.00047374852278
C   -4.89299899901461     -2.82519139505969      0.00006491824035
C   -2.47812801824129     -5.65356579800621     -0.00056571680280
C   -6.13477002348955      0.68054913825639     -0.00086464346868
C   -3.65678835334731     -4.97294365097028      0.00058578382008
C   -6.13476456307132     -0.68055354348201      0.00040575295444
H   5.83528897565761      3.36927626695423      0.00396712770529
H   7.07385965258860      1.22821762089947     -0.00037744837300
H   4.60066374401555      5.51238117445323     -0.00014522814529
H   5.83528386714679     -3.36930568472863     -0.00423551337640
H   -0.00001167146422      6.73853104613662     -0.00389474766392
H   7.07386165167227     -1.22822657074368     -0.00008250934481
H   2.47331421164041      6.74068466339473      0.00017162982210
H   4.60066897122302     -5.51237575717576      0.00039007446835
H   -2.47331820069565      6.74068209160650      0.00047297644710
H   -0.00000978838621     -6.73852780445195      0.00458867820736
H   -5.83530143450167      3.36927132229595      0.00410314985360
H   2.47330840367253     -6.74068500242887      0.00027980126949
H   -4.60067436136587      5.51237839860371      0.00002010017831
H   -5.83527902699321     -3.36928859177951     -0.00451481925734
H   -2.47329986759855     -6.74067870613986     -0.00016951527498
H   -7.07385728692578      1.22822084484047     -0.00046143985387
H   -4.60067330624313     -5.51236229778631      0.00021776644566
H   -7.07385645456741     -1.22822025997701     -0.00017736581114

    units angstrom      # Angstroms are the default
    no_reorient         # Geometry fixed, default
    symmetry c1         # C1 symmetry, default
}

set {
    scf_type DF         # Density fitting, faster than exact integrals
    freeze_core True    # Freeze core electrons
    basis jun-cc-pVDZ   # Jun-cc-pVDZ basis set, recommended for sSAPT0 in https://doi.org/10.1063/1.4867135
}

energy('ssapt0')        # Compute sSAPT0 energy, includes also SAPT0
--------------------------------------------------------------------------

  //              Dimer HF             //
    Molecular point group: c1
  Charge       = -1
  Multiplicity = 1
  Basis Set: JUN-CC-PVDZ
    Blend: JUN-CC-PVDZ
  Basis Set: (JUN-CC-PVDZ AUX)
    Blend: JUN-CC-PVDZ-JKFIT
  @DF-RHF Final Energy: -2478.66363669611155
    Total Energy =                      -2478.6636366961120075
 Dipole X            :         -0.0005522            0.0000481           -0.0005041
 Dipole Y            :          0.0009929           -0.0001453            0.0008476
 Dipole Z            :         19.1485303          -24.5211786           -5.3726483
 Magnitude           :                                                    5.3726484
  //            Monomer A HF           //
    Molecular point group: c1
  Multiplicity = 1
  Basis Set: JUN-CC-PVDZ
    Blend: JUN-CC-PVDZ
  Basis Set: (JUN-CC-PVDZ AUX)
    Blend: JUN-CC-PVDZ-JKFIT
  @DF-RHF Final Energy:  -422.77277257646932
    Total Energy =                       -422.7727725764693218
  //            Monomer B HF           //
    Molecular point group: c1

    Geometry (in Angstrom), charge = 0, multiplicity = 1:

       Center              X                  Y                   Z               Mass
    ------------   -----------------  -----------------  -----------------  -----------------
      Gh(B)          -0.000198161052     0.000273808717     3.537957539690    11.009305360000
      Gh(F)          -0.000000401852    -0.000000464183     4.950742539690    18.998403162730
      Gh(F)           1.147859598148     0.675780735817     3.066816539690    18.998403162730
      Gh(F)           0.011917658148    -1.332011464183     3.067018539690    18.998403162730
      Gh(F)          -1.159666401852     0.656073035817     3.067097539690    18.998403162730
         C            1.225311973413     0.707538196736    -0.455938833026    12.000000000000
         C            1.225323934041    -0.707538986754    -0.468269642597    12.000000000000
         C           -0.000006075942     1.414965821907    -0.468803266117    12.000000000000
         C            2.456448831939     1.418327794995    -0.453051975626    12.000000000000
         C            0.000010905269    -1.414976590818    -0.458603708793    12.000000000000
         C           -1.225300870919     0.707545281801    -0.453687312704    12.000000000000
         C            2.456437833310    -1.418323396064    -0.470514799454    12.000000000000
         C           -0.000001254988     2.836800939098    -0.471206816251    12.000000000000
         C            3.681826775460     0.709317863818    -0.470166009656    12.000000000000
         C            2.455120126855     2.834223569306    -0.470268566616    12.000000000000
         C            3.681821183209    -0.709333931612    -0.454093525637    12.000000000000
         C           -1.225313520698    -0.707527607727    -0.467196881170    12.000000000000
         C            1.226699659192     3.543469391811    -0.453909493707    12.000000000000
         C            0.000004862847    -2.836782231419    -0.453755541171    12.000000000000
         C           -2.456435954859     1.418316826102    -0.453651916858    12.000000000000
         C            2.455123495769    -2.834230120772    -0.454245434005    12.000000000000
         C           -1.226714286599     3.543468971567    -0.453806160487    12.000000000000
         C            4.914517373191     1.427172780306    -0.463685326626    12.000000000000
         C            3.693150269466     3.542795200362    -0.463635526990    12.000000000000
         C           -2.456437522078    -1.418313373022    -0.470539837578    12.000000000000
         C            1.226704919933    -3.543474334090    -0.469879624456    12.000000000000
         C           -2.455125320518     2.834216570451    -0.470262190270    12.000000000000
         C            4.914524458772    -1.427187002127    -0.460712583892    12.000000000000
         C            1.221424691688     4.970133973077    -0.460574149632    12.000000000000
         C            4.893008307311     2.825187907843    -0.462468658267    12.000000000000
         C           -1.226696930499    -3.543471089260    -0.469612420047    12.000000000000
         C           -3.681818898536     0.709324874549    -0.470153329176    12.000000000000
         C            3.693147179140    -3.542801433574    -0.460594693331    12.000000000000
         C           -1.221432174004     4.970128205680    -0.460390654259    12.000000000000
         C            6.134771050916     0.680547854922    -0.462915552076    12.000000000000
         C            3.656788958600     4.972953151384    -0.462726889207    12.000000000000
         C           -2.455126829744    -2.834215185244    -0.454489791803    12.000000000000
         C           -3.681819101071    -0.709325795652    -0.453975904059    12.000000000000
         C            4.893012695903    -2.825200197815    -0.461857506372    12.000000000000
         C           -0.000000995123     5.650447273849    -0.461621962966    12.000000000000
         C            6.134775190322    -0.680554946258    -0.461650231561    12.000000000000
         C            2.478131560845     5.653576659148    -0.461438109557    12.000000000000
         C            1.221422482727    -4.970127147116    -0.463373646655    12.000000000000
         C           -3.693162305975     3.542796862009    -0.463470019531    12.000000000000
         C           -1.221428442955    -4.970118395779    -0.463486408487    12.000000000000
         C           -4.914521729952     1.427175354812    -0.463608381619    12.000000000000
         C            3.656787097669    -4.972955318422    -0.461276388673    12.000000000000
         C           -2.478138452116     5.653574330345    -0.461153584549    12.000000000000
         C           -3.693141660574    -3.542790311162    -0.460710819487    12.000000000000
         C           -4.914512405063    -1.427181092211    -0.460677886718    12.000000000000
         C           -0.000005930936    -5.650438379197    -0.462017467087    12.000000000000
         C           -4.893020406111     2.825188506736    -0.462478740128    12.000000000000
         C            2.478126071288    -5.653573636072    -0.462366989466    12.000000000000
         C           -3.656798632268     4.972956089858    -0.462550208833    12.000000000000
         C           -4.892999400866    -2.825191859243    -0.462011542070    12.000000000000
         C           -2.478128420093    -5.653566262190    -0.462642177113    12.000000000000
         C           -6.134770425341     0.680548674073    -0.462941103779    12.000000000000
         C           -3.656788755199    -4.972944115154    -0.461490676490    12.000000000000
         C           -6.134764964923    -0.680554007665    -0.461670707356    12.000000000000
         H            5.835288573806     3.369275802771    -0.458109332605     1.007825032230
         H            7.073859250737     1.228217156716    -0.462453908683     1.007825032230
         H            4.600663342164     5.512380710270    -0.462221688455     1.007825032230
         H            5.835283465295    -3.369306148912    -0.466311973686     1.007825032230
         H           -0.000012073316     6.738530581953    -0.465971207974     1.007825032230
         H            7.073861249820    -1.228227034927    -0.462158969655     1.007825032230
         H            2.473313809789     6.740684199211    -0.461904830488     1.007825032230
         H            4.600668569371    -5.512376221359    -0.461686385842     1.007825032230
         H           -2.473318602548     6.740681627423    -0.461603483863     1.007825032230
         H           -0.000010190238    -6.738528268635    -0.457487782103     1.007825032230
         H           -5.835301836354     3.369270858113    -0.457973310456     1.007825032230
         H            2.473308001821    -6.740685466612    -0.461796659041     1.007825032230
         H           -4.600674763218     5.512377934420    -0.462056360132     1.007825032230
         H           -5.835279428845    -3.369289055963    -0.466591279567     1.007825032230
         H           -2.473300269450    -6.740679170323    -0.462245975585     1.007825032230
         H           -7.073857688778     1.228220380657    -0.462537900164     1.007825032230
         H           -4.600673708095    -5.512362761970    -0.461858693864     1.007825032230
         H           -7.073856856419    -1.228220724160    -0.462253826121     1.007825032230

  Charge       = 0
  Multiplicity = 1
  Basis Set: JUN-CC-PVDZ
    Blend: JUN-CC-PVDZ
  Basis Set: (JUN-CC-PVDZ AUX)
    Blend: JUN-CC-PVDZ-JKFIT

    Orbital Energies [Eh]
    ---------------------

    Doubly Occupied:

       1A    -11.260667     2A    -11.260217     3A    -11.260217
       4A    -11.259471     5A    -11.259471     6A    -11.259290
       7A    -11.259041     8A    -11.258972     9A    -11.258971
      10A    -11.258639    11A    -11.258636    12A    -11.258525
      13A    -11.258468    14A    -11.258464    15A    -11.258462
      16A    -11.258429    17A    -11.258423    18A    -11.258404
      19A    -11.258402    20A    -11.258399    21A    -11.258394
      22A    -11.258330    23A    -11.258326    24A    -11.258088
      25A    -11.257323    26A    -11.257265    27A    -11.257264
      28A    -11.257134    29A    -11.257133    30A    -11.257052
      31A    -11.256420    32A    -11.256351    33A    -11.256351
      34A    -11.256243    35A    -11.256243    36A    -11.256197
      37A    -11.252275    38A    -11.252275    39A    -11.252274
      40A    -11.252272    41A    -11.252270    42A    -11.252268
      43A    -11.251385    44A    -11.251383    45A    -11.251383
      46A    -11.251372    47A    -11.251371    48A    -11.251368
      49A    -11.250837    50A    -11.250836    51A    -11.250835
      52A    -11.250833    53A    -11.250831    54A    -11.250830
      55A     -1.244019    56A     -1.219789    57A     -1.219788
      58A     -1.189523    59A     -1.189516    60A     -1.180902
      61A     -1.157545    62A     -1.148966    63A     -1.135458
      64A     -1.135452    65A     -1.113181    66A     -1.113177
      67A     -1.082407    68A     -1.082399    69A     -1.078568
      70A     -1.065972    71A     -1.065968    72A     -1.039379
      73A     -1.024247    74A     -1.021725    75A     -1.021683
      76A     -1.017719    77A     -1.012792    78A     -0.986996
      79A     -0.986950    80A     -0.961868    81A     -0.961819
      82A     -0.894276    83A     -0.894249    84A     -0.887888
      85A     -0.886145    86A     -0.886087    87A     -0.881367
      88A     -0.881319    89A     -0.861885    90A     -0.837410
      91A     -0.818190    92A     -0.816579    93A     -0.812106
      94A     -0.812097    95A     -0.794678    96A     -0.794667
      97A     -0.746588    98A     -0.744829    99A     -0.733378
     100A     -0.733370   101A     -0.732168   102A     -0.732145
     103A     -0.716465   104A     -0.698957   105A     -0.698946
     106A     -0.693561   107A     -0.693545   108A     -0.661218
     109A     -0.653066   110A     -0.651115   111A     -0.650241
     112A     -0.650236   113A     -0.639347   114A     -0.639345
     115A     -0.629684   116A     -0.627492   117A     -0.627477
     118A     -0.606471   119A     -0.605808   120A     -0.601633
     121A     -0.599711   122A     -0.599680   123A     -0.593615
     124A     -0.591169   125A     -0.591158   126A     -0.585276
     127A     -0.576395   128A     -0.576389   129A     -0.567316
     130A     -0.567302   131A     -0.565925   132A     -0.565906
     133A     -0.558684   134A     -0.554827   135A     -0.554821
     136A     -0.538581   137A     -0.538580   138A     -0.538214
     139A     -0.538208   140A     -0.529701   141A     -0.528171
     142A     -0.522852   143A     -0.522846   144A     -0.500492
     145A     -0.495602   146A     -0.493218   147A     -0.487838
     148A     -0.485045   149A     -0.481732   150A     -0.481724
     151A     -0.470352   152A     -0.470334   153A     -0.450976
     154A     -0.450898   155A     -0.439066   156A     -0.439057
     157A     -0.404753   158A     -0.404730   159A     -0.403377
     160A     -0.375412   161A     -0.375409   162A     -0.349122
     163A     -0.337635   164A     -0.336563   165A     -0.336506
     166A     -0.311069   167A     -0.298113   168A     -0.284350
     169A     -0.284296   170A     -0.224907   171A     -0.224842

  @DF-RHF Final Energy: -2055.89391422329163

   => Energetics <=

    Nuclear Repulsion Energy =           6452.5568002797772351
    One-Electron Energy =              -15636.4870610085563385
    Two-Electron Energy =                7128.0363465054870176
    Total Energy =                      -2055.8939142232920858
 Dipole X            :          0.0000319            0.0000419            0.0000738
 Dipole Y            :          0.0000324           -0.0000426           -0.0000102
 Dipole Z            :        298.6333662         -298.6351449           -0.0017787
 Magnitude           :                                                    0.0017803

    SAPT Results
  --------------------------------------------------------------------------------------------------------
    Electrostatics                 12.41238900 [mEh]       7.78889169 [kcal/mol]      32.58872284 [kJ/mol]
      Elst10,r                     12.41238900 [mEh]       7.78889169 [kcal/mol]      32.58872284 [kJ/mol]

    Exchange                        2.26363665 [mEh]       1.42045344 [kcal/mol]       5.94317720 [kJ/mol]
      Exch10                        2.26363665 [mEh]       1.42045344 [kcal/mol]       5.94317720 [kJ/mol]
      Exch10(S^2)                   2.26359052 [mEh]       1.42042450 [kcal/mol]       5.94305610 [kJ/mol]

    Induction                     -11.62592200 [mEh]      -7.29537620 [kcal/mol]     -30.52385400 [kJ/mol]
      Ind20,r                     -12.09479579 [mEh]      -7.58959894 [kcal/mol]     -31.75488196 [kJ/mol]
      Exch-Ind20,r                  0.54735282 [mEh]       0.34346908 [kcal/mol]       1.43707464 [kJ/mol]
      delta HF,r (2)               -0.07847904 [mEh]      -0.04924634 [kcal/mol]      -0.20604668 [kJ/mol]

    Dispersion                     -6.17276203 [mEh]      -3.87346666 [kcal/mol]     -16.20658449 [kJ/mol]
      Disp20                       -6.57513549 [mEh]      -4.12595981 [kcal/mol]     -17.26301586 [kJ/mol]
      Exch-Disp20                   0.40237346 [mEh]       0.25249316 [kcal/mol]       1.05643137 [kJ/mol]
      Disp20 (SS)                  -3.28756775 [mEh]      -2.06297991 [kcal/mol]      -8.63150793 [kJ/mol]
      Disp20 (OS)                  -3.28756775 [mEh]      -2.06297991 [kcal/mol]      -8.63150793 [kJ/mol]
      Exch-Disp20 (SS)              0.25012129 [mEh]       0.15695348 [kcal/mol]       0.65669335 [kJ/mol]
      Exch-Disp20 (OS)              0.15225217 [mEh]       0.09553968 [kcal/mol]       0.39973802 [kJ/mol]

  Total HF                          3.05010365 [mEh]       1.91396894 [kcal/mol]       8.00804603 [kJ/mol]
  Total SAPT0                      -3.12265838 [mEh]      -1.95949772 [kcal/mol]      -8.19853846 [kJ/mol]

  Special recipe for scaled SAPT0 (see Manual):
    Electrostatics sSAPT0          12.41238900 [mEh]       7.78889169 [kcal/mol]      32.58872284 [kJ/mol]
    Exchange sSAPT0                 2.26363665 [mEh]       1.42045344 [kcal/mol]       5.94317720 [kJ/mol]
    Induction sSAPT0              -11.62588854 [mEh]      -7.29535520 [kcal/mol]     -30.52376615 [kJ/mol]
    Dispersion sSAPT0              -6.17273744 [mEh]      -3.87345122 [kcal/mol]     -16.20651991 [kJ/mol]
  Total sSAPT0                     -3.12260033 [mEh]      -1.95946129 [kcal/mol]      -8.19838603 [kJ/mol]
  --------------------------------------------------------------------------------------------------------

*** Psi4 exiting successfully. Buy a developer a beer!
