                               Psi4 1.9 release

  ==> Input File <==

--------------------------------------------------------------------------
memory 64 GB # how much memory is available ! Depends on the nodes/cores !

molecule dimer {
# monomer A
+1 1    # Charge and multiplicity
C  0.680067 1.417258 -7.415929
C -0.680504 1.419286 -7.415545
N -1.085635 1.420284 -6.097221
C  0.000108 1.423560 -5.315820
C -2.477365 1.469690 -5.629242
N  1.085222 1.420284 -6.097221
H  1.385146 1.409430 -8.233368
H -1.385302 1.419096 -8.233214
H -0.000009 1.425307 -4.234731
C  2.478117 1.403392 -5.632123
H  2.490592 1.430737 -4.541870
H  2.967028 0.489946 -5.979299
H  3.001428 2.278875 -6.023595
H -2.857359 2.491761 -5.709201
H -3.082679 0.799606 -6.242306
H -2.518128 1.142706 -4.589294
--
# monomer B
0 1     # Charge and multiplicity
C   -3.66844126402057      7.80375217008252      0.00190004133558
C   -4.84759871934653      7.13124183134024     -0.00046653359696
C   -4.89495929917518      5.69633040353158     -0.00103944469517
C   -3.65374067877320      4.98073034095895      0.00662099703436
C   -2.40942512149445      7.11398103667468      0.00209438359570
C   -2.42547734410473      5.68112195090346     -0.00491050527438
C   -1.19474401643570      7.78614419430947      0.00356656413763
C   0.03795902893699      7.09942164575698      0.00139585983271
C   0.03033258741920      5.66948955970466     -0.00408752508301
C   -1.20098450790502      4.96927034791531      0.00488220885047
C   1.27795782581485      7.77285944319479      0.00277170839332
C   2.48535808472416      7.08769688523756      0.00049722048857
C   2.48612868491717      5.65477081024076     -0.00644052849921
C   1.25408291964399      4.95607811366431      0.00518741308898
C   3.75171459140595      7.76391215098033      0.00062407186893
C   4.92356605618520      7.07878077698995     -0.00143240883900
C   4.95560727132542      5.64344746336949     -0.00159282164606
C   3.70680153420475      4.94121020833308      0.00349873852374
H   -3.65852113775815      8.89082741913536      0.00358502958574
H   -1.18921332975660      8.87412108735996      0.00753844057883
H   1.28429423888630      8.86083343548850      0.00693053253426
H   3.75354208679975      8.85103527897216      0.00214659618464
H   5.86995870320703      7.61379483465560     -0.00235777588134
H   -5.78823170750226      7.67630221293400     -0.00202638095293
C   -6.09197395869619      4.99326001364347     -0.00291168518608
C   -6.12866148031747      3.58258016879823     -0.00171050815740
C   -3.66457974004527      3.56418217974434     -0.00463560277484
C   -4.89429820469869      2.86108077590057      0.00453338221034
C   -2.43733499489796      2.84761165708481      0.00719617576166
C   -1.20922785759670      3.54788693497833     -0.00648285103018
C   1.24714157216223      3.53468075142962     -0.00729145743546
C   0.01517603956900      2.83311183930540      0.00439272578912
C   2.46764517244071      2.82128997725533      0.00449278391269
C   3.70254947457969      3.52466015442405     -0.00899517692985
C   6.14498038638375      4.92757236613191     -0.00282626685777
C   6.16658835886151      3.51658447594213     -0.00065971342101
C   4.92460995845939      2.80840792535402      0.00587903281610
H   7.08990550964105      5.46688776622306     -0.00658814770723
H   -7.03104175110130      5.54268795285765     -0.00714490013730
C   -7.33969804112295      2.85841153457957     -0.00333767559888
C   -7.36488195805880      1.47032337158330     -0.00157213747140
C   -4.90350460894690      1.44442681216000     -0.00628840166334
C   -6.13225715261081      0.73993935705394      0.00600164231964
C   -3.67687480051673      0.72669714267312      0.00433931473643
C   -2.44565658606518      1.42964113326212     -0.00597039546461
C   -1.22360068130162      0.71532450163492      0.00545886906656
C   0.00763786931376      1.41738314923765      0.00392452278437
C   1.23121980774686      0.70211669058719     -0.01490206287210
C   2.46082110053113      1.40329203612573      0.00460244601878
C   3.68443025419614      0.68719842821222      0.00377365974158
C   4.91870890153864      1.39173456118907     -0.00862816189375
C   7.36980207796101      2.77948220318441     -0.00242013321349
C   7.38016266612146      1.39121750785509     -0.00087345036788
C   6.13979953912259      0.67411862320065      0.00545489144369
H   -8.27919079934664      3.40711804112415     -0.00763522772059
H   8.31511347147953      3.31811809662368     -0.00663070901292
C   -8.59175593758115      0.72483255304480     -0.00123170985383
C   -8.59902460370342     -0.63263980622873      0.00089141472904
C   -6.13981313911873     -0.67413663715361     -0.00609792660607
C   -7.38018411213749     -1.39126618958160      0.00131813493501
C   -4.91868448025621     -1.39175501803000      0.00624257154343
C   -3.68443829568458     -0.68723731573599     -0.00478966852105
C   -2.46081704024768     -1.40334517882457      0.00575341766833
C   -1.23116201232071     -0.70217386488055     -0.00636696112346
C   -0.00756962538737     -1.41741884941102      0.00108956317991
C   1.22364771588843     -0.71527537726392      0.01109518512883
C   2.44567064933149     -1.42964328900682     -0.00065482763106
C   3.67686670284649     -0.72670743155550     -0.00479541202602
C   6.13224884641929     -0.73997883984993     -0.00632338623858
C   4.90351914550401     -1.44445752054090      0.00751768830159
C   8.59901484869081      0.63260386666793     -0.00101133422380
C   8.59174548810050     -0.72485086719319      0.00072504603735
C   7.36486276438985     -1.47033266560598      0.00049486934466
H   -9.52830597181814      1.27684744919284     -0.00270163681798
H   9.54141097460619      1.17457248844457     -0.00206336648518
C   -7.36983790976868     -2.77954514593389      0.00312634335708
C   -4.92459910905015     -2.80843725734101     -0.00460528907921
C   -6.16662249566744     -3.51665219282533      0.00169655107992
C   -3.70251035970491     -3.52468154912026      0.00571878010666
C   -2.46764698511392     -2.82132596280400     -0.00632585824990
C   -0.01513347410770     -2.83314164539971     -0.00604426974092
C   -1.24712184122656     -3.53473217556300      0.00551968366725
C   1.20924506964357     -3.54791467864352      0.00805871345849
C   2.43733602215464     -2.84764173817541     -0.00608104485234
C   4.89430234377080     -2.86112296828604     -0.00526030478103
C   3.66461525504104     -3.56421984553201      0.00761911515957
C   6.12863901474565     -3.58258405771778      0.00096495711699
C   7.33967266469532     -2.85841330737039      0.00248018319869
H   -9.54144911125902     -1.17456346666430      0.00226083090216
H   9.52826186807155     -1.27691907390448      0.00197485379837
H   -8.31516504384864     -3.31814985321231      0.00729857188773
H   8.27915514249207     -3.40714078989363      0.00681973918158
C   -6.14499418870218     -4.92764727278338      0.00302254913999
C   -3.70678334799751     -4.94126171411716     -0.00679841894792
C   -4.95559005800169     -5.64349397349412      0.00116871569699
C   -2.48612132622665     -5.65478557440947      0.00614125209662
C   -1.25405833548005     -4.95612205000132     -0.00503435388927
C   1.20101257386816     -4.96928038819302     -0.00385322963129
C   -0.03033667441341     -5.66952030313900      0.00398997003238
C   3.65375010132847     -4.98074377541453     -0.00309522988330
C   2.42549269587528     -5.68117463552727      0.00628170066869
C   6.09196561781097     -4.99325796338655      0.00325918379042
C   4.89497644461045     -5.69634842095790      0.00202298796027
H   -7.08989238804069     -5.46699984223871      0.00742531082125
H   7.03105520920009     -5.54265853633254      0.00683896355417
C   -4.92354532219813     -7.07882109967734      0.00061394679214
C   -2.48534208823777     -7.08772807792913     -0.00189594564379
C   -3.75168589177895     -7.76394715763627     -0.00170126671874
C   -0.03794895698805     -7.09946487446944     -0.00168022049625
C   -1.27795610040136     -7.77290438466689     -0.00366491325785
C   2.40944432072629     -7.11402201200282     -0.00081701968533
C   1.19474993715296     -7.78618536556242     -0.00296931056689
C   4.84762105249800     -7.13126211057943      0.00168979497423
C   3.66847160587561     -7.80378799294376     -0.00065863938960
H   -5.86994035041618     -7.61383059804164      0.00215798365757
H   5.78824962538815     -7.67633218931421      0.00281691445618
H   -3.75352693944918     -8.85107156923607     -0.00353718114765
H   -1.28430440589466     -8.86087539249706     -0.00809229711623
H   1.18922157469537     -8.87416062058945     -0.00706194725726
H   3.65854661482387     -8.89086063405326     -0.00231318081200

    units angstrom      # Angstroms are the default
    no_reorient         # Geometry fixed, default
    symmetry c1         # C1 symmetry, default
}

set {
    scf_type DF         # Density fitting, faster than exact integrals
    freeze_core True    # Freeze core electrons
    basis jun-cc-pVDZ   # Jun-cc-pVDZ basis set, recommended for sSAPT0 in https://doi.org/10.1063/1.4867135
}

energy('ssapt0')        # Compute sSAPT0 energy, includes also SAPT0
--------------------------------------------------------------------------

  //              Dimer HF             //
    Molecular point group: c1
  Charge       = 1
  Multiplicity = 1
  Basis Set: JUN-CC-PVDZ
    Blend: JUN-CC-PVDZ
  Basis Set: (JUN-CC-PVDZ AUX)
    Blend: JUN-CC-PVDZ-JKFIT
  @DF-RHF Final Energy: -3953.65131859396752
    Total Energy =                      -3953.6513185939693358
 Dipole X            :         -0.0027948            0.0004804           -0.0023144
 Dipole Y            :         -6.9869655            8.7122315            1.7252660
 Dipole Z            :         26.6548852          -35.7676534           -9.1127682
 Magnitude           :                                                    9.2746478
  //            Monomer A HF           //
    Molecular point group: c1
  Multiplicity = 1
  Basis Set: JUN-CC-PVDZ
    Blend: JUN-CC-PVDZ
  Basis Set: (JUN-CC-PVDZ AUX)
    Blend: JUN-CC-PVDZ-JKFIT
  @DF-RHF Final Energy:  -303.29740905631598
    Total Energy =                       -303.2974090563159848
  //            Monomer B HF           //
    Molecular point group: c1

    Geometry (in Angstrom), charge = 0, multiplicity = 1:

       Center              X                  Y                   Z               Mass
    ------------   -----------------  -----------------  -----------------  -----------------
      Gh(C)           0.680062820275     1.308604348936    -6.943232669164    12.000000000000
      Gh(C)          -0.680508179725     1.310632348936    -6.942848669164    12.000000000000
      Gh(N)          -1.085639179725     1.311630348936    -5.624524669164    14.003074004430
      Gh(C)           0.000103820275     1.314906348936    -4.843123669164    12.000000000000
      Gh(C)          -2.477369179725     1.361036348936    -5.156545669164    12.000000000000
      Gh(N)           1.085217820275     1.311630348936    -5.624524669164    14.003074004430
      Gh(H)           1.385141820275     1.300776348936    -7.760671669164     1.007825032230
      Gh(H)          -1.385306179725     1.310442348936    -7.760517669164     1.007825032230
      Gh(H)          -0.000013179725     1.316653348936    -3.762034669164     1.007825032230
      Gh(C)           2.478112820275     1.294738348936    -5.159426669164    12.000000000000
      Gh(H)           2.490587820275     1.322083348936    -4.069173669164     1.007825032230
      Gh(H)           2.967023820275     0.381292348936    -5.506602669164     1.007825032230
      Gh(H)           3.001423820275     2.170221348936    -5.550898669164     1.007825032230
      Gh(H)          -2.857363179725     2.383107348936    -5.236504669164     1.007825032230
      Gh(H)          -3.082683179725     0.690952348936    -5.769609669164     1.007825032230
      Gh(H)          -2.518132179725     1.034052348936    -4.116597669164     1.007825032230
         C           -3.668445443746     7.695098519018     0.474596372172    12.000000000000
         C           -4.847602899072     7.022588180276     0.472229797239    12.000000000000
         C           -4.894963478901     5.587676752467     0.471656886141    12.000000000000
         C           -3.653744858499     4.872076689895     0.479317327871    12.000000000000
         C           -2.409429301220     7.005327385610     0.474790714432    12.000000000000
         C           -2.425481523830     5.572468299839     0.467785825562    12.000000000000
         C           -1.194748196161     7.677490543245     0.476262894974    12.000000000000
         C            0.037954849212     6.990767994693     0.474092190669    12.000000000000
         C            0.030328407694     5.560835908640     0.468608805753    12.000000000000
         C           -1.200988687630     4.860616696851     0.477578539687    12.000000000000
         C            1.277953646089     7.664205792130     0.475468039230    12.000000000000
         C            2.485353904999     6.979043234173     0.473193551325    12.000000000000
         C            2.486124505192     5.546117159176     0.466255802337    12.000000000000
         C            1.254078739919     4.847424462600     0.477883743925    12.000000000000
         C            3.751710411681     7.655258499916     0.473320402705    12.000000000000
         C            4.923561876460     6.970127125926     0.471263921997    12.000000000000
         C            4.955603091600     5.534793812305     0.471103509190    12.000000000000
         C            3.706797354479     4.832556557269     0.476195069360    12.000000000000
         H           -3.658525317484     8.782173768071     0.476281360422     1.007825032230
         H           -1.189217509482     8.765467436296     0.480234771415     1.007825032230
         H            1.284290059161     8.752179784424     0.479626863371     1.007825032230
         H            3.753537907074     8.742381627908     0.474842927021     1.007825032230
         H            5.869954523482     7.505141183591     0.470338554955     1.007825032230
         H           -5.788235887228     7.567648561870     0.470669949883     1.007825032230
         C           -6.091978138422     4.884606362579     0.469784645650    12.000000000000
         C           -6.128665660043     3.473926517734     0.470985822679    12.000000000000
         C           -3.664583919771     3.455528528680     0.468060728062    12.000000000000
         C           -4.894302384424     2.752427124836     0.477229713047    12.000000000000
         C           -2.437339174623     2.738958006020     0.479892506598    12.000000000000
         C           -1.209232037322     3.439233283914     0.466213479806    12.000000000000
         C            1.247137392437     3.426027100365     0.465404873401    12.000000000000
         C            0.015171859844     2.724458188241     0.477089056625    12.000000000000
         C            2.467640992715     2.712636326191     0.477189114749    12.000000000000
         C            3.702545294854     3.416006503360     0.463701153907    12.000000000000
         C            6.144976206658     4.818918715067     0.469870063979    12.000000000000
         C            6.166584179136     3.407930824878     0.472036617415    12.000000000000
         C            4.924605778734     2.699754274290     0.478575363652    12.000000000000
         H            7.089901329916     5.358234115159     0.466108183129     1.007825032230
         H           -7.031045930827     5.434034301793     0.465551430699     1.007825032230
         C           -7.339702220848     2.749757883515     0.469358655237    12.000000000000
         C           -7.364886137784     1.361669720519     0.471124193365    12.000000000000
         C           -4.903508788672     1.335773161096     0.466407929173    12.000000000000
         C           -6.132261332336     0.631285705989     0.478697973156    12.000000000000
         C           -3.676878980242     0.618043491609     0.477035645573    12.000000000000
         C           -2.445660765791     1.320987482198     0.466725935372    12.000000000000
         C           -1.223604861027     0.606670850570     0.478155199903    12.000000000000
         C            0.007633689588     1.308729498173     0.476620853621    12.000000000000
         C            1.231215628021     0.593463039523     0.457794267964    12.000000000000
         C            2.460816920806     1.294638385061     0.477298776855    12.000000000000
         C            3.684426074471     0.578544777148     0.476469990578    12.000000000000
         C            4.918704721813     1.283080910125     0.464068168943    12.000000000000
         C            7.369797898236     2.670828552120     0.470276197623    12.000000000000
         C            7.380158486396     1.282563856791     0.471822880468    12.000000000000
         C            6.139795359397     0.565464972136     0.478151222280    12.000000000000
         H           -8.279194979072     3.298464390060     0.465061103116     1.007825032230
         H            8.315109291754     3.209464445559     0.466065621823     1.007825032230
         C           -8.591760117307     0.616178901980     0.471464620983    12.000000000000
         C           -8.599028783429    -0.741293457293     0.473587745565    12.000000000000
         C           -6.139817318844    -0.782790288218     0.466598404230    12.000000000000
         C           -7.380188291863    -1.499919840646     0.474014465771    12.000000000000
         C           -4.918688659982    -1.500408669094     0.478938902380    12.000000000000
         C           -3.684442475410    -0.795890966800     0.467906662315    12.000000000000
         C           -2.460821219973    -1.511998829889     0.478449748505    12.000000000000
         C           -1.231166192046    -0.810827515945     0.466329369713    12.000000000000
         C           -0.007573805113    -1.526072500475     0.473785894016    12.000000000000
         C            1.223643536163    -0.823929028328     0.483791515965    12.000000000000
         C            2.445666469606    -1.538296940071     0.472041503205    12.000000000000
         C            3.676862523121    -0.835361082620     0.467900918810    12.000000000000
         C            6.132244666694    -0.848632490914     0.466372944598    12.000000000000
         C            4.903514965779    -1.553111171605     0.480214019138    12.000000000000
         C            8.599010668965     0.523950215603     0.471684996613    12.000000000000
         C            8.591741308375    -0.833504518258     0.473421376874    12.000000000000
         C            7.364858584664    -1.578986316670     0.473191200181    12.000000000000
         H           -9.528310151544     1.168193798128     0.469994694018     1.007825032230
         H            9.541406794881     1.065918837380     0.470632964351     1.007825032230
         C           -7.369842089494    -2.888198796998     0.475822674193    12.000000000000
         C           -4.924603288776    -2.917090908405     0.468091041757    12.000000000000
         C           -6.166626675393    -3.625305843890     0.474392881916    12.000000000000
         C           -3.702514539430    -3.633335200185     0.478415110943    12.000000000000
         C           -2.467651164839    -2.929979613868     0.466370472586    12.000000000000
         C           -0.015137653833    -2.941795296464     0.466652061095    12.000000000000
         C           -1.247126020952    -3.643385826627     0.478216014504    12.000000000000
         C            1.209240889918    -3.656568329708     0.480755044295    12.000000000000
         C            2.437331842429    -2.956295389240     0.466615285984    12.000000000000
         C            4.894298164045    -2.969776619350     0.467436026055    12.000000000000
         C            3.664611075316    -3.672873496596     0.480315445996    12.000000000000
         C            6.128634835020    -3.691237708782     0.473661287953    12.000000000000
         C            7.339668484970    -2.967066958435     0.475176514035    12.000000000000
         H           -9.541453290984    -1.283217117729     0.474957161739     1.007825032230
         H            9.528257688346    -1.385572724969     0.474671184635     1.007825032230
         H           -8.315169223574    -3.426803504277     0.479994902724     1.007825032230
         H            8.279150962767    -3.515794440958     0.479516070018     1.007825032230
         C           -6.144998368428    -5.036300923848     0.475718879976    12.000000000000
         C           -3.706787527723    -5.049915365182     0.465897911888    12.000000000000
         C           -4.955594237727    -5.752147624559     0.473865046533    12.000000000000
         C           -2.486125505952    -5.763439225474     0.478837582933    12.000000000000
         C           -1.254062515205    -5.064775701066     0.467661976947    12.000000000000
         C            1.201008394143    -5.077934039257     0.468843101205    12.000000000000
         C           -0.030340854139    -5.778173954203     0.476686300869    12.000000000000
         C            3.653745921603    -5.089397426479     0.469601100953    12.000000000000
         C            2.425488516150    -5.789828286592     0.478978031505    12.000000000000
         C            6.091961438086    -5.101911614451     0.475955514627    12.000000000000
         C            4.894972264885    -5.805002072022     0.474719318797    12.000000000000
         H           -7.089896567766    -5.575653493303     0.480121641658     1.007825032230
         H            7.031051029475    -5.651312187397     0.479535294391     1.007825032230
         C           -4.923549501924    -7.187474750742     0.473310277629    12.000000000000
         C           -2.485346267963    -7.196381728994     0.470800385193    12.000000000000
         C           -3.751690071504    -7.872600808701     0.470995064118    12.000000000000
         C           -0.037953136713    -7.208118525534     0.471016110340    12.000000000000
         C           -1.277960280127    -7.881558035731     0.469031417579    12.000000000000
         C            2.409440141001    -7.222675663067     0.471879311151    12.000000000000
         C            1.194745757428    -7.894839016627     0.469727020269    12.000000000000
         C            4.847616872773    -7.239915761644     0.474386125811    12.000000000000
         C            3.668467426150    -7.912441644008     0.472037691447    12.000000000000
         H           -5.869944530142    -7.722484249106     0.474854314494     1.007825032230
         H            5.788245445663    -7.784985840379     0.475513245293     1.007825032230
         H           -3.753531119175    -8.959725220301     0.469159149689     1.007825032230
         H           -1.284308585620    -8.969529043562     0.464604033720     1.007825032230
         H            1.189217394970    -8.982814271654     0.465634383579     1.007825032230
         H            3.658542435098    -8.999514285118     0.470383150024     1.007825032230

  Charge       = 0
  Multiplicity = 1
  Basis Set: JUN-CC-PVDZ
    Blend: JUN-CC-PVDZ
  Basis Set: (JUN-CC-PVDZ AUX)
    Blend: JUN-CC-PVDZ-JKFIT

    Orbital Energies [Eh]
    ---------------------

    Doubly Occupied:

       1A    -11.264001     2A    -11.263688     3A    -11.263675
       4A    -11.263337     5A    -11.263333     6A    -11.263299
       7A    -11.263141     8A    -11.263124     9A    -11.263109
      10A    -11.262953    11A    -11.262797    12A    -11.262790
      13A    -11.262315    14A    -11.262309    15A    -11.262245
      16A    -11.262236    17A    -11.262186    18A    -11.262154
      19A    -11.262109    20A    -11.262072    21A    -11.262068
      22A    -11.261923    23A    -11.261910    24A    -11.261797
      25A    -11.261785    26A    -11.261767    27A    -11.261762
      28A    -11.261717    29A    -11.261706    30A    -11.261636
      31A    -11.261607    32A    -11.261604    33A    -11.261578
      34A    -11.261575    35A    -11.261554    36A    -11.261510
      37A    -11.261377    38A    -11.261368    39A    -11.261359
      40A    -11.261352    41A    -11.261345    42A    -11.261337
      43A    -11.261332    44A    -11.261316    45A    -11.261312
      46A    -11.261293    47A    -11.261284    48A    -11.261278
      49A    -11.261120    50A    -11.261088    51A    -11.261083
      52A    -11.261005    53A    -11.260999    54A    -11.260931
      55A    -11.259975    56A    -11.259955    57A    -11.259952
      58A    -11.259927    59A    -11.259921    60A    -11.259902
      61A    -11.259349    62A    -11.259319    63A    -11.259318
      64A    -11.259267    65A    -11.259263    66A    -11.259233
      67A    -11.258977    68A    -11.258955    69A    -11.258952
      70A    -11.258929    71A    -11.258922    72A    -11.258907
      73A    -11.254563    74A    -11.254559    75A    -11.254555
      76A    -11.254554    77A    -11.254546    78A    -11.254544
      79A    -11.253707    80A    -11.253700    81A    -11.253696
      82A    -11.253693    83A    -11.253690    84A    -11.253682
      85A    -11.253622    86A    -11.253616    87A    -11.253612
      88A    -11.253608    89A    -11.253605    90A    -11.253598
      91A    -11.253091    92A    -11.253087    93A    -11.253083
      94A    -11.253082    95A    -11.253074    96A    -11.253073
      97A     -1.254039    98A     -1.239072    99A     -1.239065
     100A     -1.220525   101A     -1.220519   102A     -1.215525
     103A     -1.201094   104A     -1.195659   105A     -1.188222
     106A     -1.188218   107A     -1.173815   108A     -1.173812
     109A     -1.155701   110A     -1.155697   111A     -1.152797
     112A     -1.144770   113A     -1.144767   114A     -1.128632
     115A     -1.114785   116A     -1.113211   117A     -1.112562
     118A     -1.112546   119A     -1.111663   120A     -1.088494
     121A     -1.088478   122A     -1.077009   123A     -1.077007
     124A     -1.067683   125A     -1.067652   126A     -1.065045
     127A     -1.046858   128A     -1.046850   129A     -1.040542
     130A     -1.038782   131A     -1.038780   132A     -1.025314
     133A     -1.021472   134A     -1.021420   135A     -1.007232
     136A     -1.006869   137A     -1.003850   138A     -1.000561
     139A     -1.000510   140A     -0.991119   141A     -0.971053
     142A     -0.971004   143A     -0.955936   144A     -0.955879
     145A     -0.905673   146A     -0.905634   147A     -0.905592
     148A     -0.905551   149A     -0.904422   150A     -0.892446
     151A     -0.892388   152A     -0.890437   153A     -0.890380
     154A     -0.889519   155A     -0.872267   156A     -0.869094
     157A     -0.851591   158A     -0.847935   159A     -0.847916
     160A     -0.845669   161A     -0.843081   162A     -0.834620
     163A     -0.834608   164A     -0.828163   165A     -0.828159
     166A     -0.784609   167A     -0.784598   168A     -0.783727
     169A     -0.783705   170A     -0.782350   171A     -0.782330
     172A     -0.782103   173A     -0.767044   174A     -0.760870
     175A     -0.750648   176A     -0.733533   177A     -0.727128
     178A     -0.727110   179A     -0.725145   180A     -0.724596
     181A     -0.724574   182A     -0.718571   183A     -0.713842
     184A     -0.713837   185A     -0.699632   186A     -0.699617
     187A     -0.686204   188A     -0.686004   189A     -0.686000
     190A     -0.682222   191A     -0.682212   192A     -0.678843
     193A     -0.653683   194A     -0.650929   195A     -0.650899
     196A     -0.649884   197A     -0.649872   198A     -0.649612
     199A     -0.641006   200A     -0.640976   201A     -0.640134
     202A     -0.639204   203A     -0.636087   204A     -0.636059
     205A     -0.629195   206A     -0.617740   207A     -0.615348
     208A     -0.615327   209A     -0.608852   210A     -0.608845
     211A     -0.599157   212A     -0.599135   213A     -0.598802
     214A     -0.598667   215A     -0.598647   216A     -0.598113
     217A     -0.595113   218A     -0.595100   219A     -0.594776
     220A     -0.594310   221A     -0.592016   222A     -0.592013
     223A     -0.587468   224A     -0.577832   225A     -0.577820
     226A     -0.575711   227A     -0.575707   228A     -0.573428
     229A     -0.569571   230A     -0.568213   231A     -0.568191
     232A     -0.566809   233A     -0.566800   234A     -0.560950
     235A     -0.558783   236A     -0.558758   237A     -0.558465
     238A     -0.554422   239A     -0.550596   240A     -0.547510
     241A     -0.544306   242A     -0.535012   243A     -0.534981
     244A     -0.533588   245A     -0.533567   246A     -0.528122
     247A     -0.528107   248A     -0.527867   249A     -0.517235
     250A     -0.517203   251A     -0.515387   252A     -0.515382
     253A     -0.509685   254A     -0.509670   255A     -0.498073
     256A     -0.496504   257A     -0.496473   258A     -0.493805
     259A     -0.493795   260A     -0.489446   261A     -0.481494
     262A     -0.477448   263A     -0.477446   264A     -0.474040
     265A     -0.469495   266A     -0.466577   267A     -0.466573
     268A     -0.458835   269A     -0.446762   270A     -0.446704
     271A     -0.441058   272A     -0.440783   273A     -0.440765
     274A     -0.434716   275A     -0.433933   276A     -0.407404
     277A     -0.407380   278A     -0.386436   279A     -0.386390
     280A     -0.385757   281A     -0.385756   282A     -0.383779
     283A     -0.354354   284A     -0.354335   285A     -0.350690
     286A     -0.338116   287A     -0.335620   288A     -0.335540
     289A     -0.332738   290A     -0.332733   291A     -0.307110
     292A     -0.301974   293A     -0.301910   294A     -0.300867
     295A     -0.286197   296A     -0.256490   297A     -0.253526
     298A     -0.253472   299A     -0.204286   300A     -0.204199

  @DF-RHF Final Energy: -3650.33874980840301

   => Energetics <=

    Nuclear Repulsion Energy =          15611.4211649754306563
    One-Electron Energy =              -36072.1157608567300485
    Two-Electron Energy =               16810.3558460729000217
    Total Energy =                      -3650.3387498084011895
 Dipole X            :         -0.0008158            0.0002112           -0.0006047
 Dipole Y            :        123.2151097         -123.2131634            0.0019463
 Dipole Z            :       -535.9533837          535.9633554            0.0099717
 Magnitude           :                                                    0.0101778

    SAPT Results
  --------------------------------------------------------------------------------------------------------
    Electrostatics                 -9.69538062 [mEh]      -6.08394319 [kcal/mol]     -25.45521831 [kJ/mol]
      Elst10,r                     -9.69538062 [mEh]      -6.08394319 [kcal/mol]     -25.45521831 [kJ/mol]

    Exchange                        0.01991716 [mEh]       0.01249820 [kcal/mol]       0.05229249 [kJ/mol]
      Exch10                        0.01991716 [mEh]       0.01249820 [kcal/mol]       0.05229249 [kJ/mol]
      Exch10(S^2)                   0.01991695 [mEh]       0.01249807 [kcal/mol]       0.05229194 [kJ/mol]

    Induction                      -5.48426579 [mEh]      -3.44142874 [kcal/mol]     -14.39893784 [kJ/mol]
      Ind20,r                      -5.32471553 [mEh]      -3.34130944 [kcal/mol]     -13.98003870 [kJ/mol]
      Exch-Ind20,r                  0.00599931 [mEh]       0.00376462 [kcal/mol]       0.01575118 [kJ/mol]
      delta HF,r (2)               -0.16554957 [mEh]      -0.10388392 [kcal/mol]      -0.43465033 [kJ/mol]

    Dispersion                     -3.38689223 [mEh]      -2.12530696 [kcal/mol]      -8.89228433 [kJ/mol]
      Disp20                       -3.39050264 [mEh]      -2.12757253 [kcal/mol]      -8.90176346 [kJ/mol]
      Exch-Disp20                   0.00361041 [mEh]       0.00226557 [kcal/mol]       0.00947913 [kJ/mol]
      Disp20 (SS)                  -1.69525132 [mEh]      -1.06378626 [kcal/mol]      -4.45088173 [kJ/mol]
      Disp20 (OS)                  -1.69525132 [mEh]      -1.06378626 [kcal/mol]      -4.45088173 [kJ/mol]
      Exch-Disp20 (SS)              0.00251305 [mEh]       0.00157696 [kcal/mol]       0.00659800 [kJ/mol]
      Exch-Disp20 (OS)              0.00109736 [mEh]       0.00068861 [kcal/mol]       0.00288113 [kJ/mol]

  Total HF                        -15.15972925 [mEh]      -9.51287372 [kcal/mol]     -39.80186366 [kJ/mol]
  Total SAPT0                     -18.54662148 [mEh]     -11.63818068 [kcal/mol]     -48.69414798 [kJ/mol]

  Special recipe for scaled SAPT0 (see Manual):
    Electrostatics sSAPT0          -9.69538062 [mEh]      -6.08394319 [kcal/mol]     -25.45521831 [kJ/mol]
    Exchange sSAPT0                 0.01991716 [mEh]       0.01249820 [kcal/mol]       0.05229249 [kJ/mol]
    Induction sSAPT0               -5.48426560 [mEh]      -3.44142862 [kcal/mol]     -14.39893734 [kJ/mol]
    Dispersion sSAPT0              -3.38689212 [mEh]      -2.12530689 [kcal/mol]      -8.89228403 [kJ/mol]
  Total sSAPT0                    -18.54662118 [mEh]     -11.63818050 [kcal/mol]     -48.69414719 [kJ/mol]
  --------------------------------------------------------------------------------------------------------

*** Psi4 exiting successfully. Buy a developer a beer!
