                               Psi4 1.9 release

  ==> Input File <==

--------------------------------------------------------------------------
memory 32 GB # how much memory is available ! Depends on the nodes/cores !

molecule dimer {
# monomer A
-1 1    # Charge and multiplicity
B -0.000046  0.000337 3.599994
F -1.153597  0.000048 4.415641
F  1.153661 -0.000581 4.415641
F -0.000019 -1.153637 2.784360
F -0.000019  1.153978 2.784360
--
# monomer B
0 1     # Charge and multiplicity
C   1.22531237526482      0.70753866091955      0.00613762728373
C   1.22532433589282     -0.70753852257020     -0.00619318228664
C   -0.00000567409046      1.41496628609039     -0.00672680580738
C   2.45644923379077      1.41832825917820      0.00902448468363
C   0.00001130712078     -1.41497612663474      0.00347275151708
C   -1.22530046906674      0.70754574598412      0.00838914760619
C   2.45643823516184     -1.41832293188077     -0.00843833914343
C   -0.00000085313587      2.83680140328112     -0.00913035594137
C   3.68182717731192      0.70931832800114     -0.00808954934571
C   2.45512052870677      2.83422403348893     -0.00819210630633
C   3.68182158506039     -0.70933346742900      0.00798293467272
C   -1.22531311884624     -0.70752714354401     -0.00512042085974
C   1.22670006104402      3.54346985599427      0.00816696660346
C   0.00000526469929     -2.83678176723568      0.00832091913869
C   -2.45643555300670      1.41831729028492      0.00842454345199
C   2.45512389762097     -2.83422965658853      0.00783102630520
C   -1.22671388474763      3.54346943575023      0.00827029982280
C   4.91451777504333      1.42717324448953     -0.00160886631602
C   3.69315067131765      3.54279566454522     -0.00155906667985
C   -2.45643712022637     -1.41831290883911     -0.00846337726810
C   1.22670532178455     -3.54347386990643     -0.00780316414624
C   -2.45512491866593      2.83421703463423     -0.00818572995999
C   4.91452486062398     -1.42718653794377      0.00136387641845
C   1.22142509354026      4.97013443726031      0.00150231067809
C   4.89300870916237      2.82518837202648     -0.00039219795739
C   -1.22669652864725     -3.54347062507680     -0.00753595973677
C   -3.68181849668397      0.70932533873199     -0.00807686886569
C   3.69314758099218     -3.54280096939050      0.00148176697923
C   -1.22143177215231      4.97012866986289      0.00168580605083
C   6.13477145276790      0.68054831910577     -0.00083909176631
C   3.65678936045204      4.97295361556775     -0.00065042889723
C   -2.45512642789169     -2.83421472106065      0.00758666850712
C   -3.68181869921921     -0.70932533146830      0.00810055625144
C   4.89301309775526     -2.82519973363176      0.00021895393805
C   -0.00000059327114      5.65044773803267      0.00045449734393
C   6.13477559217374     -0.68055448207492      0.00042622874941
C   2.47813196269732      5.65357712333155      0.00063835075260
C   1.22142288457925     -4.97012668293268     -0.00129718634452
C   -3.69316190412301      3.54279732619245     -0.00139355922051
C   -1.22142804110313     -4.97011793159564     -0.00140994817719
C   -4.91452132810043      1.42717581899491     -0.00153192130862
C   3.65678749952045     -4.97295485423912      0.00080007163680
C   -2.47813805026426      5.65357479452875      0.00092287576113
C   -3.69314125872231     -3.54278984697859      0.00136564082345
C   -4.91451200321153     -1.42718062802730      0.00139857359209
C   -0.00000552908399     -5.65043791501335      0.00005899322272
C   -4.89302000425900      2.82518897091939     -0.00040227981744
C   2.47812647313991     -5.65357317188818     -0.00029052915548
C   -3.65679823041642      4.97295655404175     -0.00047374852278
C   -4.89299899901461     -2.82519139505969      0.00006491824035
C   -2.47812801824129     -5.65356579800621     -0.00056571680280
C   -6.13477002348955      0.68054913825639     -0.00086464346868
C   -3.65678835334731     -4.97294365097028      0.00058578382008
C   -6.13476456307132     -0.68055354348201      0.00040575295444
H   5.83528897565761      3.36927626695423      0.00396712770529
H   7.07385965258860      1.22821762089947     -0.00037744837300
H   4.60066374401555      5.51238117445323     -0.00014522814529
H   5.83528386714679     -3.36930568472863     -0.00423551337640
H   -0.00001167146422      6.73853104613662     -0.00389474766392
H   7.07386165167227     -1.22822657074368     -0.00008250934481
H   2.47331421164041      6.74068466339473      0.00017162982210
H   4.60066897122302     -5.51237575717576      0.00039007446835
H   -2.47331820069565      6.74068209160650      0.00047297644710
H   -0.00000978838621     -6.73852780445195      0.00458867820736
H   -5.83530143450167      3.36927132229595      0.00410314985360
H   2.47330840367253     -6.74068500242887      0.00027980126949
H   -4.60067436136587      5.51237839860371      0.00002010017831
H   -5.83527902699321     -3.36928859177951     -0.00451481925734
H   -2.47329986759855     -6.74067870613986     -0.00016951527498
H   -7.07385728692578      1.22822084484047     -0.00046143985387
H   -4.60067330624313     -5.51236229778631      0.00021776644566
H   -7.07385645456741     -1.22822025997701     -0.00017736581114

    units angstrom      # Angstroms are the default
    no_reorient         # Geometry fixed, default
    symmetry c1         # C1 symmetry, default
}

set {
    scf_type DF         # Density fitting, faster than exact integrals
    freeze_core True    # Freeze core electrons
    basis jun-cc-pVDZ   # Jun-cc-pVDZ basis set, recommended for sSAPT0 in https://doi.org/10.1063/1.4867135
}

energy('ssapt0')        # Compute sSAPT0 energy, includes also SAPT0
--------------------------------------------------------------------------

  //              Dimer HF             //
    Molecular point group: c1
  Charge       = -1
  Multiplicity = 1
  Basis Set: JUN-CC-PVDZ
    Blend: JUN-CC-PVDZ
  Basis Set: (JUN-CC-PVDZ AUX)
    Blend: JUN-CC-PVDZ-JKFIT
  @DF-RHF Final Energy: -2478.65973053866037
    Total Energy =                      -2478.6597305386603693
 Dipole X            :         -0.0002148           -0.0000160           -0.0002308
 Dipole Y            :          0.0009009           -0.0001716            0.0007292
 Dipole Z            :         17.4828119          -22.0690262           -4.5862142
 Magnitude           :                                                    4.5862143
  //            Monomer A HF           //
    Molecular point group: c1
  Multiplicity = 1
  Basis Set: JUN-CC-PVDZ
    Blend: JUN-CC-PVDZ
  Basis Set: (JUN-CC-PVDZ AUX)
    Blend: JUN-CC-PVDZ-JKFIT
  @DF-RHF Final Energy:  -422.77350139291468
    Total Energy =                       -422.7735013929146817
  //            Monomer B HF           //
    Molecular point group: c1

    Geometry (in Angstrom), charge = 0, multiplicity = 1:

       Center              X                  Y                   Z               Mass
    ------------   -----------------  -----------------  -----------------  -----------------
      Gh(B)          -0.000046449334     0.000336519434     3.184125461818    11.009305360000
      Gh(F)          -1.153597449334     0.000047519434     3.999772461818    18.998403162730
      Gh(F)           1.153660550666    -0.000581480566     3.999772461818    18.998403162730
      Gh(F)          -0.000019449334    -1.153637480566     2.368491461818    18.998403162730
      Gh(F)          -0.000019449334     1.153977519434     2.368491461818    18.998403162730
         C            1.225311925931     0.707538180353    -0.409730910899    12.000000000000
         C            1.225323886559    -0.707539003137    -0.422061720469    12.000000000000
         C           -0.000006123424     1.414965805524    -0.422595343990    12.000000000000
         C            2.456448784457     1.418327778612    -0.406844053499    12.000000000000
         C            0.000010857787    -1.414976607201    -0.412395786665    12.000000000000
         C           -1.225300918401     0.707545265418    -0.407479390576    12.000000000000
         C            2.456437785828    -1.418323412447    -0.424306877326    12.000000000000
         C           -0.000001302470     2.836800922715    -0.424998894124    12.000000000000
         C            3.681826727978     0.709317847435    -0.423958087528    12.000000000000
         C            2.455120079373     2.834223552923    -0.424060644489    12.000000000000
         C            3.681821135726    -0.709333947995    -0.407885603510    12.000000000000
         C           -1.225313568180    -0.707527624110    -0.420988959042    12.000000000000
         C            1.226699611710     3.543469375428    -0.407701571579    12.000000000000
         C            0.000004815365    -2.836782247802    -0.407547619044    12.000000000000
         C           -2.456436002341     1.418316809719    -0.407443994730    12.000000000000
         C            2.455123448287    -2.834230137155    -0.408037511877    12.000000000000
         C           -1.226714334082     3.543468955184    -0.407598238359    12.000000000000
         C            4.914517325709     1.427172763923    -0.417477404498    12.000000000000
         C            3.693150221984     3.542795183979    -0.417427604862    12.000000000000
         C           -2.456437569560    -1.418313389406    -0.424331915450    12.000000000000
         C            1.226704872451    -3.543474350473    -0.423671702328    12.000000000000
         C           -2.455125368000     2.834216554068    -0.424054268142    12.000000000000
         C            4.914524411290    -1.427187018510    -0.414504661764    12.000000000000
         C            1.221424644206     4.970133956694    -0.414366227504    12.000000000000
         C            4.893008259828     2.825187891460    -0.416260736140    12.000000000000
         C           -1.226696977981    -3.543471105643    -0.423404497919    12.000000000000
         C           -3.681818946018     0.709324858166    -0.423945407048    12.000000000000
         C            3.693147131658    -3.542801449957    -0.414386771203    12.000000000000
         C           -1.221432221486     4.970128189296    -0.414182732131    12.000000000000
         C            6.134771003434     0.680547838539    -0.416707629949    12.000000000000
         C            3.656788911118     4.972953135001    -0.416518967079    12.000000000000
         C           -2.455126877226    -2.834215201627    -0.408281869675    12.000000000000
         C           -3.681819148553    -0.709325812035    -0.407767981931    12.000000000000
         C            4.893012648421    -2.825200214198    -0.415649584244    12.000000000000
         C           -0.000001042605     5.650447257466    -0.415414040838    12.000000000000
         C            6.134775142840    -0.680554962641    -0.415442309433    12.000000000000
         C            2.478131513363     5.653576642765    -0.415230187430    12.000000000000
         C            1.221422435245    -4.970127163499    -0.417165724527    12.000000000000
         C           -3.693162353457     3.542796845626    -0.417262097403    12.000000000000
         C           -1.221428490437    -4.970118412162    -0.417278486359    12.000000000000
         C           -4.914521777434     1.427175338429    -0.417400459491    12.000000000000
         C            3.656787050187    -4.972955334806    -0.415068466545    12.000000000000
         C           -2.478138499598     5.653574313962    -0.414945662421    12.000000000000
         C           -3.693141708056    -3.542790327545    -0.414502897359    12.000000000000
         C           -4.914512452545    -1.427181108594    -0.414469964590    12.000000000000
         C           -0.000005978418    -5.650438395580    -0.415809544960    12.000000000000
         C           -4.893020453593     2.825188490353    -0.416270818000    12.000000000000
         C            2.478126023806    -5.653573652455    -0.416159067338    12.000000000000
         C           -3.656798679750     4.972956073475    -0.416342286705    12.000000000000
         C           -4.892999448349    -2.825191875626    -0.415803619942    12.000000000000
         C           -2.478128467575    -5.653566278573    -0.416434254985    12.000000000000
         C           -6.134770472823     0.680548657690    -0.416733181651    12.000000000000
         C           -3.656788802681    -4.972944131537    -0.415282754362    12.000000000000
         C           -6.134765012405    -0.680554024048    -0.415462785228    12.000000000000
         H            5.835288526324     3.369275786388    -0.411901410477     1.007825032230
         H            7.073859203255     1.228217140333    -0.416245986555     1.007825032230
         H            4.600663294682     5.512380693887    -0.416013766328     1.007825032230
         H            5.835283417813    -3.369306165295    -0.420104051559     1.007825032230
         H           -0.000012120798     6.738530565570    -0.419763285846     1.007825032230
         H            7.073861202338    -1.228227051310    -0.415951047527     1.007825032230
         H            2.473313762307     6.740684182828    -0.415696908360     1.007825032230
         H            4.600668521889    -5.512376237742    -0.415478463714     1.007825032230
         H           -2.473318650030     6.740681611040    -0.415395561735     1.007825032230
         H           -0.000010237720    -6.738528285018    -0.411279859975     1.007825032230
         H           -5.835301883836     3.369270841730    -0.411765388329     1.007825032230
         H            2.473307954339    -6.740685482995    -0.415588736913     1.007825032230
         H           -4.600674810700     5.512377918037    -0.415848438004     1.007825032230
         H           -5.835279476327    -3.369289072346    -0.420383357440     1.007825032230
         H           -2.473300316932    -6.740679186706    -0.416038053457     1.007825032230
         H           -7.073857736260     1.228220364274    -0.416329978036     1.007825032230
         H           -4.600673755577    -5.512362778353    -0.415650771737     1.007825032230
         H           -7.073856903901    -1.228220740543    -0.416045903993     1.007825032230

  Charge       = 0
  Multiplicity = 1
  Basis Set: JUN-CC-PVDZ
    Blend: JUN-CC-PVDZ
  Basis Set: (JUN-CC-PVDZ AUX)
    Blend: JUN-CC-PVDZ-JKFIT

    Orbital Energies [Eh]
    ---------------------

    Doubly Occupied:

       1A    -11.260676     2A    -11.260257     3A    -11.260192
       4A    -11.259506     5A    -11.259444     6A    -11.259289
       7A    -11.259053     8A    -11.259001     9A    -11.258952
      10A    -11.258663    11A    -11.258637    12A    -11.258542
      13A    -11.258486    14A    -11.258481    15A    -11.258478
      16A    -11.258445    17A    -11.258440    18A    -11.258424
      19A    -11.258420    20A    -11.258419    21A    -11.258399
      22A    -11.258356    23A    -11.258324    24A    -11.258094
      25A    -11.257337    26A    -11.257286    27A    -11.257268
      28A    -11.257156    29A    -11.257132    30A    -11.257061
      31A    -11.256432    32A    -11.256370    33A    -11.256356
      34A    -11.256268    35A    -11.256238    36A    -11.256205
      37A    -11.252295    38A    -11.252294    39A    -11.252292
      40A    -11.252290    41A    -11.252289    42A    -11.252287
      43A    -11.251396    44A    -11.251394    45A    -11.251391
      46A    -11.251387    47A    -11.251383    48A    -11.251380
      49A    -11.250857    50A    -11.250855    51A    -11.250853
      52A    -11.250851    53A    -11.250850    54A    -11.250848
      55A     -1.244042    56A     -1.219816    57A     -1.219808
      58A     -1.189543    59A     -1.189541    60A     -1.180922
      61A     -1.157569    62A     -1.148983    63A     -1.135476
      64A     -1.135473    65A     -1.113202    66A     -1.113195
      67A     -1.082428    68A     -1.082421    69A     -1.078589
      70A     -1.065990    71A     -1.065988    72A     -1.039406
      73A     -1.024265    74A     -1.021739    75A     -1.021708
      76A     -1.017740    77A     -1.012807    78A     -0.987017
      79A     -0.986972    80A     -0.961885    81A     -0.961836
      82A     -0.894300    83A     -0.894273    84A     -0.887914
      85A     -0.886168    86A     -0.886105    87A     -0.881388
      88A     -0.881347    89A     -0.861907    90A     -0.837427
      91A     -0.818213    92A     -0.816599    93A     -0.812129
      94A     -0.812120    95A     -0.794696    96A     -0.794687
      97A     -0.746615    98A     -0.744852    99A     -0.733399
     100A     -0.733389   101A     -0.732188   102A     -0.732167
     103A     -0.716488   104A     -0.698978   105A     -0.698971
     106A     -0.693579   107A     -0.693569   108A     -0.661237
     109A     -0.653084   110A     -0.651138   111A     -0.650259
     112A     -0.650257   113A     -0.639369   114A     -0.639365
     115A     -0.629707   116A     -0.627520   117A     -0.627496
     118A     -0.606466   119A     -0.605825   120A     -0.601655
     121A     -0.599733   122A     -0.599711   123A     -0.593638
     124A     -0.591189   125A     -0.591186   126A     -0.585292
     127A     -0.576427   128A     -0.576364   129A     -0.567334
     130A     -0.567321   131A     -0.565942   132A     -0.565923
     133A     -0.558706   134A     -0.554847   135A     -0.554841
     136A     -0.538602   137A     -0.538598   138A     -0.538197
     139A     -0.538196   140A     -0.529721   141A     -0.528184
     142A     -0.522872   143A     -0.522867   144A     -0.500512
     145A     -0.495612   146A     -0.493241   147A     -0.487846
     148A     -0.485070   149A     -0.481755   150A     -0.481746
     151A     -0.470371   152A     -0.470325   153A     -0.451002
     154A     -0.450920   155A     -0.439086   156A     -0.439066
     157A     -0.404751   158A     -0.404718   159A     -0.403384
     160A     -0.375431   161A     -0.375425   162A     -0.349147
     163A     -0.337606   164A     -0.336562   165A     -0.336509
     166A     -0.311079   167A     -0.298126   168A     -0.284343
     169A     -0.284290   170A     -0.224916   171A     -0.224849

  @DF-RHF Final Energy: -2055.89375270698065

   => Energetics <=

    Nuclear Repulsion Energy =           6452.5568002797781446
    One-Electron Energy =              -15636.4813397013749636
    Two-Electron Energy =                7128.0307867146166245
    Total Energy =                      -2055.8937527069811040
 Dipole X            :          0.0000654            0.0000112            0.0000766
 Dipole Y            :          0.0003531           -0.0000531            0.0002999
 Dipole Z            :        268.7714508         -268.7715963           -0.0001455
 Magnitude           :                                                    0.0003420

    SAPT Results
  --------------------------------------------------------------------------------------------------------
    Electrostatics                  5.95859184 [mEh]       3.73907283 [kcal/mol]      15.64428071 [kJ/mol]
      Elst10,r                      5.95859184 [mEh]       3.73907283 [kcal/mol]      15.64428071 [kJ/mol]

    Exchange                       18.69610495 [mEh]      11.73198298 [kcal/mol]      49.08661679 [kJ/mol]
      Exch10                       18.69610495 [mEh]      11.73198298 [kcal/mol]      49.08661679 [kJ/mol]
      Exch10(S^2)                  18.64228403 [mEh]      11.69820984 [kcal/mol]      48.94530999 [kJ/mol]

    Induction                     -17.13113555 [mEh]     -10.74994986 [kcal/mol]     -44.97779020 [kJ/mol]
      Ind20,r                     -22.12570292 [mEh]     -13.88408820 [kcal/mol]     -58.09102502 [kJ/mol]
      Exch-Ind20,r                  6.48356332 [mEh]       4.06849741 [kcal/mol]      17.02259315 [kJ/mol]
      delta HF,r (2)               -1.48899595 [mEh]      -0.93435906 [kcal/mol]      -3.90935832 [kJ/mol]

    Dispersion                    -11.81963767 [mEh]      -7.41693462 [kcal/mol]     -31.03245443 [kJ/mol]
      Disp20                      -14.04350486 [mEh]      -8.81243234 [kcal/mol]     -36.87121692 [kJ/mol]
      Exch-Disp20                   2.22386719 [mEh]       1.39549773 [kcal/mol]       5.83876249 [kJ/mol]
      Disp20 (SS)                  -7.02175243 [mEh]      -4.40621617 [kcal/mol]     -18.43560846 [kJ/mol]
      Disp20 (OS)                  -7.02175243 [mEh]      -4.40621617 [kcal/mol]     -18.43560846 [kJ/mol]
      Exch-Disp20 (SS)              1.25861518 [mEh]       0.78979295 [kcal/mol]       3.30449371 [kJ/mol]
      Exch-Disp20 (OS)              0.96525200 [mEh]       0.60570478 [kcal/mol]       2.53426878 [kJ/mol]

  Total HF                          7.52356123 [mEh]       4.72110595 [kcal/mol]      19.75310730 [kJ/mol]
  Total SAPT0                      -4.29607644 [mEh]      -2.69582866 [kcal/mol]     -11.27934713 [kJ/mol]

  Special recipe for scaled SAPT0 (see Manual):
    Electrostatics sSAPT0           5.95859184 [mEh]       3.73907283 [kcal/mol]      15.64428071 [kJ/mol]
    Exchange sSAPT0                18.69610495 [mEh]      11.73198298 [kcal/mol]      49.08661679 [kJ/mol]
    Induction sSAPT0              -17.07481846 [mEh]     -10.71461035 [kcal/mol]     -44.82992970 [kJ/mol]
    Dispersion sSAPT0             -11.80032087 [mEh]      -7.40481314 [kcal/mol]     -30.98173817 [kJ/mol]
  Total sSAPT0                     -4.22044254 [mEh]      -2.64836768 [kcal/mol]     -11.08077037 [kJ/mol]
  --------------------------------------------------------------------------------------------------------

*** Psi4 exiting successfully. Buy a developer a beer!
