                               Psi4 1.9 release

  ==> Input File <==

--------------------------------------------------------------------------
memory 80 GB # how much memory is available ! Depends on the nodes/cores !

molecule dimer {
# monomer A
+1 1    # Charge and multiplicity
C  0.680067 -1.215929 3.108042
C -0.680504 -1.215545 3.106014
N -1.085635  0.102779 3.105016
C  0.000108  0.884180 3.101740
C -2.477365  0.570758 3.055610
N  1.085222  0.102779 3.105016
H  1.385146 -2.033368 3.115870
H -1.385302 -2.033214 3.106204
H -0.000009  1.965269 3.099993
C  2.478117  0.567877 3.121908
H  2.490592  1.658130 3.094563
H  2.967028  0.220701 4.035354
H  3.001428  0.176405 2.246425
H -2.857359  0.490799 2.033539
H -3.082679 -0.042306 3.725694
H -2.518128  1.610706 3.382594
--
# monomer B
0 1     # Charge and multiplicity
C   -3.66844126402057      7.80375217008252      0.00190004133558
C   -4.84759871934653      7.13124183134024     -0.00046653359696
C   -4.89495929917518      5.69633040353158     -0.00103944469517
C   -3.65374067877320      4.98073034095895      0.00662099703436
C   -2.40942512149445      7.11398103667468      0.00209438359570
C   -2.42547734410473      5.68112195090346     -0.00491050527438
C   -1.19474401643570      7.78614419430947      0.00356656413763
C   0.03795902893699      7.09942164575698      0.00139585983271
C   0.03033258741920      5.66948955970466     -0.00408752508301
C   -1.20098450790502      4.96927034791531      0.00488220885047
C   1.27795782581485      7.77285944319479      0.00277170839332
C   2.48535808472416      7.08769688523756      0.00049722048857
C   2.48612868491717      5.65477081024076     -0.00644052849921
C   1.25408291964399      4.95607811366431      0.00518741308898
C   3.75171459140595      7.76391215098033      0.00062407186893
C   4.92356605618520      7.07878077698995     -0.00143240883900
C   4.95560727132542      5.64344746336949     -0.00159282164606
C   3.70680153420475      4.94121020833308      0.00349873852374
H   -3.65852113775815      8.89082741913536      0.00358502958574
H   -1.18921332975660      8.87412108735996      0.00753844057883
H   1.28429423888630      8.86083343548850      0.00693053253426
H   3.75354208679975      8.85103527897216      0.00214659618464
H   5.86995870320703      7.61379483465560     -0.00235777588134
H   -5.78823170750226      7.67630221293400     -0.00202638095293
C   -6.09197395869619      4.99326001364347     -0.00291168518608
C   -6.12866148031747      3.58258016879823     -0.00171050815740
C   -3.66457974004527      3.56418217974434     -0.00463560277484
C   -4.89429820469869      2.86108077590057      0.00453338221034
C   -2.43733499489796      2.84761165708481      0.00719617576166
C   -1.20922785759670      3.54788693497833     -0.00648285103018
C   1.24714157216223      3.53468075142962     -0.00729145743546
C   0.01517603956900      2.83311183930540      0.00439272578912
C   2.46764517244071      2.82128997725533      0.00449278391269
C   3.70254947457969      3.52466015442405     -0.00899517692985
C   6.14498038638375      4.92757236613191     -0.00282626685777
C   6.16658835886151      3.51658447594213     -0.00065971342101
C   4.92460995845939      2.80840792535402      0.00587903281610
H   7.08990550964105      5.46688776622306     -0.00658814770723
H   -7.03104175110130      5.54268795285765     -0.00714490013730
C   -7.33969804112295      2.85841153457957     -0.00333767559888
C   -7.36488195805880      1.47032337158330     -0.00157213747140
C   -4.90350460894690      1.44442681216000     -0.00628840166334
C   -6.13225715261081      0.73993935705394      0.00600164231964
C   -3.67687480051673      0.72669714267312      0.00433931473643
C   -2.44565658606518      1.42964113326212     -0.00597039546461
C   -1.22360068130162      0.71532450163492      0.00545886906656
C   0.00763786931376      1.41738314923765      0.00392452278437
C   1.23121980774686      0.70211669058719     -0.01490206287210
C   2.46082110053113      1.40329203612573      0.00460244601878
C   3.68443025419614      0.68719842821222      0.00377365974158
C   4.91870890153864      1.39173456118907     -0.00862816189375
C   7.36980207796101      2.77948220318441     -0.00242013321349
C   7.38016266612146      1.39121750785509     -0.00087345036788
C   6.13979953912259      0.67411862320065      0.00545489144369
H   -8.27919079934664      3.40711804112415     -0.00763522772059
H   8.31511347147953      3.31811809662368     -0.00663070901292
C   -8.59175593758115      0.72483255304480     -0.00123170985383
C   -8.59902460370342     -0.63263980622873      0.00089141472904
C   -6.13981313911873     -0.67413663715361     -0.00609792660607
C   -7.38018411213749     -1.39126618958160      0.00131813493501
C   -4.91868448025621     -1.39175501803000      0.00624257154343
C   -3.68443829568458     -0.68723731573599     -0.00478966852105
C   -2.46081704024768     -1.40334517882457      0.00575341766833
C   -1.23116201232071     -0.70217386488055     -0.00636696112346
C   -0.00756962538737     -1.41741884941102      0.00108956317991
C   1.22364771588843     -0.71527537726392      0.01109518512883
C   2.44567064933149     -1.42964328900682     -0.00065482763106
C   3.67686670284649     -0.72670743155550     -0.00479541202602
C   6.13224884641929     -0.73997883984993     -0.00632338623858
C   4.90351914550401     -1.44445752054090      0.00751768830159
C   8.59901484869081      0.63260386666793     -0.00101133422380
C   8.59174548810050     -0.72485086719319      0.00072504603735
C   7.36486276438985     -1.47033266560598      0.00049486934466
H   -9.52830597181814      1.27684744919284     -0.00270163681798
H   9.54141097460619      1.17457248844457     -0.00206336648518
C   -7.36983790976868     -2.77954514593389      0.00312634335708
C   -4.92459910905015     -2.80843725734101     -0.00460528907921
C   -6.16662249566744     -3.51665219282533      0.00169655107992
C   -3.70251035970491     -3.52468154912026      0.00571878010666
C   -2.46764698511392     -2.82132596280400     -0.00632585824990
C   -0.01513347410770     -2.83314164539971     -0.00604426974092
C   -1.24712184122656     -3.53473217556300      0.00551968366725
C   1.20924506964357     -3.54791467864352      0.00805871345849
C   2.43733602215464     -2.84764173817541     -0.00608104485234
C   4.89430234377080     -2.86112296828604     -0.00526030478103
C   3.66461525504104     -3.56421984553201      0.00761911515957
C   6.12863901474565     -3.58258405771778      0.00096495711699
C   7.33967266469532     -2.85841330737039      0.00248018319869
H   -9.54144911125902     -1.17456346666430      0.00226083090216
H   9.52826186807155     -1.27691907390448      0.00197485379837
H   -8.31516504384864     -3.31814985321231      0.00729857188773
H   8.27915514249207     -3.40714078989363      0.00681973918158
C   -6.14499418870218     -4.92764727278338      0.00302254913999
C   -3.70678334799751     -4.94126171411716     -0.00679841894792
C   -4.95559005800169     -5.64349397349412      0.00116871569699
C   -2.48612132622665     -5.65478557440947      0.00614125209662
C   -1.25405833548005     -4.95612205000132     -0.00503435388927
C   1.20101257386816     -4.96928038819302     -0.00385322963129
C   -0.03033667441341     -5.66952030313900      0.00398997003238
C   3.65375010132847     -4.98074377541453     -0.00309522988330
C   2.42549269587528     -5.68117463552727      0.00628170066869
C   6.09196561781097     -4.99325796338655      0.00325918379042
C   4.89497644461045     -5.69634842095790      0.00202298796027
H   -7.08989238804069     -5.46699984223871      0.00742531082125
H   7.03105520920009     -5.54265853633254      0.00683896355417
C   -4.92354532219813     -7.07882109967734      0.00061394679214
C   -2.48534208823777     -7.08772807792913     -0.00189594564379
C   -3.75168589177895     -7.76394715763627     -0.00170126671874
C   -0.03794895698805     -7.09946487446944     -0.00168022049625
C   -1.27795610040136     -7.77290438466689     -0.00366491325785
C   2.40944432072629     -7.11402201200282     -0.00081701968533
C   1.19474993715296     -7.78618536556242     -0.00296931056689
C   4.84762105249800     -7.13126211057943      0.00168979497423
C   3.66847160587561     -7.80378799294376     -0.00065863938960
H   -5.86994035041618     -7.61383059804164      0.00215798365757
H   5.78824962538815     -7.67633218931421      0.00281691445618
H   -3.75352693944918     -8.85107156923607     -0.00353718114765
H   -1.28430440589466     -8.86087539249706     -0.00809229711623
H   1.18922157469537     -8.87416062058945     -0.00706194725726
H   3.65854661482387     -8.89086063405326     -0.00231318081200

    units angstrom      # Angstroms are the default
    no_reorient         # Geometry fixed, default
    symmetry c1         # C1 symmetry, default
}

set {
    scf_type DF         # Density fitting, faster than exact integrals
    freeze_core True    # Freeze core electrons
    basis jun-cc-pVDZ   # Jun-cc-pVDZ basis set, recommended for sSAPT0 in https://doi.org/10.1063/1.4867135
}

energy('ssapt0')        # Compute sSAPT0 energy, includes also SAPT0
--------------------------------------------------------------------------

  //              Dimer HF             //
    Molecular point group: c1
  Charge       = 1
  Multiplicity = 1
  Basis Set: JUN-CC-PVDZ
    Blend: JUN-CC-PVDZ
  Basis Set: (JUN-CC-PVDZ AUX)
    Blend: JUN-CC-PVDZ-JKFIT
  @DF-RHF Final Energy: -3953.63547750940597
    Total Energy =                      -3953.6354775094077922
 Dipole X            :         -0.0009092            0.0004804           -0.0004288
 Dipole Y            :         -1.6526203            1.8866171            0.2339968
 Dipole Z            :        -15.2468812           18.7704019            3.5235207
 Magnitude           :                                                    3.5312820
  //            Monomer A HF           //
    Molecular point group: c1
  Multiplicity = 1
  Basis Set: JUN-CC-PVDZ
    Blend: JUN-CC-PVDZ
  Basis Set: (JUN-CC-PVDZ AUX)
    Blend: JUN-CC-PVDZ-JKFIT
  @DF-RHF Final Energy:  -303.29973800123003
    Total Energy =                       -303.2997380012300255
  //            Monomer B HF           //
    Molecular point group: c1

    Geometry (in Angstrom), charge = 0, multiplicity = 1:

       Center              X                  Y                   Z               Mass
    ------------   -----------------  -----------------  -----------------  -----------------
      Gh(C)           0.680062820275    -1.215917226251     2.871687834634    12.000000000000
      Gh(C)          -0.680508179725    -1.215533226251     2.869659834634    12.000000000000
      Gh(N)          -1.085639179725     0.102790773749     2.868661834634    14.003074004430
      Gh(C)           0.000103820275     0.884191773749     2.865385834634    12.000000000000
      Gh(C)          -2.477369179725     0.570769773749     2.819255834634    12.000000000000
      Gh(N)           1.085217820275     0.102790773749     2.868661834634    14.003074004430
      Gh(H)           1.385141820275    -2.033356226251     2.879515834634     1.007825032230
      Gh(H)          -1.385306179725    -2.033202226251     2.869849834634     1.007825032230
      Gh(H)          -0.000013179725     1.965280773749     2.863638834634     1.007825032230
      Gh(C)           2.478112820275     0.567888773749     2.885553834634    12.000000000000
      Gh(H)           2.490587820275     1.658141773750     2.858208834634     1.007825032230
      Gh(H)           2.967023820275     0.220712773749     3.798999834634     1.007825032230
      Gh(H)           3.001423820275     0.176416773749     2.010070834634     1.007825032230
      Gh(H)          -2.857363179725     0.490810773749     1.797184834634     1.007825032230
      Gh(H)          -3.082683179725    -0.042294226251     3.489339834634     1.007825032230
      Gh(H)          -2.518132179725     1.610717773749     3.146239834634     1.007825032230
         C           -3.668445443746     7.803763943832    -0.234454124030    12.000000000000
         C           -4.847602899072     7.131253605090    -0.236820698963    12.000000000000
         C           -4.894963478901     5.696342177281    -0.237393610061    12.000000000000
         C           -3.653744858499     4.980742114708    -0.229733168331    12.000000000000
         C           -2.409429301220     7.113992810424    -0.234259781770    12.000000000000
         C           -2.425481523830     5.681133724653    -0.241264670640    12.000000000000
         C           -1.194748196161     7.786155968059    -0.232787601228    12.000000000000
         C            0.037954849212     7.099433419506    -0.234958305533    12.000000000000
         C            0.030328407694     5.669501333454    -0.240441690449    12.000000000000
         C           -1.200988687630     4.969282121665    -0.231471956515    12.000000000000
         C            1.277953646089     7.772871216944    -0.233582456972    12.000000000000
         C            2.485353904999     7.087708658987    -0.235856944877    12.000000000000
         C            2.486124505192     5.654782583990    -0.242794693865    12.000000000000
         C            1.254078739919     4.956089887414    -0.231166752277    12.000000000000
         C            3.751710411681     7.763923924730    -0.235730093497    12.000000000000
         C            4.923561876460     7.078792550739    -0.237786574205    12.000000000000
         C            4.955603091600     5.643459237119    -0.237946987012    12.000000000000
         C            3.706797354479     4.941221982083    -0.232855426842    12.000000000000
         H           -3.658525317484     8.890839192885    -0.232769135780     1.007825032230
         H           -1.189217509482     8.874132861109    -0.228815724787     1.007825032230
         H            1.284290059161     8.860845209238    -0.229423632831     1.007825032230
         H            3.753537907074     8.851047052722    -0.234207569181     1.007825032230
         H            5.869954523482     7.613806608405    -0.238711941247     1.007825032230
         H           -5.788235887228     7.676313986684    -0.238380546319     1.007825032230
         C           -6.091978138422     4.993271787393    -0.239265850552    12.000000000000
         C           -6.128665660043     3.582591942548    -0.238064673523    12.000000000000
         C           -3.664583919771     3.564193953494    -0.240989768141    12.000000000000
         C           -4.894302384424     2.861092549650    -0.231820783155    12.000000000000
         C           -2.437339174623     2.847623430834    -0.229157989604    12.000000000000
         C           -1.209232037322     3.547898708728    -0.242837016396    12.000000000000
         C            1.247137392437     3.534692525179    -0.243645622801    12.000000000000
         C            0.015171859844     2.833123613055    -0.231961439577    12.000000000000
         C            2.467640992715     2.821301751005    -0.231861381453    12.000000000000
         C            3.702545294854     3.524671928174    -0.245349342296    12.000000000000
         C            6.144976206658     4.927584139881    -0.239180432223    12.000000000000
         C            6.166584179136     3.516596249692    -0.237013878787    12.000000000000
         C            4.924605778734     2.808419699104    -0.230475132550    12.000000000000
         H            7.089901329916     5.466899539973    -0.242942313073     1.007825032230
         H           -7.031045930827     5.542699726607    -0.243499065503     1.007825032230
         C           -7.339702220848     2.858423308329    -0.239691840965    12.000000000000
         C           -7.364886137784     1.470335145333    -0.237926302837    12.000000000000
         C           -4.903508788672     1.444438585909    -0.242642567029    12.000000000000
         C           -6.132261332336     0.739951130803    -0.230352523046    12.000000000000
         C           -3.676878980242     0.726708916423    -0.232014850629    12.000000000000
         C           -2.445660765791     1.429652907012    -0.242324560830    12.000000000000
         C           -1.223604861027     0.715336275384    -0.230895296299    12.000000000000
         C            0.007633689588     1.417394922987    -0.232429642581    12.000000000000
         C            1.231215628021     0.702128464337    -0.251256228238    12.000000000000
         C            2.460816920806     1.403303809875    -0.231751719347    12.000000000000
         C            3.684426074471     0.687210201962    -0.232580505624    12.000000000000
         C            4.918704721813     1.391746334939    -0.244982327259    12.000000000000
         C            7.369797898236     2.779493976934    -0.238774298579    12.000000000000
         C            7.380158486396     1.391229281605    -0.237227615734    12.000000000000
         C            6.139795359397     0.674130396950    -0.230899273922    12.000000000000
         H           -8.279194979072     3.407129814874    -0.243989393086     1.007825032230
         H            8.315109291754     3.318129870373    -0.242984874379     1.007825032230
         C           -8.591760117307     0.724844326794    -0.237585875220    12.000000000000
         C           -8.599028783429    -0.632628032479    -0.235462750637    12.000000000000
         C           -6.139817318844    -0.674124863404    -0.242452091972    12.000000000000
         C           -7.380188291863    -1.391254415832    -0.235036030431    12.000000000000
         C           -4.918688659982    -1.391743244281    -0.230111593822    12.000000000000
         C           -3.684442475410    -0.687225541986    -0.241143833887    12.000000000000
         C           -2.460821219973    -1.403333405075    -0.230600747697    12.000000000000
         C           -1.231166192046    -0.702162091131    -0.242721126489    12.000000000000
         C           -0.007573805113    -1.417407075662    -0.235264602186    12.000000000000
         C            1.223643536163    -0.715263603514    -0.225258980237    12.000000000000
         C            2.445666469606    -1.429631515257    -0.237008992997    12.000000000000
         C            3.676862523121    -0.726695657806    -0.241149577392    12.000000000000
         C            6.132244666694    -0.739967066100    -0.242677551604    12.000000000000
         C            4.903514965779    -1.444445746791    -0.228836477064    12.000000000000
         C            8.599010668965     0.632615640417    -0.237365499590    12.000000000000
         C            8.591741308375    -0.724839093444    -0.235629119328    12.000000000000
         C            7.364858584664    -1.470320891856    -0.235859296021    12.000000000000
         H           -9.528310151544     1.276859222942    -0.239055802184     1.007825032230
         H            9.541406794881     1.174584262194    -0.238417531851     1.007825032230
         C           -7.369842089494    -2.779533372184    -0.233227822009    12.000000000000
         C           -4.924603288776    -2.808425483592    -0.240959454445    12.000000000000
         C           -6.166626675393    -3.516640419076    -0.234657614286    12.000000000000
         C           -3.702514539430    -3.524669775371    -0.230635385259    12.000000000000
         C           -2.467651164839    -2.821314189055    -0.242680023616    12.000000000000
         C           -0.015137653833    -2.833129871650    -0.242398435107    12.000000000000
         C           -1.247126020952    -3.534720401814    -0.230834481698    12.000000000000
         C            1.209240889918    -3.547902904894    -0.228295451907    12.000000000000
         C            2.437331842429    -2.847629964426    -0.242435210218    12.000000000000
         C            4.894298164045    -2.861111194537    -0.241614470147    12.000000000000
         C            3.664611075316    -3.564208071783    -0.228735050206    12.000000000000
         C            6.128634835020    -3.582572283968    -0.235389208249    12.000000000000
         C            7.339668484970    -2.858401533621    -0.233873982167    12.000000000000
         H           -9.541453290984    -1.174551692915    -0.234093334464     1.007825032230
         H            9.528257688346    -1.276907300155    -0.234379311567     1.007825032230
         H           -8.315169223574    -3.318138079463    -0.229055593478     1.007825032230
         H            8.279150962767    -3.407129016144    -0.229534426184     1.007825032230
         C           -6.144998368428    -4.927635499034    -0.233331616226    12.000000000000
         C           -3.706787527723    -4.941249940368    -0.243152584314    12.000000000000
         C           -4.955594237727    -5.643482199745    -0.235185449669    12.000000000000
         C           -2.486125505952    -5.654773800660    -0.230212913269    12.000000000000
         C           -1.254062515205    -4.956110276252    -0.241388519255    12.000000000000
         C            1.201008394143    -4.969268614444    -0.240207394997    12.000000000000
         C           -0.030340854139    -5.669508529390    -0.232364195333    12.000000000000
         C            3.653745921603    -4.980732001665    -0.239449395249    12.000000000000
         C            2.425488516150    -5.681162861778    -0.230072464697    12.000000000000
         C            6.091961438086    -4.993246189637    -0.233094981575    12.000000000000
         C            4.894972264885    -5.696336647208    -0.234331177405    12.000000000000
         H           -7.089896567766    -5.466988068489    -0.228928854544     1.007825032230
         H            7.031051029475    -5.542646762583    -0.229515201812     1.007825032230
         C           -4.923549501924    -7.078809325928    -0.235740218574    12.000000000000
         C           -2.485346267963    -7.087716304180    -0.238250111009    12.000000000000
         C           -3.751690071504    -7.763935383887    -0.238055432084    12.000000000000
         C           -0.037953136713    -7.099453100720    -0.238034385862    12.000000000000
         C           -1.277960280127    -7.772892610917    -0.240019078624    12.000000000000
         C            2.409440141001    -7.114010238253    -0.237171185051    12.000000000000
         C            1.194745757428    -7.786173591813    -0.239323475933    12.000000000000
         C            4.847616872773    -7.131250336830    -0.234664370391    12.000000000000
         C            3.668467426150    -7.803776219194    -0.237012804755    12.000000000000
         H           -5.869944530142    -7.613818824292    -0.234196181708     1.007825032230
         H            5.788245445663    -7.676320415565    -0.233537250910     1.007825032230
         H           -3.753531119175    -8.851059795487    -0.239891346513     1.007825032230
         H           -1.284308585620    -8.860863618748    -0.244446462482     1.007825032230
         H            1.189217394970    -8.874148846840    -0.243416112623     1.007825032230
         H            3.658542435098    -8.890848860304    -0.238667346178     1.007825032230

  Charge       = 0
  Multiplicity = 1
  Basis Set: JUN-CC-PVDZ
    Blend: JUN-CC-PVDZ
  Basis Set: (JUN-CC-PVDZ AUX)
    Blend: JUN-CC-PVDZ-JKFIT

    Orbital Energies [Eh]
    ---------------------

    Doubly Occupied:

       1A    -11.264106     2A    -11.263764     3A    -11.263719
       4A    -11.263339     5A    -11.263327     6A    -11.263246
       7A    -11.263142     8A    -11.263138     9A    -11.263070
      10A    -11.262849    11A    -11.262755    12A    -11.262710
      13A    -11.262242    14A    -11.262236    15A    -11.262199
      16A    -11.262179    17A    -11.262056    18A    -11.262042
      19A    -11.262018    20A    -11.261951    21A    -11.261948
      22A    -11.261859    23A    -11.261849    24A    -11.261683
      25A    -11.261677    26A    -11.261648    27A    -11.261640
      28A    -11.261600    29A    -11.261593    30A    -11.261516
      31A    -11.261488    32A    -11.261470    33A    -11.261464
      34A    -11.261449    35A    -11.261444    36A    -11.261423
      37A    -11.261250    38A    -11.261237    39A    -11.261230
      40A    -11.261223    41A    -11.261214    42A    -11.261208
      43A    -11.261200    44A    -11.261182    45A    -11.261179
      46A    -11.261154    47A    -11.261147    48A    -11.261132
      49A    -11.260997    50A    -11.260984    51A    -11.260951
      52A    -11.260918    53A    -11.260887    54A    -11.260840
      55A    -11.259811    56A    -11.259791    57A    -11.259785
      58A    -11.259763    59A    -11.259751    60A    -11.259733
      61A    -11.259173    62A    -11.259150    63A    -11.259137
      64A    -11.259092    65A    -11.259086    66A    -11.259056
      67A    -11.258811    68A    -11.258787    69A    -11.258783
      70A    -11.258760    71A    -11.258750    72A    -11.258733
      73A    -11.254463    74A    -11.254453    75A    -11.254446
      76A    -11.254444    77A    -11.254442    78A    -11.254433
      79A    -11.253573    80A    -11.253554    81A    -11.253553
      82A    -11.253546    83A    -11.253545    84A    -11.253539
      85A    -11.253488    86A    -11.253469    87A    -11.253466
      88A    -11.253460    89A    -11.253459    90A    -11.253452
      91A    -11.252990    92A    -11.252980    93A    -11.252974
      94A    -11.252971    95A    -11.252970    96A    -11.252961
      97A     -1.253751    98A     -1.238836    99A     -1.238805
     100A     -1.220313   101A     -1.220299   102A     -1.215278
     103A     -1.200906   104A     -1.195459   105A     -1.187980
     106A     -1.187962   107A     -1.173633   108A     -1.173631
     109A     -1.155458   110A     -1.155455   111A     -1.152551
     112A     -1.144598   113A     -1.144597   114A     -1.128406
     115A     -1.114539   116A     -1.113041   117A     -1.112326
     118A     -1.112297   119A     -1.111501   120A     -1.088271
     121A     -1.088252   122A     -1.076844   123A     -1.076842
     124A     -1.067458   125A     -1.067417   126A     -1.064805
     127A     -1.046652   128A     -1.046639   129A     -1.040329
     130A     -1.038619   131A     -1.038613   132A     -1.025067
     133A     -1.021204   134A     -1.021144   135A     -1.007041
     136A     -1.006640   137A     -1.003655   138A     -1.000326
     139A     -1.000268   140A     -0.990965   141A     -0.970832
     142A     -0.970780   143A     -0.955756   144A     -0.955697
     145A     -0.905439   146A     -0.905395   147A     -0.905390
     148A     -0.905359   149A     -0.904130   150A     -0.892165
     151A     -0.892108   152A     -0.890183   153A     -0.890132
     154A     -0.889283   155A     -0.872093   156A     -0.868959
     157A     -0.851400   158A     -0.847686   159A     -0.847675
     160A     -0.845416   161A     -0.842839   162A     -0.834410
     163A     -0.834399   164A     -0.828003   165A     -0.827993
     166A     -0.784408   167A     -0.784397   168A     -0.783499
     169A     -0.783485   170A     -0.782124   171A     -0.782107
     172A     -0.781860   173A     -0.766835   174A     -0.760602
     175A     -0.750403   176A     -0.733359   177A     -0.726924
     178A     -0.726887   179A     -0.724915   180A     -0.724393
     181A     -0.724359   182A     -0.718305   183A     -0.713597
     184A     -0.713591   185A     -0.699434   186A     -0.699412
     187A     -0.685939   188A     -0.685817   189A     -0.685807
     190A     -0.682024   191A     -0.682017   192A     -0.678627
     193A     -0.653484   194A     -0.650723   195A     -0.650691
     196A     -0.649626   197A     -0.649624   198A     -0.649431
     199A     -0.640754   200A     -0.640710   201A     -0.639941
     202A     -0.639027   203A     -0.635858   204A     -0.635824
     205A     -0.628981   206A     -0.617718   207A     -0.615174
     208A     -0.615147   209A     -0.608652   210A     -0.608645
     211A     -0.599082   212A     -0.599054   213A     -0.598586
     214A     -0.598418   215A     -0.598403   216A     -0.597860
     217A     -0.594931   218A     -0.594915   219A     -0.594569
     220A     -0.594032   221A     -0.591791   222A     -0.591788
     223A     -0.587190   224A     -0.577687   225A     -0.577668
     226A     -0.575629   227A     -0.575622   228A     -0.573229
     229A     -0.569523   230A     -0.567968   231A     -0.567945
     232A     -0.566593   233A     -0.566585   234A     -0.560801
     235A     -0.558554   236A     -0.558511   237A     -0.558309
     238A     -0.554209   239A     -0.550491   240A     -0.547361
     241A     -0.544181   242A     -0.534958   243A     -0.534949
     244A     -0.533392   245A     -0.533376   246A     -0.527941
     247A     -0.527921   248A     -0.527595   249A     -0.516995
     250A     -0.516969   251A     -0.515264   252A     -0.515260
     253A     -0.509502   254A     -0.509490   255A     -0.497871
     256A     -0.496301   257A     -0.496256   258A     -0.493729
     259A     -0.493708   260A     -0.489368   261A     -0.481310
     262A     -0.477323   263A     -0.477322   264A     -0.473842
     265A     -0.469254   266A     -0.466353   267A     -0.466351
     268A     -0.458715   269A     -0.446472   270A     -0.446422
     271A     -0.440949   272A     -0.440697   273A     -0.440663
     274A     -0.434592   275A     -0.433809   276A     -0.407280
     277A     -0.407255   278A     -0.386286   279A     -0.386237
     280A     -0.385638   281A     -0.385634   282A     -0.383640
     283A     -0.354213   284A     -0.354184   285A     -0.350545
     286A     -0.338008   287A     -0.335504   288A     -0.335455
     289A     -0.332608   290A     -0.332602   291A     -0.306918
     292A     -0.301827   293A     -0.301771   294A     -0.300724
     295A     -0.286053   296A     -0.256385   297A     -0.253373
     298A     -0.253321   299A     -0.204145   300A     -0.204065

  @DF-RHF Final Energy: -3650.34281805648379

   => Energetics <=

    Nuclear Repulsion Energy =          15611.4211649754324753
    One-Electron Energy =              -36072.2242408335951040
    Two-Electron Energy =               16810.4602578016783809
    Total Energy =                      -3650.3428180564842478
 Dipole X            :          0.0007634            0.0002112            0.0009746
 Dipole Y            :          0.0023382           -0.0044281           -0.0020899
 Dipole Z            :        267.9807341         -267.9833928           -0.0026587
 Magnitude           :                                                    0.0035194

    SAPT Results
  --------------------------------------------------------------------------------------------------------
    Electrostatics                -35.43937891 [mEh]     -22.23854601 [kcal/mol]     -93.04607651 [kJ/mol]
      Elst10,r                    -35.43937891 [mEh]     -22.23854601 [kcal/mol]     -93.04607651 [kJ/mol]

    Exchange                       67.35113061 [mEh]      42.26347253 [kcal/mol]     176.83036905 [kJ/mol]
      Exch10                       67.35113061 [mEh]      42.26347253 [kcal/mol]     176.83036905 [kJ/mol]
      Exch10(S^2)                  66.83456725 [mEh]      41.93932412 [kcal/mol]     175.47413214 [kJ/mol]

    Induction                     -24.83320339 [mEh]     -15.58307039 [kcal/mol]     -65.19956651 [kJ/mol]
      Ind20,r                     -42.34159842 [mEh]     -26.56975414 [kcal/mol]    -111.16785134 [kJ/mol]
      Exch-Ind20,r                 23.49099566 [mEh]      14.74082233 [kcal/mol]      61.67560061 [kJ/mol]
      delta HF,r (2)               -5.98260063 [mEh]      -3.75413857 [kcal/mol]     -15.70731579 [kJ/mol]

    Dispersion                    -55.92493865 [mEh]     -35.09342882 [kcal/mol]    -146.83090619 [kJ/mol]
      Disp20                      -62.67064511 [mEh]     -39.32642354 [kcal/mol]    -164.54175608 [kJ/mol]
      Exch-Disp20                   6.74570646 [mEh]       4.23299471 [kcal/mol]      17.71084988 [kJ/mol]
      Disp20 (SS)                 -31.33532256 [mEh]     -19.66321177 [kcal/mol]     -82.27087804 [kJ/mol]
      Disp20 (OS)                 -31.33532256 [mEh]     -19.66321177 [kcal/mol]     -82.27087804 [kJ/mol]
      Exch-Disp20 (SS)              4.05434300 [mEh]       2.54413865 [kcal/mol]      10.64467609 [kJ/mol]
      Exch-Disp20 (OS)              2.69136346 [mEh]       1.68885607 [kcal/mol]       7.06617379 [kJ/mol]

  Total HF                          7.07854831 [mEh]       4.44185612 [kcal/mol]      18.58472602 [kJ/mol]
  Total SAPT0                     -48.84639034 [mEh]     -30.65157270 [kcal/mol]    -128.24618017 [kJ/mol]

  Special recipe for scaled SAPT0 (see Manual):
    Electrostatics sSAPT0         -35.43937891 [mEh]     -22.23854601 [kcal/mol]     -93.04607651 [kJ/mol]
    Exchange sSAPT0                67.35113061 [mEh]      42.26347253 [kcal/mol]     176.83036905 [kJ/mol]
    Induction sSAPT0              -24.28429803 [mEh]     -15.23862708 [kcal/mol]     -63.75841570 [kJ/mol]
    Dispersion sSAPT0             -55.76731424 [mEh]     -34.99451801 [kcal/mol]    -146.41706335 [kJ/mol]
  Total sSAPT0                    -48.13986057 [mEh]     -30.20821858 [kcal/mol]    -126.39118652 [kJ/mol]
  --------------------------------------------------------------------------------------------------------

*** Psi4 exiting successfully. Buy a developer a beer!
