                               Psi4 1.9 release

  ==> Input File <==

--------------------------------------------------------------------------
memory 32 GB # how much memory is available ! Depends on the nodes/cores !

molecule dimer {
# monomer A
+1 1    # Charge and multiplicity
C  0.680067 1.417258 -8.615929
C -0.680504 1.419286 -8.615545
N -1.085635 1.420284 -7.297221
C  0.000108 1.423560 -6.515820
C -2.477365 1.469690 -6.829242
N  1.085222 1.420284 -7.297221
H  1.385146 1.409430 -9.433368
H -1.385302 1.419096 -9.433214
H -0.000009 1.425307 -5.434731
C  2.478117 1.403392 -6.832123
H  2.490592 1.430737 -5.741870
H  2.967028 0.489946 -7.179299
H  3.001428 2.278875 -7.223595
H -2.857359 2.491761 -6.909201
H -3.082679 0.799606 -7.442306
H -2.518128 1.142706 -5.789294
--
# monomer B
0 1     # Charge and multiplicity
C   1.22531237526482      0.70753866091955      0.00613762728373
C   1.22532433589282     -0.70753852257020     -0.00619318228664
C   -0.00000567409046      1.41496628609039     -0.00672680580738
C   2.45644923379077      1.41832825917820      0.00902448468363
C   0.00001130712078     -1.41497612663474      0.00347275151708
C   -1.22530046906674      0.70754574598412      0.00838914760619
C   2.45643823516184     -1.41832293188077     -0.00843833914343
C   -0.00000085313587      2.83680140328112     -0.00913035594137
C   3.68182717731192      0.70931832800114     -0.00808954934571
C   2.45512052870677      2.83422403348893     -0.00819210630633
C   3.68182158506039     -0.70933346742900      0.00798293467272
C   -1.22531311884624     -0.70752714354401     -0.00512042085974
C   1.22670006104402      3.54346985599427      0.00816696660346
C   0.00000526469929     -2.83678176723568      0.00832091913869
C   -2.45643555300670      1.41831729028492      0.00842454345199
C   2.45512389762097     -2.83422965658853      0.00783102630520
C   -1.22671388474763      3.54346943575023      0.00827029982280
C   4.91451777504333      1.42717324448953     -0.00160886631602
C   3.69315067131765      3.54279566454522     -0.00155906667985
C   -2.45643712022637     -1.41831290883911     -0.00846337726810
C   1.22670532178455     -3.54347386990643     -0.00780316414624
C   -2.45512491866593      2.83421703463423     -0.00818572995999
C   4.91452486062398     -1.42718653794377      0.00136387641845
C   1.22142509354026      4.97013443726031      0.00150231067809
C   4.89300870916237      2.82518837202648     -0.00039219795739
C   -1.22669652864725     -3.54347062507680     -0.00753595973677
C   -3.68181849668397      0.70932533873199     -0.00807686886569
C   3.69314758099218     -3.54280096939050      0.00148176697923
C   -1.22143177215231      4.97012866986289      0.00168580605083
C   6.13477145276790      0.68054831910577     -0.00083909176631
C   3.65678936045204      4.97295361556775     -0.00065042889723
C   -2.45512642789169     -2.83421472106065      0.00758666850712
C   -3.68181869921921     -0.70932533146830      0.00810055625144
C   4.89301309775526     -2.82519973363176      0.00021895393805
C   -0.00000059327114      5.65044773803267      0.00045449734393
C   6.13477559217374     -0.68055448207492      0.00042622874941
C   2.47813196269732      5.65357712333155      0.00063835075260
C   1.22142288457925     -4.97012668293268     -0.00129718634452
C   -3.69316190412301      3.54279732619245     -0.00139355922051
C   -1.22142804110313     -4.97011793159564     -0.00140994817719
C   -4.91452132810043      1.42717581899491     -0.00153192130862
C   3.65678749952045     -4.97295485423912      0.00080007163680
C   -2.47813805026426      5.65357479452875      0.00092287576113
C   -3.69314125872231     -3.54278984697859      0.00136564082345
C   -4.91451200321153     -1.42718062802730      0.00139857359209
C   -0.00000552908399     -5.65043791501335      0.00005899322272
C   -4.89302000425900      2.82518897091939     -0.00040227981744
C   2.47812647313991     -5.65357317188818     -0.00029052915548
C   -3.65679823041642      4.97295655404175     -0.00047374852278
C   -4.89299899901461     -2.82519139505969      0.00006491824035
C   -2.47812801824129     -5.65356579800621     -0.00056571680280
C   -6.13477002348955      0.68054913825639     -0.00086464346868
C   -3.65678835334731     -4.97294365097028      0.00058578382008
C   -6.13476456307132     -0.68055354348201      0.00040575295444
H   5.83528897565761      3.36927626695423      0.00396712770529
H   7.07385965258860      1.22821762089947     -0.00037744837300
H   4.60066374401555      5.51238117445323     -0.00014522814529
H   5.83528386714679     -3.36930568472863     -0.00423551337640
H   -0.00001167146422      6.73853104613662     -0.00389474766392
H   7.07386165167227     -1.22822657074368     -0.00008250934481
H   2.47331421164041      6.74068466339473      0.00017162982210
H   4.60066897122302     -5.51237575717576      0.00039007446835
H   -2.47331820069565      6.74068209160650      0.00047297644710
H   -0.00000978838621     -6.73852780445195      0.00458867820736
H   -5.83530143450167      3.36927132229595      0.00410314985360
H   2.47330840367253     -6.74068500242887      0.00027980126949
H   -4.60067436136587      5.51237839860371      0.00002010017831
H   -5.83527902699321     -3.36928859177951     -0.00451481925734
H   -2.47329986759855     -6.74067870613986     -0.00016951527498
H   -7.07385728692578      1.22822084484047     -0.00046143985387
H   -4.60067330624313     -5.51236229778631      0.00021776644566
H   -7.07385645456741     -1.22822025997701     -0.00017736581114

    units angstrom      # Angstroms are the default
    no_reorient         # Geometry fixed, default
    symmetry c1         # C1 symmetry, default
}

set {
    scf_type DF         # Density fitting, faster than exact integrals
    freeze_core True    # Freeze core electrons
    basis jun-cc-pVDZ   # Jun-cc-pVDZ basis set, recommended for sSAPT0 in https://doi.org/10.1063/1.4867135
}

energy('ssapt0')        # Compute sSAPT0 energy, includes also SAPT0
--------------------------------------------------------------------------

  //              Dimer HF             //
    Molecular point group: c1
  Charge       = 1
  Multiplicity = 1
  Basis Set: JUN-CC-PVDZ
    Blend: JUN-CC-PVDZ
  Basis Set: (JUN-CC-PVDZ AUX)
    Blend: JUN-CC-PVDZ-JKFIT
  @DF-RHF Final Energy: -2359.19851561051973
    Total Energy =                      -2359.1985156105201895
 Dipole X            :         -0.0015078            0.0006313           -0.0008765
 Dipole Y            :         -5.5757959            7.4856329            1.9098370
 Dipole Z            :         25.7688906          -36.6869940          -10.9181034
 Magnitude           :                                                   11.0838829
  //            Monomer A HF           //
    Molecular point group: c1
  Multiplicity = 1
  Basis Set: JUN-CC-PVDZ
    Blend: JUN-CC-PVDZ
  Basis Set: (JUN-CC-PVDZ AUX)
    Blend: JUN-CC-PVDZ-JKFIT
  @DF-RHF Final Energy:  -303.29723145110870
    Total Energy =                       -303.2972314511087006
  //            Monomer B HF           //
    Molecular point group: c1

    Geometry (in Angstrom), charge = 0, multiplicity = 1:

       Center              X                  Y                   Z               Mass
    ------------   -----------------  -----------------  -----------------  -----------------
      Gh(C)           0.680066520158     1.235968212970    -7.674696674845    12.000000000000
      Gh(C)          -0.680504479842     1.237996212970    -7.674312674845    12.000000000000
      Gh(N)          -1.085635479842     1.238994212970    -6.355988674845    14.003074004430
      Gh(C)           0.000107520158     1.242270212970    -5.574587674845    12.000000000000
      Gh(C)          -2.477365479842     1.288400212970    -5.888009674845    12.000000000000
      Gh(N)           1.085221520158     1.238994212970    -6.355988674845    14.003074004430
      Gh(H)           1.385145520158     1.228140212970    -8.492135674845     1.007825032230
      Gh(H)          -1.385302479842     1.237806212970    -8.491981674845     1.007825032230
      Gh(H)          -0.000009479842     1.244017212970    -4.493498674845     1.007825032230
      Gh(C)           2.478116520158     1.222102212970    -5.890890674845    12.000000000000
      Gh(H)           2.490591520158     1.249447212970    -4.800637674845     1.007825032230
      Gh(H)           2.967027520158     0.308656212970    -6.238066674845     1.007825032230
      Gh(H)           3.001427520158     2.097585212970    -6.282362674845     1.007825032230
      Gh(H)          -2.857359479842     2.310471212970    -5.967968674845     1.007825032230
      Gh(H)          -3.082679479842     0.618316212970    -6.501073674845     1.007825032230
      Gh(H)          -2.518128479842     0.961416212970    -4.848061674845     1.007825032230
         C            1.225311895423     0.526248873889     0.947369952439    12.000000000000
         C            1.225323856051    -0.888828309601     0.935039142868    12.000000000000
         C           -0.000006153932     1.233676499060     0.934505519348    12.000000000000
         C            2.456448753949     1.237038472148     0.950256809839    12.000000000000
         C            0.000010827279    -1.596265913665     0.944705076672    12.000000000000
         C           -1.225300948908     0.526255958954     0.949621472761    12.000000000000
         C            2.456437755320    -1.599612718911     0.932793986012    12.000000000000
         C           -0.000001332978     2.655511616251     0.932101969214    12.000000000000
         C            3.681826697470     0.528028540971     0.933142775809    12.000000000000
         C            2.455120048865     2.652934246459     0.933040218849    12.000000000000
         C            3.681821105219    -0.890623254459     0.949215259828    12.000000000000
         C           -1.225313598688    -0.888816930574     0.936111904295    12.000000000000
         C            1.226699581202     3.362180068964     0.949399291759    12.000000000000
         C            0.000004784858    -3.018071554266     0.949553244294    12.000000000000
         C           -2.456436032848     1.237027503255     0.949656868607    12.000000000000
         C            2.455123417779    -3.015519443619     0.949063351460    12.000000000000
         C           -1.226714364589     3.362179648720     0.949502624978    12.000000000000
         C            4.914517295202     1.245883457459     0.939623458839    12.000000000000
         C            3.693150191476     3.361505877515     0.939673258475    12.000000000000
         C           -2.456437600068    -1.599602695869     0.932768947887    12.000000000000
         C            1.226704841943    -3.724763656937     0.933429161009    12.000000000000
         C           -2.455125398508     2.652927247604     0.933046595195    12.000000000000
         C            4.914524380782    -1.608476324974     0.942596201574    12.000000000000
         C            1.221424613699     4.788844650230     0.942734635833    12.000000000000
         C            4.893008229321     2.643898584996     0.940840127198    12.000000000000
         C           -1.226697008489    -3.724760412107     0.933696365418    12.000000000000
         C           -3.681818976526     0.528035551702     0.933155456289    12.000000000000
         C            3.693147101150    -3.724090756421     0.942714092134    12.000000000000
         C           -1.221432251994     4.788838882833     0.942918131206    12.000000000000
         C            6.134770972926     0.499258532075     0.940393233389    12.000000000000
         C            3.656788880610     4.791663828537     0.940581896258    12.000000000000
         C           -2.455126907733    -3.015504508091     0.948818993662    12.000000000000
         C           -3.681819179061    -0.890615118499     0.949332881407    12.000000000000
         C            4.893012617914    -3.006489520662     0.941451279093    12.000000000000
         C           -0.000001073113     5.469157951002     0.941686822499    12.000000000000
         C            6.134775112332    -0.861844269105     0.941658553905    12.000000000000
         C            2.478131482856     5.472287336301     0.941870675908    12.000000000000
         C            1.221422404738    -5.151416469963     0.939935138811    12.000000000000
         C           -3.693162383965     3.361507539162     0.939838765935    12.000000000000
         C           -1.221428520945    -5.151407718626     0.939822376978    12.000000000000
         C           -4.914521807942     1.245886031965     0.939700403846    12.000000000000
         C            3.656787019679    -5.154244641269     0.942032396792    12.000000000000
         C           -2.478138530106     5.472285007498     0.942155200916    12.000000000000
         C           -3.693141738564    -3.724079634009     0.942597965979    12.000000000000
         C           -4.914512483053    -1.608470415058     0.942630898747    12.000000000000
         C           -0.000006008926    -5.831727702044     0.941291318378    12.000000000000
         C           -4.893020484101     2.643899183889     0.940830045338    12.000000000000
         C            2.478125993298    -5.834862958919     0.940941796000    12.000000000000
         C           -3.656798710258     4.791666767011     0.940758576632    12.000000000000
         C           -4.892999478856    -3.006481182090     0.941297243395    12.000000000000
         C           -2.478128498083    -5.834855585037     0.940666608352    12.000000000000
         C           -6.134770503331     0.499259351226     0.940367681686    12.000000000000
         C           -3.656788833189    -5.154233438001     0.941818108975    12.000000000000
         C           -6.134765042913    -0.861843330512     0.941638078110    12.000000000000
         H            5.835288495816     3.187986479924     0.945199452860     1.007825032230
         H            7.073859172747     1.046927833869     0.940854876782     1.007825032230
         H            4.600663264174     5.331091387423     0.941087097010     1.007825032230
         H            5.835283387305    -3.550595471759     0.936996811779     1.007825032230
         H           -0.000012151306     6.557241259106     0.937337577491     1.007825032230
         H            7.073861171831    -1.409516357774     0.941149815810     1.007825032230
         H            2.473313731799     6.559394876364     0.941403954977     1.007825032230
         H            4.600668491381    -5.693665544206     0.941622399623     1.007825032230
         H           -2.473318680537     6.559392304576     0.941705301602     1.007825032230
         H           -0.000010268228    -6.919817591482     0.945821003362     1.007825032230
         H           -5.835301914343     3.187981535266     0.945335475009     1.007825032230
         H            2.473307923831    -6.921974789459     0.941512126425     1.007825032230
         H           -4.600674841208     5.331088611573     0.941252425333     1.007825032230
         H           -5.835279506835    -3.550578378810     0.936717505898     1.007825032230
         H           -2.473300347440    -6.921968493170     0.941062809880     1.007825032230
         H           -7.073857766768     1.046931057810     0.940770885301     1.007825032230
         H           -4.600673786085    -5.693652084817     0.941450091601     1.007825032230
         H           -7.073856934409    -1.409510047007     0.941054959344     1.007825032230

  Charge       = 0
  Multiplicity = 1
  Basis Set: JUN-CC-PVDZ
    Blend: JUN-CC-PVDZ
  Basis Set: (JUN-CC-PVDZ AUX)
    Blend: JUN-CC-PVDZ-JKFIT

    Orbital Energies [Eh]
    ---------------------

    Doubly Occupied:

       1A    -11.260649     2A    -11.260206     3A    -11.260205
       4A    -11.259496     5A    -11.259495     6A    -11.259326
       7A    -11.259117     8A    -11.259040     9A    -11.259038
      10A    -11.258714    11A    -11.258711    12A    -11.258642
      13A    -11.258580    14A    -11.258575    15A    -11.258572
      16A    -11.258543    17A    -11.258538    18A    -11.258521
      19A    -11.258508    20A    -11.258502    21A    -11.258497
      22A    -11.258398    23A    -11.258395    24A    -11.258095
      25A    -11.257436    26A    -11.257375    27A    -11.257373
      28A    -11.257239    29A    -11.257238    30A    -11.257154
      31A    -11.256531    32A    -11.256460    33A    -11.256460
      34A    -11.256351    35A    -11.256350    36A    -11.256303
      37A    -11.252385    38A    -11.252383    39A    -11.252379
      40A    -11.252377    41A    -11.252375    42A    -11.252373
      43A    -11.251516    44A    -11.251510    45A    -11.251508
      46A    -11.251504    47A    -11.251501    48A    -11.251495
      49A    -11.250947    50A    -11.250943    51A    -11.250940
      52A    -11.250938    53A    -11.250936    54A    -11.250934
      55A     -1.244258    56A     -1.219984    57A     -1.219982
      58A     -1.189694    59A     -1.189687    60A     -1.181131
      61A     -1.157697    62A     -1.149127    63A     -1.135673
      64A     -1.135664    65A     -1.113330    66A     -1.113325
      67A     -1.082597    68A     -1.082589    69A     -1.078777
      70A     -1.066113    71A     -1.066110    72A     -1.039549
      73A     -1.024454    74A     -1.021957    75A     -1.021912
      76A     -1.017861    77A     -1.012924    78A     -0.987188
      79A     -0.987141    80A     -0.962021    81A     -0.961971
      82A     -0.894439    83A     -0.894413    84A     -0.888127
      85A     -0.886374    86A     -0.886317    87A     -0.881566
      88A     -0.881519    89A     -0.862045    90A     -0.837528
      91A     -0.818360    92A     -0.816796    93A     -0.812305
      94A     -0.812297    95A     -0.794827    96A     -0.794817
      97A     -0.746802    98A     -0.745031    99A     -0.733596
     100A     -0.733588   101A     -0.732324   102A     -0.732302
     103A     -0.716667   104A     -0.699121   105A     -0.699109
     106A     -0.693745   107A     -0.693727   108A     -0.661372
     109A     -0.653298   110A     -0.651342   111A     -0.650390
     112A     -0.650385   113A     -0.639501   114A     -0.639498
     115A     -0.629880   116A     -0.627692   117A     -0.627675
     118A     -0.606467   119A     -0.605915   120A     -0.601831
     121A     -0.599890   122A     -0.599857   123A     -0.593791
     124A     -0.591415   125A     -0.591403   126A     -0.585396
     127A     -0.576426   128A     -0.576413   129A     -0.567453
     130A     -0.567438   131A     -0.566130   132A     -0.566112
     133A     -0.558905   134A     -0.554994   135A     -0.554989
     136A     -0.538732   137A     -0.538730   138A     -0.538276
     139A     -0.538270   140A     -0.529865   141A     -0.528201
     142A     -0.523022   143A     -0.523013   144A     -0.500641
     145A     -0.495703   146A     -0.493379   147A     -0.487931
     148A     -0.485233   149A     -0.481915   150A     -0.481907
     151A     -0.470419   152A     -0.470407   153A     -0.451212
     154A     -0.451135   155A     -0.439171   156A     -0.439162
     157A     -0.404850   158A     -0.404827   159A     -0.403472
     160A     -0.375525   161A     -0.375522   162A     -0.349228
     163A     -0.337692   164A     -0.336658   165A     -0.336604
     166A     -0.311204   167A     -0.298193   168A     -0.284457
     169A     -0.284405   170A     -0.225027   171A     -0.224962

  @DF-RHF Final Energy: -2055.89193609735003

   => Energetics <=

    Nuclear Repulsion Energy =           6452.5568002797781446
    One-Electron Energy =              -15636.4357440214134840
    Two-Electron Energy =                7127.9870076442839490
    Total Energy =                      -2055.8919360973504808
 Dipole X            :          0.0001191           -0.0000085            0.0001106
 Dipole Y            :        117.1658296         -117.1648546            0.0009750
 Dipole Z            :       -608.2998222          608.3041468            0.0043245
 Magnitude           :                                                    0.0044344

    SAPT Results
  --------------------------------------------------------------------------------------------------------
    Electrostatics                 -7.06496505 [mEh]      -4.43333250 [kcal/mol]     -18.54906319 [kJ/mol]
      Elst10,r                     -7.06496505 [mEh]      -4.43333250 [kcal/mol]     -18.54906319 [kJ/mol]

    Exchange                       -0.00014653 [mEh]      -0.00009195 [kcal/mol]      -0.00038472 [kJ/mol]
      Exch10                       -0.00014653 [mEh]      -0.00009195 [kcal/mol]      -0.00038472 [kJ/mol]
      Exch10(S^2)                  -0.00014653 [mEh]      -0.00009195 [kcal/mol]      -0.00038472 [kJ/mol]

    Induction                      -2.28295048 [mEh]      -1.43257305 [kcal/mol]      -5.99388565 [kJ/mol]
      Ind20,r                      -2.23937251 [mEh]      -1.40522746 [kcal/mol]      -5.87947171 [kJ/mol]
      Exch-Ind20,r                  0.00037018 [mEh]       0.00023229 [kcal/mol]       0.00097191 [kJ/mol]
      delta HF,r (2)               -0.04394815 [mEh]      -0.02757788 [kcal/mol]      -0.11538584 [kJ/mol]

    Dispersion                     -1.14440422 [mEh]      -0.71812449 [kcal/mol]      -3.00463287 [kJ/mol]
      Disp20                       -1.14454364 [mEh]      -0.71821198 [kcal/mol]      -3.00499892 [kJ/mol]
      Exch-Disp20                   0.00013942 [mEh]       0.00008749 [kcal/mol]       0.00036605 [kJ/mol]
      Disp20 (SS)                  -0.57227182 [mEh]      -0.35910599 [kcal/mol]      -1.50249946 [kJ/mol]
      Disp20 (OS)                  -0.57227182 [mEh]      -0.35910599 [kcal/mol]      -1.50249946 [kJ/mol]
      Exch-Disp20 (SS)              0.00010549 [mEh]       0.00006620 [kcal/mol]       0.00027696 [kJ/mol]
      Exch-Disp20 (OS)              0.00003393 [mEh]       0.00002129 [kcal/mol]       0.00008909 [kJ/mol]

  Total HF                         -9.34806206 [mEh]      -5.86599750 [kcal/mol]     -24.54333356 [kJ/mol]
  Total SAPT0                     -10.49246628 [mEh]      -6.58412200 [kcal/mol]     -27.54796643 [kJ/mol]

  Special recipe for scaled SAPT0 (see Manual):
    Electrostatics sSAPT0          -7.06496505 [mEh]      -4.43333250 [kcal/mol]     -18.54906319 [kJ/mol]
    Exchange sSAPT0                -0.00014653 [mEh]      -0.00009195 [kcal/mol]      -0.00038472 [kJ/mol]
    Induction sSAPT0               -2.28295048 [mEh]      -1.43257305 [kcal/mol]      -5.99388565 [kJ/mol]
    Dispersion sSAPT0              -1.14440422 [mEh]      -0.71812449 [kcal/mol]      -3.00463287 [kJ/mol]
  Total sSAPT0                    -10.49246628 [mEh]      -6.58412200 [kcal/mol]     -27.54796643 [kJ/mol]
  --------------------------------------------------------------------------------------------------------

*** Psi4 exiting successfully. Buy a developer a beer!
