                               Psi4 1.9 release

  ==> Input File <==

--------------------------------------------------------------------------
memory 32 GB # how much memory is available ! Depends on the nodes/cores !

molecule dimer {
# monomer A
-1 1    # Charge and multiplicity
B -0.000046  0.000337 7.999994
F -1.153597  0.000048 8.815641
F  1.153661 -0.000581 8.815641
F -0.000019 -1.153637 7.184360
F -0.000019  1.153978 7.184360
--
# monomer B
0 1     # Charge and multiplicity
C   1.22531237526482      0.70753866091955      0.00613762728373
C   1.22532433589282     -0.70753852257020     -0.00619318228664
C   -0.00000567409046      1.41496628609039     -0.00672680580738
C   2.45644923379077      1.41832825917820      0.00902448468363
C   0.00001130712078     -1.41497612663474      0.00347275151708
C   -1.22530046906674      0.70754574598412      0.00838914760619
C   2.45643823516184     -1.41832293188077     -0.00843833914343
C   -0.00000085313587      2.83680140328112     -0.00913035594137
C   3.68182717731192      0.70931832800114     -0.00808954934571
C   2.45512052870677      2.83422403348893     -0.00819210630633
C   3.68182158506039     -0.70933346742900      0.00798293467272
C   -1.22531311884624     -0.70752714354401     -0.00512042085974
C   1.22670006104402      3.54346985599427      0.00816696660346
C   0.00000526469929     -2.83678176723568      0.00832091913869
C   -2.45643555300670      1.41831729028492      0.00842454345199
C   2.45512389762097     -2.83422965658853      0.00783102630520
C   -1.22671388474763      3.54346943575023      0.00827029982280
C   4.91451777504333      1.42717324448953     -0.00160886631602
C   3.69315067131765      3.54279566454522     -0.00155906667985
C   -2.45643712022637     -1.41831290883911     -0.00846337726810
C   1.22670532178455     -3.54347386990643     -0.00780316414624
C   -2.45512491866593      2.83421703463423     -0.00818572995999
C   4.91452486062398     -1.42718653794377      0.00136387641845
C   1.22142509354026      4.97013443726031      0.00150231067809
C   4.89300870916237      2.82518837202648     -0.00039219795739
C   -1.22669652864725     -3.54347062507680     -0.00753595973677
C   -3.68181849668397      0.70932533873199     -0.00807686886569
C   3.69314758099218     -3.54280096939050      0.00148176697923
C   -1.22143177215231      4.97012866986289      0.00168580605083
C   6.13477145276790      0.68054831910577     -0.00083909176631
C   3.65678936045204      4.97295361556775     -0.00065042889723
C   -2.45512642789169     -2.83421472106065      0.00758666850712
C   -3.68181869921921     -0.70932533146830      0.00810055625144
C   4.89301309775526     -2.82519973363176      0.00021895393805
C   -0.00000059327114      5.65044773803267      0.00045449734393
C   6.13477559217374     -0.68055448207492      0.00042622874941
C   2.47813196269732      5.65357712333155      0.00063835075260
C   1.22142288457925     -4.97012668293268     -0.00129718634452
C   -3.69316190412301      3.54279732619245     -0.00139355922051
C   -1.22142804110313     -4.97011793159564     -0.00140994817719
C   -4.91452132810043      1.42717581899491     -0.00153192130862
C   3.65678749952045     -4.97295485423912      0.00080007163680
C   -2.47813805026426      5.65357479452875      0.00092287576113
C   -3.69314125872231     -3.54278984697859      0.00136564082345
C   -4.91451200321153     -1.42718062802730      0.00139857359209
C   -0.00000552908399     -5.65043791501335      0.00005899322272
C   -4.89302000425900      2.82518897091939     -0.00040227981744
C   2.47812647313991     -5.65357317188818     -0.00029052915548
C   -3.65679823041642      4.97295655404175     -0.00047374852278
C   -4.89299899901461     -2.82519139505969      0.00006491824035
C   -2.47812801824129     -5.65356579800621     -0.00056571680280
C   -6.13477002348955      0.68054913825639     -0.00086464346868
C   -3.65678835334731     -4.97294365097028      0.00058578382008
C   -6.13476456307132     -0.68055354348201      0.00040575295444
H   5.83528897565761      3.36927626695423      0.00396712770529
H   7.07385965258860      1.22821762089947     -0.00037744837300
H   4.60066374401555      5.51238117445323     -0.00014522814529
H   5.83528386714679     -3.36930568472863     -0.00423551337640
H   -0.00001167146422      6.73853104613662     -0.00389474766392
H   7.07386165167227     -1.22822657074368     -0.00008250934481
H   2.47331421164041      6.74068466339473      0.00017162982210
H   4.60066897122302     -5.51237575717576      0.00039007446835
H   -2.47331820069565      6.74068209160650      0.00047297644710
H   -0.00000978838621     -6.73852780445195      0.00458867820736
H   -5.83530143450167      3.36927132229595      0.00410314985360
H   2.47330840367253     -6.74068500242887      0.00027980126949
H   -4.60067436136587      5.51237839860371      0.00002010017831
H   -5.83527902699321     -3.36928859177951     -0.00451481925734
H   -2.47329986759855     -6.74067870613986     -0.00016951527498
H   -7.07385728692578      1.22822084484047     -0.00046143985387
H   -4.60067330624313     -5.51236229778631      0.00021776644566
H   -7.07385645456741     -1.22822025997701     -0.00017736581114

    units angstrom      # Angstroms are the default
    no_reorient         # Geometry fixed, default
    symmetry c1         # C1 symmetry, default
}

set {
    scf_type DF         # Density fitting, faster than exact integrals
    freeze_core True    # Freeze core electrons
    basis jun-cc-pVDZ   # Jun-cc-pVDZ basis set, recommended for sSAPT0 in https://doi.org/10.1063/1.4867135
}

energy('ssapt0')        # Compute sSAPT0 energy, includes also SAPT0
--------------------------------------------------------------------------

  //              Dimer HF             //
    Molecular point group: c1
  Charge       = -1
  Multiplicity = 1
  Basis Set: JUN-CC-PVDZ
    Blend: JUN-CC-PVDZ
  Basis Set: (JUN-CC-PVDZ AUX)
    Blend: JUN-CC-PVDZ-JKFIT
  @DF-RHF Final Energy: -2478.65845404944366
    Total Energy =                      -2478.6584540494441171
 Dipole X            :         -0.0001738           -0.0000160           -0.0001898
 Dipole Y            :          0.0013218           -0.0001716            0.0011502
 Dipole Z            :         36.3219437          -49.0424937          -12.7205500
 Magnitude           :                                                   12.7205501
  //            Monomer A HF           //
    Molecular point group: c1
  Multiplicity = 1
  Basis Set: JUN-CC-PVDZ
    Blend: JUN-CC-PVDZ
  Basis Set: (JUN-CC-PVDZ AUX)
    Blend: JUN-CC-PVDZ-JKFIT
  @DF-RHF Final Energy:  -422.77140653214809
    Total Energy =                       -422.7714065321480916
  //            Monomer B HF           //
    Molecular point group: c1

    Geometry (in Angstrom), charge = 0, multiplicity = 1:

       Center              X                  Y                   Z               Mass
    ------------   -----------------  -----------------  -----------------  -----------------
      Gh(B)          -0.000046449334     0.000336519434     7.075838923161    11.009305360000
      Gh(F)          -1.153597449334     0.000047519434     7.891485923161    18.998403162730
      Gh(F)           1.153660550666    -0.000581480566     7.891485923161    18.998403162730
      Gh(F)          -0.000019449334    -1.153637480566     6.260204923161    18.998403162730
      Gh(F)          -0.000019449334     1.153977519434     6.260204923161    18.998403162730
         C            1.225311925931     0.707538180353    -0.918017449555    12.000000000000
         C            1.225323886559    -0.707539003137    -0.930348259126    12.000000000000
         C           -0.000006123424     1.414965805524    -0.930881882646    12.000000000000
         C            2.456448784457     1.418327778612    -0.915130592155    12.000000000000
         C            0.000010857787    -1.414976607201    -0.920682325322    12.000000000000
         C           -1.225300918401     0.707545265418    -0.915765929233    12.000000000000
         C            2.456437785828    -1.418323412447    -0.932593415982    12.000000000000
         C           -0.000001302470     2.836800922715    -0.933285432780    12.000000000000
         C            3.681826727978     0.709317847435    -0.932244626185    12.000000000000
         C            2.455120079373     2.834223552923    -0.932347183145    12.000000000000
         C            3.681821135726    -0.709333947995    -0.916172142166    12.000000000000
         C           -1.225313568180    -0.707527624110    -0.929275497699    12.000000000000
         C            1.226699611710     3.543469375428    -0.915988110236    12.000000000000
         C            0.000004815365    -2.836782247802    -0.915834157700    12.000000000000
         C           -2.456436002341     1.418316809719    -0.915730533387    12.000000000000
         C            2.455123448287    -2.834230137155    -0.916324050534    12.000000000000
         C           -1.226714334082     3.543468955184    -0.915884777016    12.000000000000
         C            4.914517325709     1.427172763923    -0.925763943155    12.000000000000
         C            3.693150221984     3.542795183979    -0.925714143519    12.000000000000
         C           -2.456437569560    -1.418313389406    -0.932618454107    12.000000000000
         C            1.226704872451    -3.543474350473    -0.931958240985    12.000000000000
         C           -2.455125368000     2.834216554068    -0.932340806799    12.000000000000
         C            4.914524411290    -1.427187018510    -0.922791200421    12.000000000000
         C            1.221424644206     4.970133956694    -0.922652766161    12.000000000000
         C            4.893008259828     2.825187891460    -0.924547274796    12.000000000000
         C           -1.226696977981    -3.543471105643    -0.931691036576    12.000000000000
         C           -3.681818946018     0.709324858166    -0.932231945705    12.000000000000
         C            3.693147131658    -3.542801449957    -0.922673309860    12.000000000000
         C           -1.221432221486     4.970128189296    -0.922469270788    12.000000000000
         C            6.134771003434     0.680547838539    -0.924994168605    12.000000000000
         C            3.656788911118     4.972953135001    -0.924805505736    12.000000000000
         C           -2.455126877226    -2.834215201627    -0.916568408332    12.000000000000
         C           -3.681819148553    -0.709325812035    -0.916054520588    12.000000000000
         C            4.893012648421    -2.825200214198    -0.923936122901    12.000000000000
         C           -0.000001042605     5.650447257466    -0.923700579495    12.000000000000
         C            6.134775142840    -0.680554962641    -0.923728848090    12.000000000000
         C            2.478131513363     5.653576642765    -0.923516726086    12.000000000000
         C            1.221422435245    -4.970127163499    -0.925452263184    12.000000000000
         C           -3.693162353457     3.542796845626    -0.925548636060    12.000000000000
         C           -1.221428490437    -4.970118412162    -0.925565025016    12.000000000000
         C           -4.914521777434     1.427175338429    -0.925686998148    12.000000000000
         C            3.656787050187    -4.972955334806    -0.923355005202    12.000000000000
         C           -2.478138499598     5.653574313962    -0.923232201078    12.000000000000
         C           -3.693141708056    -3.542790327545    -0.922789436016    12.000000000000
         C           -4.914512452545    -1.427181108594    -0.922756503247    12.000000000000
         C           -0.000005978418    -5.650438395580    -0.924096083616    12.000000000000
         C           -4.893020453593     2.825188490353    -0.924557356656    12.000000000000
         C            2.478126023806    -5.653573652455    -0.924445605994    12.000000000000
         C           -3.656798679750     4.972956073475    -0.924628825362    12.000000000000
         C           -4.892999448349    -2.825191875626    -0.924090158599    12.000000000000
         C           -2.478128467575    -5.653566278573    -0.924720793642    12.000000000000
         C           -6.134770472823     0.680548657690    -0.925019720308    12.000000000000
         C           -3.656788802681    -4.972944131537    -0.923569293019    12.000000000000
         C           -6.134765012405    -0.680554024048    -0.923749323885    12.000000000000
         H            5.835288526324     3.369275786388    -0.920187949134     1.007825032230
         H            7.073859203255     1.228217140333    -0.924532525212     1.007825032230
         H            4.600663294682     5.512380693887    -0.924300304984     1.007825032230
         H            5.835283417813    -3.369306165295    -0.928390590215     1.007825032230
         H           -0.000012120798     6.738530565570    -0.928049824503     1.007825032230
         H            7.073861202338    -1.228227051310    -0.924237586184     1.007825032230
         H            2.473313762307     6.740684182828    -0.923983447017     1.007825032230
         H            4.600668521889    -5.512376237742    -0.923765002371     1.007825032230
         H           -2.473318650030     6.740681611040    -0.923682100392     1.007825032230
         H           -0.000010237720    -6.738528285018    -0.919566398632     1.007825032230
         H           -5.835301883836     3.369270841730    -0.920051926985     1.007825032230
         H            2.473307954339    -6.740685482995    -0.923875275570     1.007825032230
         H           -4.600674810700     5.512377918037    -0.924134976661     1.007825032230
         H           -5.835279476327    -3.369289072346    -0.928669896096     1.007825032230
         H           -2.473300316932    -6.740679186706    -0.924324592114     1.007825032230
         H           -7.073857736260     1.228220364274    -0.924616516693     1.007825032230
         H           -4.600673755577    -5.512362778353    -0.923937310393     1.007825032230
         H           -7.073856903901    -1.228220740543    -0.924332442650     1.007825032230

  Charge       = 0
  Multiplicity = 1
  Basis Set: JUN-CC-PVDZ
    Blend: JUN-CC-PVDZ
  Basis Set: (JUN-CC-PVDZ AUX)
    Blend: JUN-CC-PVDZ-JKFIT

    Orbital Energies [Eh]
    ---------------------

    Doubly Occupied:

       1A    -11.260680     2A    -11.260238     3A    -11.260235
       4A    -11.259526     5A    -11.259525     6A    -11.259355
       7A    -11.259146     8A    -11.259068     9A    -11.259067
      10A    -11.258742    11A    -11.258739    12A    -11.258669
      13A    -11.258607    14A    -11.258602    15A    -11.258599
      16A    -11.258570    17A    -11.258564    18A    -11.258548
      19A    -11.258535    20A    -11.258530    21A    -11.258524
      22A    -11.258427    23A    -11.258423    24A    -11.258126
      25A    -11.257465    26A    -11.257403    27A    -11.257402
      28A    -11.257267    29A    -11.257267    30A    -11.257183
      31A    -11.256560    32A    -11.256489    33A    -11.256489
      34A    -11.256379    35A    -11.256379    36A    -11.256332
      37A    -11.252405    38A    -11.252404    39A    -11.252403
      40A    -11.252401    41A    -11.252399    42A    -11.252397
      43A    -11.251540    44A    -11.251537    45A    -11.251536
      46A    -11.251530    47A    -11.251530    48A    -11.251525
      49A    -11.250966    50A    -11.250965    51A    -11.250964
      52A    -11.250962    53A    -11.250960    54A    -11.250959
      55A     -1.244305    56A     -1.220022    57A     -1.220021
      58A     -1.189730    59A     -1.189722    60A     -1.181174
      61A     -1.157729    62A     -1.149162    63A     -1.135714
      64A     -1.135706    65A     -1.113363    66A     -1.113358
      67A     -1.082637    68A     -1.082630    69A     -1.078821
      70A     -1.066146    71A     -1.066142    72A     -1.039586
      73A     -1.024499    74A     -1.022003    75A     -1.021960
      76A     -1.017895    77A     -1.012956    78A     -0.987229
      79A     -0.987183    80A     -0.962057    81A     -0.962007
      82A     -0.894476    83A     -0.894449    84A     -0.888175
      85A     -0.886422    86A     -0.886364    87A     -0.881609
      88A     -0.881561    89A     -0.862081    90A     -0.837558
      91A     -0.818398    92A     -0.816841    93A     -0.812348
      94A     -0.812339    95A     -0.794862    96A     -0.794851
      97A     -0.746848    98A     -0.745074    99A     -0.733642
     100A     -0.733633   101A     -0.732361   102A     -0.732337
     103A     -0.716709   104A     -0.699157   105A     -0.699147
     106A     -0.693784   107A     -0.693769   108A     -0.661407
     109A     -0.653343   110A     -0.651389   111A     -0.650425
     112A     -0.650419   113A     -0.639537   114A     -0.639535
     115A     -0.629922   116A     -0.627734   117A     -0.627718
     118A     -0.606463   119A     -0.605940   120A     -0.601875
     121A     -0.599927   122A     -0.599896   123A     -0.593832
     124A     -0.591465   125A     -0.591454   126A     -0.585426
     127A     -0.576422   128A     -0.576416   129A     -0.567485
     130A     -0.567471   131A     -0.566175   132A     -0.566155
     133A     -0.558951   134A     -0.555031   135A     -0.555025
     136A     -0.538768   137A     -0.538766   138A     -0.538294
     139A     -0.538288   140A     -0.529904   141A     -0.528210
     142A     -0.523059   143A     -0.523053   144A     -0.500676
     145A     -0.495724   146A     -0.493415   147A     -0.487953
     148A     -0.485275   149A     -0.481956   150A     -0.481948
     151A     -0.470443   152A     -0.470426   153A     -0.451262
     154A     -0.451184   155A     -0.439194   156A     -0.439185
     157A     -0.404875   158A     -0.404853   159A     -0.403496
     160A     -0.375549   161A     -0.375546   162A     -0.349253
     163A     -0.337722   164A     -0.336690   165A     -0.336632
     166A     -0.311230   167A     -0.298216   168A     -0.284487
     169A     -0.284433   170A     -0.225055   171A     -0.224989

  @DF-RHF Final Energy: -2055.89160203503343

   => Energetics <=

    Nuclear Repulsion Energy =           6452.5568002797781446
    One-Electron Energy =              -15636.4238564897314063
    Two-Electron Energy =                7127.9754541749207419
    Total Energy =                      -2055.8916020350334293
 Dipole X            :          0.0000832            0.0000112            0.0000944
 Dipole Y            :          0.0000332           -0.0000531           -0.0000199
 Dipole Z            :        597.2698930         -597.2702405           -0.0003474
 Magnitude           :                                                    0.0003606

    SAPT Results
  --------------------------------------------------------------------------------------------------------
    Electrostatics                  6.06297958 [mEh]       3.80457712 [kcal/mol]      15.91835068 [kJ/mol]
      Elst10,r                      6.06297958 [mEh]       3.80457712 [kcal/mol]      15.91835068 [kJ/mol]

    Exchange                       -0.00007457 [mEh]      -0.00004679 [kcal/mol]      -0.00019578 [kJ/mol]
      Exch10                       -0.00007457 [mEh]      -0.00004679 [kcal/mol]      -0.00019578 [kJ/mol]
      Exch10(S^2)                  -0.00007457 [mEh]      -0.00004679 [kcal/mol]      -0.00019578 [kJ/mol]

    Induction                      -1.50838727 [mEh]      -0.94652730 [kcal/mol]      -3.96027023 [kJ/mol]
      Ind20,r                      -1.51593948 [mEh]      -0.95126638 [kcal/mol]      -3.98009855 [kJ/mol]
      Exch-Ind20,r                  0.00002226 [mEh]       0.00001397 [kcal/mol]       0.00005845 [kJ/mol]
      delta HF,r (2)                0.00752995 [mEh]       0.00472511 [kcal/mol]       0.01976987 [kJ/mol]

    Dispersion                     -0.19982753 [mEh]      -0.12539367 [kcal/mol]      -0.52464711 [kJ/mol]
      Disp20                       -0.19984107 [mEh]      -0.12540217 [kcal/mol]      -0.52468267 [kJ/mol]
      Exch-Disp20                   0.00001354 [mEh]       0.00000850 [kcal/mol]       0.00003556 [kJ/mol]
      Disp20 (SS)                  -0.09992054 [mEh]      -0.06270108 [kcal/mol]      -0.26234133 [kJ/mol]
      Disp20 (OS)                  -0.09992054 [mEh]      -0.06270108 [kcal/mol]      -0.26234133 [kJ/mol]
      Exch-Disp20 (SS)              0.00001046 [mEh]       0.00000657 [kcal/mol]       0.00002747 [kJ/mol]
      Exch-Disp20 (OS)              0.00000308 [mEh]       0.00000193 [kcal/mol]       0.00000809 [kJ/mol]

  Total HF                          4.55451774 [mEh]       2.85800303 [kcal/mol]      11.95788467 [kJ/mol]
  Total SAPT0                       4.35469021 [mEh]       2.73260936 [kcal/mol]      11.43323756 [kJ/mol]

  Special recipe for scaled SAPT0 (see Manual):
    Electrostatics sSAPT0           6.06297958 [mEh]       3.80457712 [kcal/mol]      15.91835068 [kJ/mol]
    Exchange sSAPT0                -0.00007457 [mEh]      -0.00004679 [kcal/mol]      -0.00019578 [kJ/mol]
    Induction sSAPT0               -1.50838727 [mEh]      -0.94652730 [kcal/mol]      -3.96027023 [kJ/mol]
    Dispersion sSAPT0              -0.19982753 [mEh]      -0.12539367 [kcal/mol]      -0.52464711 [kJ/mol]
  Total sSAPT0                      4.35469021 [mEh]       2.73260936 [kcal/mol]      11.43323756 [kJ/mol]
  --------------------------------------------------------------------------------------------------------

*** Psi4 exiting successfully. Buy a developer a beer!
