                               Psi4 1.9 release

  ==> Input File <==

--------------------------------------------------------------------------
# PSI4 input file for a GDMA calculation
memory 48 GB

molecule dc {
# charge and multiplicity
0 1
# coordinates
C   -3.66844126402057      7.80375217008252      0.00190004133558
C   -4.84759871934653      7.13124183134024     -0.00046653359696
C   -4.89495929917518      5.69633040353158     -0.00103944469517
C   -3.65374067877320      4.98073034095895      0.00662099703436
C   -2.40942512149445      7.11398103667468      0.00209438359570
C   -2.42547734410473      5.68112195090346     -0.00491050527438
C   -1.19474401643570      7.78614419430947      0.00356656413763
C   0.03795902893699      7.09942164575698      0.00139585983271
C   0.03033258741920      5.66948955970466     -0.00408752508301
C   -1.20098450790502      4.96927034791531      0.00488220885047
C   1.27795782581485      7.77285944319479      0.00277170839332
C   2.48535808472416      7.08769688523756      0.00049722048857
C   2.48612868491717      5.65477081024076     -0.00644052849921
C   1.25408291964399      4.95607811366431      0.00518741308898
C   3.75171459140595      7.76391215098033      0.00062407186893
C   4.92356605618520      7.07878077698995     -0.00143240883900
C   4.95560727132542      5.64344746336949     -0.00159282164606
C   3.70680153420475      4.94121020833308      0.00349873852374
H   -3.65852113775815      8.89082741913536      0.00358502958574
H   -1.18921332975660      8.87412108735996      0.00753844057883
H   1.28429423888630      8.86083343548850      0.00693053253426
H   3.75354208679975      8.85103527897216      0.00214659618464
H   5.86995870320703      7.61379483465560     -0.00235777588134
H   -5.78823170750226      7.67630221293400     -0.00202638095293
C   -6.09197395869619      4.99326001364347     -0.00291168518608
C   -6.12866148031747      3.58258016879823     -0.00171050815740
C   -3.66457974004527      3.56418217974434     -0.00463560277484
C   -4.89429820469869      2.86108077590057      0.00453338221034
C   -2.43733499489796      2.84761165708481      0.00719617576166
C   -1.20922785759670      3.54788693497833     -0.00648285103018
C   1.24714157216223      3.53468075142962     -0.00729145743546
C   0.01517603956900      2.83311183930540      0.00439272578912
C   2.46764517244071      2.82128997725533      0.00449278391269
C   3.70254947457969      3.52466015442405     -0.00899517692985
C   6.14498038638375      4.92757236613191     -0.00282626685777
C   6.16658835886151      3.51658447594213     -0.00065971342101
C   4.92460995845939      2.80840792535402      0.00587903281610
H   7.08990550964105      5.46688776622306     -0.00658814770723
H   -7.03104175110130      5.54268795285765     -0.00714490013730
C   -7.33969804112295      2.85841153457957     -0.00333767559888
C   -7.36488195805880      1.47032337158330     -0.00157213747140
C   -4.90350460894690      1.44442681216000     -0.00628840166334
C   -6.13225715261081      0.73993935705394      0.00600164231964
C   -3.67687480051673      0.72669714267312      0.00433931473643
C   -2.44565658606518      1.42964113326212     -0.00597039546461
C   -1.22360068130162      0.71532450163492      0.00545886906656
C   0.00763786931376      1.41738314923765      0.00392452278437
C   1.23121980774686      0.70211669058719     -0.01490206287210
C   2.46082110053113      1.40329203612573      0.00460244601878
C   3.68443025419614      0.68719842821222      0.00377365974158
C   4.91870890153864      1.39173456118907     -0.00862816189375
C   7.36980207796101      2.77948220318441     -0.00242013321349
C   7.38016266612146      1.39121750785509     -0.00087345036788
C   6.13979953912259      0.67411862320065      0.00545489144369
H   -8.27919079934664      3.40711804112415     -0.00763522772059
H   8.31511347147953      3.31811809662368     -0.00663070901292
C   -8.59175593758115      0.72483255304480     -0.00123170985383
C   -8.59902460370342     -0.63263980622873      0.00089141472904
C   -6.13981313911873     -0.67413663715361     -0.00609792660607
C   -7.38018411213749     -1.39126618958160      0.00131813493501
C   -4.91868448025621     -1.39175501803000      0.00624257154343
C   -3.68443829568458     -0.68723731573599     -0.00478966852105
C   -2.46081704024768     -1.40334517882457      0.00575341766833
C   -1.23116201232071     -0.70217386488055     -0.00636696112346
C   -0.00756962538737     -1.41741884941102      0.00108956317991
C   1.22364771588843     -0.71527537726392      0.01109518512883
C   2.44567064933149     -1.42964328900682     -0.00065482763106
C   3.67686670284649     -0.72670743155550     -0.00479541202602
C   6.13224884641929     -0.73997883984993     -0.00632338623858
C   4.90351914550401     -1.44445752054090      0.00751768830159
C   8.59901484869081      0.63260386666793     -0.00101133422380
C   8.59174548810050     -0.72485086719319      0.00072504603735
C   7.36486276438985     -1.47033266560598      0.00049486934466
H   -9.52830597181814      1.27684744919284     -0.00270163681798
H   9.54141097460619      1.17457248844457     -0.00206336648518
C   -7.36983790976868     -2.77954514593389      0.00312634335708
C   -4.92459910905015     -2.80843725734101     -0.00460528907921
C   -6.16662249566744     -3.51665219282533      0.00169655107992
C   -3.70251035970491     -3.52468154912026      0.00571878010666
C   -2.46764698511392     -2.82132596280400     -0.00632585824990
C   -0.01513347410770     -2.83314164539971     -0.00604426974092
C   -1.24712184122656     -3.53473217556300      0.00551968366725
C   1.20924506964357     -3.54791467864352      0.00805871345849
C   2.43733602215464     -2.84764173817541     -0.00608104485234
C   4.89430234377080     -2.86112296828604     -0.00526030478103
C   3.66461525504104     -3.56421984553201      0.00761911515957
C   6.12863901474565     -3.58258405771778      0.00096495711699
C   7.33967266469532     -2.85841330737039      0.00248018319869
H   -9.54144911125902     -1.17456346666430      0.00226083090216
H   9.52826186807155     -1.27691907390448      0.00197485379837
H   -8.31516504384864     -3.31814985321231      0.00729857188773
H   8.27915514249207     -3.40714078989363      0.00681973918158
C   -6.14499418870218     -4.92764727278338      0.00302254913999
C   -3.70678334799751     -4.94126171411716     -0.00679841894792
C   -4.95559005800169     -5.64349397349412      0.00116871569699
C   -2.48612132622665     -5.65478557440947      0.00614125209662
C   -1.25405833548005     -4.95612205000132     -0.00503435388927
C   1.20101257386816     -4.96928038819302     -0.00385322963129
C   -0.03033667441341     -5.66952030313900      0.00398997003238
C   3.65375010132847     -4.98074377541453     -0.00309522988330
C   2.42549269587528     -5.68117463552727      0.00628170066869
C   6.09196561781097     -4.99325796338655      0.00325918379042
C   4.89497644461045     -5.69634842095790      0.00202298796027
H   -7.08989238804069     -5.46699984223871      0.00742531082125
H   7.03105520920009     -5.54265853633254      0.00683896355417
C   -4.92354532219813     -7.07882109967734      0.00061394679214
C   -2.48534208823777     -7.08772807792913     -0.00189594564379
C   -3.75168589177895     -7.76394715763627     -0.00170126671874
C   -0.03794895698805     -7.09946487446944     -0.00168022049625
C   -1.27795610040136     -7.77290438466689     -0.00366491325785
C   2.40944432072629     -7.11402201200282     -0.00081701968533
C   1.19474993715296     -7.78618536556242     -0.00296931056689
C   4.84762105249800     -7.13126211057943      0.00168979497423
C   3.66847160587561     -7.80378799294376     -0.00065863938960
H   -5.86994035041618     -7.61383059804164      0.00215798365757
H   5.78824962538815     -7.67633218931421      0.00281691445618
H   -3.75352693944918     -8.85107156923607     -0.00353718114765
H   -1.28430440589466     -8.86087539249706     -0.00809229711623
H   1.18922157469537     -8.87416062058945     -0.00706194725726
H   3.65854661482387     -8.89086063405326     -0.00231318081200

# additional options
units angstrom
no_reorient
symmetry c1
}

# calculation options
set {
scf_type DF         # Density fitting, faster than exact integrals
freeze_core True    # Freeze core electrons
basis jun-cc-pVDZ   # Jun-cc-pVDZ basis set, recommended for sSAPT0 in https://doi.org/10.1063/1.4867135
}

# call gdma routine
energy, wfn = energy('scf', return_wfn=True)
fchk(wfn, filename='gdma.fchk')
gdma(wfn, datafile='gdma.dma')
print(variable('DMA DISTRIBUTED MULTIPOLES'))
print(variable('DMA TOTAL MULTIPOLES'))
--------------------------------------------------------------------------

    Molecular point group: c1

    Geometry (in Angstrom), charge = 0, multiplicity = 1:

       Center              X                  Y                   Z               Mass
    ------------   -----------------  -----------------  -----------------  -----------------
         C           -3.668445775676     7.803767815311     0.001896686417    12.000000000000
         C           -4.847603231002     7.131257476568    -0.000469888515    12.000000000000
         C           -4.894963810831     5.696346048760    -0.001042799613    12.000000000000
         C           -3.653745190429     4.980745986187     0.006617642116    12.000000000000
         C           -2.409429633150     7.113996681903     0.002091028677    12.000000000000
         C           -2.425481855760     5.681137596132    -0.004913860193    12.000000000000
         C           -1.194748528091     7.786159839538     0.003563209219    12.000000000000
         C            0.037954517281     7.099437290985     0.001392504914    12.000000000000
         C            0.030328075763     5.669505204933    -0.004090880001    12.000000000000
         C           -1.200989019561     4.969285993143     0.004878853932    12.000000000000
         C            1.277953314159     7.772875088423     0.002768353475    12.000000000000
         C            2.485353573068     7.087712530466     0.000493865570    12.000000000000
         C            2.486124173261     5.654786455469    -0.006443883417    12.000000000000
         C            1.254078407988     4.956093758892     0.005184058171    12.000000000000
         C            3.751710079750     7.763927796209     0.000620716951    12.000000000000
         C            4.923561544529     7.078796422218    -0.001435763757    12.000000000000
         C            4.955602759670     5.643463108598    -0.001596176564    12.000000000000
         C            3.706797022549     4.941225853561     0.003495383605    12.000000000000
         H           -3.658525649414     8.890843064364     0.003581674667     1.007825032230
         H           -1.189217841412     8.874136732588     0.007535085661     1.007825032230
         H            1.284289727231     8.860849080717     0.006927177616     1.007825032230
         H            3.753537575144     8.851050924200     0.002143241266     1.007825032230
         H            5.869954191551     7.613810479884    -0.002361130800     1.007825032230
         H           -5.788236219158     7.676317858162    -0.002029735871     1.007825032230
         C           -6.091978470352     4.993275658872    -0.002915040104    12.000000000000
         C           -6.128665991973     3.582595814026    -0.001713863076    12.000000000000
         C           -3.664584251701     3.564197824973    -0.004638957693    12.000000000000
         C           -4.894302716354     2.861096421129     0.004530027292    12.000000000000
         C           -2.437339506554     2.847627302313     0.007192820843    12.000000000000
         C           -1.209232369252     3.547902580207    -0.006486205948    12.000000000000
         C            1.247137060506     3.534696396658    -0.007294812354    12.000000000000
         C            0.015171527913     2.833127484534     0.004389370871    12.000000000000
         C            2.467640660785     2.821305622484     0.004489428994    12.000000000000
         C            3.702544962924     3.524675799652    -0.008998531848    12.000000000000
         C            6.144975874728     4.927588011360    -0.002829621776    12.000000000000
         C            6.166583847206     3.516600121170    -0.000663068339    12.000000000000
         C            4.924605446804     2.808423570582     0.005875677898    12.000000000000
         H            7.089900997985     5.466903411451    -0.006591502625     1.007825032230
         H           -7.031046262757     5.542703598086    -0.007148255056     1.007825032230
         C           -7.339702552779     2.858427179808    -0.003341030517    12.000000000000
         C           -7.364886469715     1.470339016811    -0.001575492390    12.000000000000
         C           -4.903509120603     1.444442457388    -0.006291756582    12.000000000000
         C           -6.132261664267     0.739955002282     0.005998287401    12.000000000000
         C           -3.676879312172     0.726712787901     0.004335959818    12.000000000000
         C           -2.445661097721     1.429656778490    -0.005973750383    12.000000000000
         C           -1.223605192957     0.715340146863     0.005455514148    12.000000000000
         C            0.007633357658     1.417398794466     0.003921167866    12.000000000000
         C            1.231215296091     0.702132335815    -0.014905417790    12.000000000000
         C            2.460816588875     1.403307681354     0.004599091101    12.000000000000
         C            3.684425742540     0.687214073440     0.003770304823    12.000000000000
         C            4.918704389883     1.391750206417    -0.008631516812    12.000000000000
         C            7.369797566305     2.779497848413    -0.002423488132    12.000000000000
         C            7.380158154466     1.391233153083    -0.000876805286    12.000000000000
         C            6.139795027467     0.674134268429     0.005451536525    12.000000000000
         H           -8.279195311002     3.407133686352    -0.007638582639     1.007825032230
         H            8.315108959824     3.318133741852    -0.006634063931     1.007825032230
         C           -8.591760449237     0.724848198273    -0.001235064772    12.000000000000
         C           -8.599029115359    -0.632624161001     0.000888059811    12.000000000000
         C           -6.139817650774    -0.674120991925    -0.006101281524    12.000000000000
         C           -7.380188623793    -1.391250544353     0.001314780017    12.000000000000
         C           -4.918688991912    -1.391739372802     0.006239216625    12.000000000000
         C           -3.684442807340    -0.687221670508    -0.004793023439    12.000000000000
         C           -2.460821551903    -1.403329533596     0.005750062750    12.000000000000
         C           -1.231166523976    -0.702158219652    -0.006370316042    12.000000000000
         C           -0.007574137043    -1.417403204183     0.001086208262    12.000000000000
         C            1.223643204233    -0.715259732036     0.011091830211    12.000000000000
         C            2.445666137676    -1.429627643779    -0.000658182549    12.000000000000
         C            3.676862191191    -0.726691786327    -0.004798766944    12.000000000000
         C            6.132244334764    -0.739963194622    -0.006326741157    12.000000000000
         C            4.903514633848    -1.444441875313     0.007514333383    12.000000000000
         C            8.599010337035     0.632619511896    -0.001014689142    12.000000000000
         C            8.591740976445    -0.724835221965     0.000721691119    12.000000000000
         C            7.364858252734    -1.470317020378     0.000491514426    12.000000000000
         H           -9.528310483474     1.276863094421    -0.002704991736     1.007825032230
         H            9.541406462950     1.174588133673    -0.002066721403     1.007825032230
         C           -7.369842421424    -2.779529500706     0.003122988439    12.000000000000
         C           -4.924603620706    -2.808421612113    -0.004608643997    12.000000000000
         C           -6.166627007323    -3.516636547597     0.001693196162    12.000000000000
         C           -3.702514871361    -3.524665903892     0.005715425188    12.000000000000
         C           -2.467651496770    -2.821310317576    -0.006329213168    12.000000000000
         C           -0.015137985763    -2.833126000172    -0.006047624659    12.000000000000
         C           -1.247126352882    -3.534716530335     0.005516328749    12.000000000000
         C            1.209240557988    -3.547899033415     0.008055358540    12.000000000000
         C            2.437331510499    -2.847626092947    -0.006084399771    12.000000000000
         C            4.894297832115    -2.861107323058    -0.005263659699    12.000000000000
         C            3.664610743385    -3.564204200304     0.007615760241    12.000000000000
         C            6.128634503090    -3.582568412490     0.000961602199    12.000000000000
         C            7.339668153040    -2.858397662142     0.002476828280    12.000000000000
         H           -9.541453622915    -1.174547821436     0.002257475984     1.007825032230
         H            9.528257356416    -1.276903428676     0.001971498880     1.007825032230
         H           -8.315169555504    -3.318134207984     0.007295216969     1.007825032230
         H            8.279150630836    -3.407125144665     0.006816384263     1.007825032230
         C           -6.144998700358    -4.927631627555     0.003019194222    12.000000000000
         C           -3.706787859653    -4.941246068889    -0.006801773866    12.000000000000
         C           -4.955594569657    -5.643478328266     0.001165360779    12.000000000000
         C           -2.486125837882    -5.654769929181     0.006137897178    12.000000000000
         C           -1.254062847136    -4.956106404773    -0.005037708808    12.000000000000
         C            1.201008062212    -4.969264742965    -0.003856584550    12.000000000000
         C           -0.030341186069    -5.669504657911     0.003986615114    12.000000000000
         C            3.653745589673    -4.980728130186    -0.003098584802    12.000000000000
         C            2.425488184220    -5.681158990299     0.006278345750    12.000000000000
         C            6.091961106155    -4.993242318158     0.003255828872    12.000000000000
         C            4.894971932955    -5.696332775730     0.002019633042    12.000000000000
         H           -7.089896899696    -5.466984197011     0.007421955903     1.007825032230
         H            7.031050697544    -5.542642891104     0.006835608636     1.007825032230
         C           -4.923549833854    -7.078805454449     0.000610591874    12.000000000000
         C           -2.485346599894    -7.087712432701    -0.001899300562    12.000000000000
         C           -3.751690403435    -7.763931512408    -0.001704621637    12.000000000000
         C           -0.037953468644    -7.099449229241    -0.001683575414    12.000000000000
         C           -1.277960612057    -7.772888739439    -0.003668268176    12.000000000000
         C            2.409439809071    -7.114006366775    -0.000820374604    12.000000000000
         C            1.194745425497    -7.786169720334    -0.002972665485    12.000000000000
         C            4.847616540842    -7.131246465351     0.001686440056    12.000000000000
         C            3.668467094220    -7.803772347716    -0.000661994308    12.000000000000
         H           -5.869944862072    -7.613814952813     0.002154628739     1.007825032230
         H            5.788245113732    -7.676316544086     0.002813559538     1.007825032230
         H           -3.753531451105    -8.851055924008    -0.003540536066     1.007825032230
         H           -1.284308917550    -8.860859747269    -0.008095652034     1.007825032230
         H            1.189217063040    -8.874144975361    -0.007065302176     1.007825032230
         H            3.658542103168    -8.890844988825    -0.002316535730     1.007825032230

  Charge       = 0
  Multiplicity = 1
  Basis Set: JUN-CC-PVDZ
    Blend: JUN-CC-PVDZ
  Basis Set: (JUN-CC-PVDZ AUX)
    Blend: JUN-CC-PVDZ-JKFIT

    Orbital Energies [Eh]
    ---------------------

    Doubly Occupied:

       1A    -11.264048     2A    -11.263737     3A    -11.263736
       4A    -11.263399     5A    -11.263396     6A    -11.263358
       7A    -11.263206     8A    -11.263172     9A    -11.263170
      10A    -11.263014    11A    -11.262856    12A    -11.262851
      13A    -11.262373    14A    -11.262370    15A    -11.262293
      16A    -11.262293    17A    -11.262244    18A    -11.262209
      19A    -11.262166    20A    -11.262126    21A    -11.262125
      22A    -11.261966    23A    -11.261963    24A    -11.261842
      25A    -11.261826    26A    -11.261812    27A    -11.261809
      28A    -11.261761    29A    -11.261754    30A    -11.261682
      31A    -11.261656    32A    -11.261653    33A    -11.261627
      34A    -11.261626    35A    -11.261606    36A    -11.261557
      37A    -11.261412    38A    -11.261400    39A    -11.261394
      40A    -11.261386    41A    -11.261381    42A    -11.261373
      43A    -11.261371    44A    -11.261357    45A    -11.261352
      46A    -11.261330    47A    -11.261326    48A    -11.261321
      49A    -11.261174    50A    -11.261144    51A    -11.261142
      52A    -11.261063    53A    -11.261062    54A    -11.260991
      55A    -11.260018    56A    -11.260005    57A    -11.260002
      58A    -11.259973    59A    -11.259971    60A    -11.259955
      61A    -11.259407    62A    -11.259382    63A    -11.259379
      64A    -11.259328    65A    -11.259325    66A    -11.259297
      67A    -11.259022    68A    -11.259005    69A    -11.259003
      70A    -11.258977    71A    -11.258974    72A    -11.258963
      73A    -11.254588    74A    -11.254586    75A    -11.254585
      76A    -11.254583    77A    -11.254577    78A    -11.254574
      79A    -11.253741    80A    -11.253740    81A    -11.253737
      82A    -11.253736    83A    -11.253734    84A    -11.253728
      85A    -11.253657    86A    -11.253655    87A    -11.253652
      88A    -11.253651    89A    -11.253649    90A    -11.253644
      91A    -11.253116    92A    -11.253114    93A    -11.253113
      94A    -11.253111    95A    -11.253104    96A    -11.253102
      97A     -1.254138    98A     -1.239144    99A     -1.239143
     100A     -1.220586   101A     -1.220581   102A     -1.215612
     103A     -1.201145   104A     -1.195717   105A     -1.188303
     106A     -1.188301   107A     -1.173866   108A     -1.173863
     109A     -1.155776   110A     -1.155772   111A     -1.152880
     112A     -1.144819   113A     -1.144816   114A     -1.128698
     115A     -1.114858   116A     -1.113261   117A     -1.112643
     118A     -1.112628   119A     -1.111708   120A     -1.088560
     121A     -1.088545   122A     -1.077056   123A     -1.077055
     124A     -1.067755   125A     -1.067725   126A     -1.065125
     127A     -1.046919   128A     -1.046912   129A     -1.040607
     130A     -1.038829   131A     -1.038828   132A     -1.025395
     133A     -1.021566   134A     -1.021515   135A     -1.007292
     136A     -1.006935   137A     -1.003910   138A     -1.000636
     139A     -1.000588   140A     -0.991164   141A     -0.971125
     142A     -0.971076   143A     -0.955990   144A     -0.955934
     145A     -0.905764   146A     -0.905722   147A     -0.905636
     148A     -0.905596   149A     -0.904520   150A     -0.892534
     151A     -0.892475   152A     -0.890520   153A     -0.890463
     154A     -0.889593   155A     -0.872319   156A     -0.869132
     157A     -0.851649   158A     -0.848014   159A     -0.847992
     160A     -0.845752   161A     -0.843154   162A     -0.834684
     163A     -0.834671   164A     -0.828211   165A     -0.828208
     166A     -0.784673   167A     -0.784663   168A     -0.783802
     169A     -0.783775   170A     -0.782420   171A     -0.782400
     172A     -0.782184   173A     -0.767108   174A     -0.760956
     175A     -0.750731   176A     -0.733585   177A     -0.727190
     178A     -0.727176   179A     -0.725216   180A     -0.724657
     181A     -0.724639   182A     -0.718662   183A     -0.713923
     184A     -0.713917   185A     -0.699693   186A     -0.699681
     187A     -0.686293   188A     -0.686059   189A     -0.686056
     190A     -0.682282   191A     -0.682271   192A     -0.678917
     193A     -0.653746   194A     -0.650994   195A     -0.650964
     196A     -0.649970   197A     -0.649954   198A     -0.649666
     199A     -0.641089   200A     -0.641062   201A     -0.640192
     202A     -0.639255   203A     -0.636162   204A     -0.636135
     205A     -0.629261   206A     -0.617829   207A     -0.615400
     208A     -0.615380   209A     -0.608913   210A     -0.608906
     211A     -0.599190   212A     -0.599152   213A     -0.598871
     214A     -0.598744   215A     -0.598719   216A     -0.598199
     217A     -0.595167   218A     -0.595154   219A     -0.594840
     220A     -0.594402   221A     -0.592088   222A     -0.592085
     223A     -0.587560   224A     -0.577873   225A     -0.577863
     226A     -0.575733   227A     -0.575730   228A     -0.573488
     229A     -0.569564   230A     -0.568297   231A     -0.568273
     232A     -0.566877   233A     -0.566867   234A     -0.560992
     235A     -0.558855   236A     -0.558836   237A     -0.558509
     238A     -0.554487   239A     -0.550626   240A     -0.547552
     241A     -0.544339   242A     -0.535035   243A     -0.534998
     244A     -0.533651   245A     -0.533629   246A     -0.528176
     247A     -0.528161   248A     -0.527955   249A     -0.517316
     250A     -0.517282   251A     -0.515422   252A     -0.515417
     253A     -0.509739   254A     -0.509723   255A     -0.498135
     256A     -0.496566   257A     -0.496540   258A     -0.493841
     259A     -0.493831   260A     -0.489475   261A     -0.481547
     262A     -0.477484   263A     -0.477481   264A     -0.474100
     265A     -0.469570   266A     -0.466647   267A     -0.466642
     268A     -0.458873   269A     -0.446859   270A     -0.446798
     271A     -0.441100   272A     -0.440821   273A     -0.440798
     274A     -0.434751   275A     -0.433970   276A     -0.407447
     277A     -0.407422   278A     -0.386482   279A     -0.386434
     280A     -0.385793   281A     -0.385792   282A     -0.383828
     283A     -0.354398   284A     -0.354381   285A     -0.350733
     286A     -0.338167   287A     -0.335665   288A     -0.335596
     289A     -0.332775   290A     -0.332769   291A     -0.307162
     292A     -0.302025   293A     -0.301962   294A     -0.300912
     295A     -0.286236   296A     -0.256524   297A     -0.253578
     298A     -0.253526   299A     -0.204328   300A     -0.204239

  @DF-RHF Final Energy: -3650.33779761165897

   => Energetics <=

    Nuclear Repulsion Energy =          15611.4211649754324753
    One-Electron Energy =              -36072.0796735346084461
    Two-Electron Energy =               16810.3207109475188190
    Total Energy =                      -3650.3377976116571517
 Dipole X            :         -0.0007288           -0.0001652           -0.0008940
 Dipole Y            :         -0.0002353           -0.0000385           -0.0002737
 Dipole Z            :          0.0003360           -0.0004120           -0.0000760
 Magnitude           :                                                    0.0009380
*** Psi4 exiting successfully. Buy a developer a beer!
