                               Psi4 1.9 release

  ==> Input File <==

--------------------------------------------------------------------------
memory 32 GB # how much memory is available ! Depends on the nodes/cores !

molecule dimer {
# monomer A
+1 1    # Charge and multiplicity
C  0.680067 -1.215929 7.008042
C -0.680504 -1.215545 7.006014
N -1.085635  0.102779 7.005016
C  0.000108  0.884180 7.001740
C -2.477365  0.570758 6.955610
N  1.085222  0.102779 7.005016
H  1.385146 -2.033368 7.015870
H -1.385302 -2.033214 7.006204
H -0.000009  1.965269 6.999993
C  2.478117  0.567877 7.021908
H  2.490592  1.658130 6.994563
H  2.967028  0.220701 7.935354
H  3.001428  0.176405 6.146425
H -2.857359  0.490799 5.933539
H -3.082679 -0.042306 7.625694
H -2.518128  1.610706 7.282594
--
# monomer B
0 1     # Charge and multiplicity
C   1.22531237526482      0.70753866091955      0.00613762728373
C   1.22532433589282     -0.70753852257020     -0.00619318228664
C   -0.00000567409046      1.41496628609039     -0.00672680580738
C   2.45644923379077      1.41832825917820      0.00902448468363
C   0.00001130712078     -1.41497612663474      0.00347275151708
C   -1.22530046906674      0.70754574598412      0.00838914760619
C   2.45643823516184     -1.41832293188077     -0.00843833914343
C   -0.00000085313587      2.83680140328112     -0.00913035594137
C   3.68182717731192      0.70931832800114     -0.00808954934571
C   2.45512052870677      2.83422403348893     -0.00819210630633
C   3.68182158506039     -0.70933346742900      0.00798293467272
C   -1.22531311884624     -0.70752714354401     -0.00512042085974
C   1.22670006104402      3.54346985599427      0.00816696660346
C   0.00000526469929     -2.83678176723568      0.00832091913869
C   -2.45643555300670      1.41831729028492      0.00842454345199
C   2.45512389762097     -2.83422965658853      0.00783102630520
C   -1.22671388474763      3.54346943575023      0.00827029982280
C   4.91451777504333      1.42717324448953     -0.00160886631602
C   3.69315067131765      3.54279566454522     -0.00155906667985
C   -2.45643712022637     -1.41831290883911     -0.00846337726810
C   1.22670532178455     -3.54347386990643     -0.00780316414624
C   -2.45512491866593      2.83421703463423     -0.00818572995999
C   4.91452486062398     -1.42718653794377      0.00136387641845
C   1.22142509354026      4.97013443726031      0.00150231067809
C   4.89300870916237      2.82518837202648     -0.00039219795739
C   -1.22669652864725     -3.54347062507680     -0.00753595973677
C   -3.68181849668397      0.70932533873199     -0.00807686886569
C   3.69314758099218     -3.54280096939050      0.00148176697923
C   -1.22143177215231      4.97012866986289      0.00168580605083
C   6.13477145276790      0.68054831910577     -0.00083909176631
C   3.65678936045204      4.97295361556775     -0.00065042889723
C   -2.45512642789169     -2.83421472106065      0.00758666850712
C   -3.68181869921921     -0.70932533146830      0.00810055625144
C   4.89301309775526     -2.82519973363176      0.00021895393805
C   -0.00000059327114      5.65044773803267      0.00045449734393
C   6.13477559217374     -0.68055448207492      0.00042622874941
C   2.47813196269732      5.65357712333155      0.00063835075260
C   1.22142288457925     -4.97012668293268     -0.00129718634452
C   -3.69316190412301      3.54279732619245     -0.00139355922051
C   -1.22142804110313     -4.97011793159564     -0.00140994817719
C   -4.91452132810043      1.42717581899491     -0.00153192130862
C   3.65678749952045     -4.97295485423912      0.00080007163680
C   -2.47813805026426      5.65357479452875      0.00092287576113
C   -3.69314125872231     -3.54278984697859      0.00136564082345
C   -4.91451200321153     -1.42718062802730      0.00139857359209
C   -0.00000552908399     -5.65043791501335      0.00005899322272
C   -4.89302000425900      2.82518897091939     -0.00040227981744
C   2.47812647313991     -5.65357317188818     -0.00029052915548
C   -3.65679823041642      4.97295655404175     -0.00047374852278
C   -4.89299899901461     -2.82519139505969      0.00006491824035
C   -2.47812801824129     -5.65356579800621     -0.00056571680280
C   -6.13477002348955      0.68054913825639     -0.00086464346868
C   -3.65678835334731     -4.97294365097028      0.00058578382008
C   -6.13476456307132     -0.68055354348201      0.00040575295444
H   5.83528897565761      3.36927626695423      0.00396712770529
H   7.07385965258860      1.22821762089947     -0.00037744837300
H   4.60066374401555      5.51238117445323     -0.00014522814529
H   5.83528386714679     -3.36930568472863     -0.00423551337640
H   -0.00001167146422      6.73853104613662     -0.00389474766392
H   7.07386165167227     -1.22822657074368     -0.00008250934481
H   2.47331421164041      6.74068466339473      0.00017162982210
H   4.60066897122302     -5.51237575717576      0.00039007446835
H   -2.47331820069565      6.74068209160650      0.00047297644710
H   -0.00000978838621     -6.73852780445195      0.00458867820736
H   -5.83530143450167      3.36927132229595      0.00410314985360
H   2.47330840367253     -6.74068500242887      0.00027980126949
H   -4.60067436136587      5.51237839860371      0.00002010017831
H   -5.83527902699321     -3.36928859177951     -0.00451481925734
H   -2.47329986759855     -6.74067870613986     -0.00016951527498
H   -7.07385728692578      1.22822084484047     -0.00046143985387
H   -4.60067330624313     -5.51236229778631      0.00021776644566
H   -7.07385645456741     -1.22822025997701     -0.00017736581114

    units angstrom      # Angstroms are the default
    no_reorient         # Geometry fixed, default
    symmetry c1         # C1 symmetry, default
}

set {
    scf_type DF         # Density fitting, faster than exact integrals
    freeze_core True    # Freeze core electrons
    basis jun-cc-pVDZ   # Jun-cc-pVDZ basis set, recommended for sSAPT0 in https://doi.org/10.1063/1.4867135
}

energy('ssapt0')        # Compute sSAPT0 energy, includes also SAPT0
--------------------------------------------------------------------------

  //              Dimer HF             //
    Molecular point group: c1
  Charge       = 1
  Multiplicity = 1
  Basis Set: JUN-CC-PVDZ
    Blend: JUN-CC-PVDZ
  Basis Set: (JUN-CC-PVDZ AUX)
    Blend: JUN-CC-PVDZ-JKFIT
  @DF-RHF Final Energy: -2359.19779239906575
    Total Energy =                      -2359.1977923990652926
 Dipole X            :          0.0028585            0.0006313            0.0034898
 Dipole Y            :         -1.5098245            1.8864948            0.3766703
 Dipole Z            :        -25.6871771           36.4327993           10.7456222
 Magnitude           :                                                   10.7522225
  //            Monomer A HF           //
    Molecular point group: c1
  Multiplicity = 1
  Basis Set: JUN-CC-PVDZ
    Blend: JUN-CC-PVDZ
  Basis Set: (JUN-CC-PVDZ AUX)
    Blend: JUN-CC-PVDZ-JKFIT
  @DF-RHF Final Energy:  -303.29725103476312
    Total Energy =                       -303.2972510347631214
  //            Monomer B HF           //
    Molecular point group: c1

    Geometry (in Angstrom), charge = 0, multiplicity = 1:

       Center              X                  Y                   Z               Mass
    ------------   -----------------  -----------------  -----------------  -----------------
      Gh(C)           0.680066520158    -1.215933861162     6.117687130837    12.000000000000
      Gh(C)          -0.680504479842    -1.215549861162     6.115659130837    12.000000000000
      Gh(N)          -1.085635479842     0.102774138838     6.114661130837    14.003074004430
      Gh(C)           0.000107520158     0.884175138838     6.111385130837    12.000000000000
      Gh(C)          -2.477365479842     0.570753138838     6.065255130837    12.000000000000
      Gh(N)           1.085221520158     0.102774138838     6.114661130837    14.003074004430
      Gh(H)           1.385145520158    -2.033372861162     6.125515130837     1.007825032230
      Gh(H)          -1.385302479842    -2.033218861162     6.115849130837     1.007825032230
      Gh(H)          -0.000009479842     1.965264138838     6.109638130837     1.007825032230
      Gh(C)           2.478116520158     0.567872138838     6.131553130837    12.000000000000
      Gh(H)           2.490591520158     1.658125138838     6.104208130837     1.007825032230
      Gh(H)           2.967027520158     0.220696138838     7.044999130837     1.007825032230
      Gh(H)           3.001427520158     0.176400138838     5.256070130837     1.007825032230
      Gh(H)          -2.857359479842     0.490794138838     5.043184130837     1.007825032230
      Gh(H)          -3.082679479842    -0.042310861162     6.735339130837     1.007825032230
      Gh(H)          -2.518128479842     1.610701138838     6.392239130837     1.007825032230
         C            1.225311895423     0.707533799757    -0.884217241879    12.000000000000
         C            1.225323856051    -0.707543383733    -0.896548051449    12.000000000000
         C           -0.000006153932     1.414961424928    -0.897081674970    12.000000000000
         C            2.456448753949     1.418323398016    -0.881330384479    12.000000000000
         C            0.000010827279    -1.414980987797    -0.886882117646    12.000000000000
         C           -1.225300948908     0.707540884822    -0.881965721556    12.000000000000
         C            2.456437755320    -1.418327793043    -0.898793208306    12.000000000000
         C           -0.000001332978     2.836796542119    -0.899485225104    12.000000000000
         C            3.681826697470     0.709313466839    -0.898444418508    12.000000000000
         C            2.455120048865     2.834219172327    -0.898546975469    12.000000000000
         C            3.681821105219    -0.709338328591    -0.882371934490    12.000000000000
         C           -1.225313598688    -0.707532004706    -0.895475290022    12.000000000000
         C            1.226699581202     3.543464994832    -0.882187902559    12.000000000000
         C            0.000004784858    -2.836786628398    -0.882033950024    12.000000000000
         C           -2.456436032848     1.418312429123    -0.881930325711    12.000000000000
         C            2.455123417779    -2.834234517751    -0.882523842857    12.000000000000
         C           -1.226714364589     3.543464574588    -0.882084569340    12.000000000000
         C            4.914517295202     1.427168383327    -0.891963735479    12.000000000000
         C            3.693150191476     3.542790803383    -0.891913935842    12.000000000000
         C           -2.456437600068    -1.418317770001    -0.898818246431    12.000000000000
         C            1.226704841943    -3.543478731069    -0.898158033309    12.000000000000
         C           -2.455125398508     2.834212173472    -0.898540599123    12.000000000000
         C            4.914524380782    -1.427191399106    -0.888990992744    12.000000000000
         C            1.221424613699     4.970129576098    -0.888852558484    12.000000000000
         C            4.893008229321     2.825183510864    -0.890747067120    12.000000000000
         C           -1.226697008489    -3.543475486239    -0.897890828899    12.000000000000
         C           -3.681818976526     0.709320477570    -0.898431738028    12.000000000000
         C            3.693147101150    -3.542805830553    -0.888873102183    12.000000000000
         C           -1.221432251994     4.970123808701    -0.888669063112    12.000000000000
         C            6.134770972926     0.680543457943    -0.891193960929    12.000000000000
         C            3.656788880610     4.972948754405    -0.891005298060    12.000000000000
         C           -2.455126907733    -2.834219582223    -0.882768200655    12.000000000000
         C           -3.681819179061    -0.709330192631    -0.882254312911    12.000000000000
         C            4.893012617914    -2.825204594794    -0.890135915225    12.000000000000
         C           -0.000001073113     5.650442876870    -0.889900371819    12.000000000000
         C            6.134775112332    -0.680559343237    -0.889928640413    12.000000000000
         C            2.478131482856     5.653572262169    -0.889716518410    12.000000000000
         C            1.221422404738    -4.970131544095    -0.891652055507    12.000000000000
         C           -3.693162383965     3.542792465030    -0.891748428383    12.000000000000
         C           -1.221428520945    -4.970122792758    -0.891764817340    12.000000000000
         C           -4.914521807942     1.427170957833    -0.891886790471    12.000000000000
         C            3.656787019679    -4.972959715401    -0.889554797526    12.000000000000
         C           -2.478138530106     5.653569933366    -0.889431993401    12.000000000000
         C           -3.693141738564    -3.542794708141    -0.888989228339    12.000000000000
         C           -4.914512483053    -1.427185489190    -0.888956295570    12.000000000000
         C           -0.000006008926    -5.650442776176    -0.890295875940    12.000000000000
         C           -4.893020484101     2.825184109757    -0.890757148980    12.000000000000
         C            2.478125993298    -5.653578033051    -0.890645398318    12.000000000000
         C           -3.656798710258     4.972951692879    -0.890828617685    12.000000000000
         C           -4.892999478856    -2.825196256222    -0.890289950922    12.000000000000
         C           -2.478128498083    -5.653570659169    -0.890920585965    12.000000000000
         C           -6.134770503331     0.680544277094    -0.891219512631    12.000000000000
         C           -3.656788833189    -4.972948512133    -0.889769085343    12.000000000000
         C           -6.134765042913    -0.680558404644    -0.889949116208    12.000000000000
         H            5.835288495816     3.369271405792    -0.886387741457     1.007825032230
         H            7.073859172747     1.228212759737    -0.890732317536     1.007825032230
         H            4.600663264174     5.512376313291    -0.890500097308     1.007825032230
         H            5.835283387305    -3.369310545891    -0.894590382539     1.007825032230
         H           -0.000012151306     6.738526184974    -0.894249616827     1.007825032230
         H            7.073861171831    -1.228231431906    -0.890437378507     1.007825032230
         H            2.473313731799     6.740679802232    -0.890183239340     1.007825032230
         H            4.600668491381    -5.512380618338    -0.889964794694     1.007825032230
         H           -2.473318680537     6.740677230444    -0.889881892715     1.007825032230
         H           -0.000010268228    -6.738532665614    -0.885766190955     1.007825032230
         H           -5.835301914343     3.369266461134    -0.886251719309     1.007825032230
         H            2.473307923831    -6.740689863591    -0.890075067893     1.007825032230
         H           -4.600674841208     5.512373537441    -0.890334768984     1.007825032230
         H           -5.835279506835    -3.369293452942    -0.894869688420     1.007825032230
         H           -2.473300347440    -6.740683567302    -0.890524384438     1.007825032230
         H           -7.073857766768     1.228215983678    -0.890816309016     1.007825032230
         H           -4.600673786085    -5.512367158949    -0.890137102717     1.007825032230
         H           -7.073856934409    -1.228225121139    -0.890532234974     1.007825032230

  Charge       = 0
  Multiplicity = 1
  Basis Set: JUN-CC-PVDZ
    Blend: JUN-CC-PVDZ
  Basis Set: (JUN-CC-PVDZ AUX)
    Blend: JUN-CC-PVDZ-JKFIT

    Orbital Energies [Eh]
    ---------------------

    Doubly Occupied:

       1A    -11.260657     2A    -11.260214     3A    -11.260212
       4A    -11.259504     5A    -11.259504     6A    -11.259334
       7A    -11.259126     8A    -11.259048     9A    -11.259047
      10A    -11.258723    11A    -11.258719    12A    -11.258651
      13A    -11.258589    14A    -11.258584    15A    -11.258581
      16A    -11.258552    17A    -11.258546    18A    -11.258530
      19A    -11.258517    20A    -11.258511    21A    -11.258506
      22A    -11.258406    23A    -11.258403    24A    -11.258103
      25A    -11.257446    26A    -11.257384    27A    -11.257383
      28A    -11.257248    29A    -11.257247    30A    -11.257163
      31A    -11.256541    32A    -11.256470    33A    -11.256469
      34A    -11.256360    35A    -11.256359    36A    -11.256312
      37A    -11.252389    38A    -11.252389    39A    -11.252387
      40A    -11.252386    41A    -11.252383    42A    -11.252382
      43A    -11.251522    44A    -11.251519    45A    -11.251518
      46A    -11.251512    47A    -11.251511    48A    -11.251507
      49A    -11.250951    50A    -11.250950    51A    -11.250949
      52A    -11.250947    53A    -11.250945    54A    -11.250943
      55A     -1.244274    56A     -1.219997    57A     -1.219997
      58A     -1.189708    59A     -1.189700    60A     -1.181147
      61A     -1.157708    62A     -1.149139    63A     -1.135686
      64A     -1.135679    65A     -1.113341    66A     -1.113337
      67A     -1.082610    68A     -1.082603    69A     -1.078792
      70A     -1.066125    71A     -1.066121    72A     -1.039561
      73A     -1.024468    74A     -1.021972    75A     -1.021928
      76A     -1.017873    77A     -1.012936    78A     -0.987201
      79A     -0.987155    80A     -0.962033    81A     -0.961984
      82A     -0.894452    83A     -0.894425    84A     -0.888143
      85A     -0.886390    86A     -0.886333    87A     -0.881580
      88A     -0.881532    89A     -0.862057    90A     -0.837539
      91A     -0.818372    92A     -0.816810    93A     -0.812320
      94A     -0.812311    95A     -0.794839    96A     -0.794828
      97A     -0.746818    98A     -0.745045    99A     -0.733611
     100A     -0.733603   101A     -0.732337   102A     -0.732313
     103A     -0.716681   104A     -0.699134   105A     -0.699122
     106A     -0.693758   107A     -0.693742   108A     -0.661384
     109A     -0.653313   110A     -0.651357   111A     -0.650402
     112A     -0.650396   113A     -0.639513   114A     -0.639510
     115A     -0.629894   116A     -0.627705   117A     -0.627690
     118A     -0.606452   119A     -0.605924   120A     -0.601846
     121A     -0.599902   122A     -0.599869   123A     -0.593804
     124A     -0.591431   125A     -0.591419   126A     -0.585407
     127A     -0.576417   128A     -0.576408   129A     -0.567464
     130A     -0.567450   131A     -0.566145   132A     -0.566126
     133A     -0.558920   134A     -0.555007   135A     -0.555001
     136A     -0.538744   137A     -0.538742   138A     -0.538281
     139A     -0.538275   140A     -0.529878   141A     -0.528200
     142A     -0.523034   143A     -0.523027   144A     -0.500653
     145A     -0.495709   146A     -0.493391   147A     -0.487937
     148A     -0.485247   149A     -0.481928   150A     -0.481921
     151A     -0.470427   152A     -0.470411   153A     -0.451228
     154A     -0.451151   155A     -0.439178   156A     -0.439169
     157A     -0.404858   158A     -0.404835   159A     -0.403479
     160A     -0.375533   161A     -0.375530   162A     -0.349236
     163A     -0.337702   164A     -0.336669   165A     -0.336612
     166A     -0.311213   167A     -0.298201   168A     -0.284467
     169A     -0.284414   170A     -0.225037   171A     -0.224971

  @DF-RHF Final Energy: -2055.89181398975052

   => Energetics <=

    Nuclear Repulsion Energy =           6452.5568002797772351
    One-Electron Energy =              -15636.4318675308950333
    Two-Electron Energy =                7127.9832532613672811
    Total Energy =                      -2055.8918139897505171
 Dipole X            :          0.0000991           -0.0000085            0.0000906
 Dipole Y            :          0.0028639           -0.0028843           -0.0000203
 Dipole Z            :        575.4223269         -575.4256281           -0.0033013
 Magnitude           :                                                    0.0033026

    SAPT Results
  --------------------------------------------------------------------------------------------------------
    Electrostatics                 -6.85946476 [mEh]      -4.30437912 [kcal/mol]     -18.00952224 [kJ/mol]
      Elst10,r                     -6.85946476 [mEh]      -4.30437912 [kcal/mol]     -18.00952224 [kJ/mol]

    Exchange                       -0.00032760 [mEh]      -0.00020557 [kcal/mol]      -0.00086012 [kJ/mol]
      Exch10                       -0.00032760 [mEh]      -0.00020557 [kcal/mol]      -0.00086012 [kJ/mol]
      Exch10(S^2)                  -0.00032760 [mEh]      -0.00020557 [kcal/mol]      -0.00086012 [kJ/mol]

    Induction                      -1.86758220 [mEh]      -1.17192552 [kcal/mol]      -4.90333638 [kJ/mol]
      Ind20,r                      -1.84187510 [mEh]      -1.15579407 [kcal/mol]      -4.83584240 [kJ/mol]
      Exch-Ind20,r                  0.00037894 [mEh]       0.00023779 [kcal/mol]       0.00099490 [kJ/mol]
      delta HF,r (2)               -0.02608604 [mEh]      -0.01636924 [kcal/mol]      -0.06848888 [kJ/mol]

    Dispersion                     -1.20920969 [mEh]      -0.75879054 [kcal/mol]      -3.17477960 [kJ/mol]
      Disp20                       -1.20933828 [mEh]      -0.75887123 [kcal/mol]      -3.17511722 [kJ/mol]
      Exch-Disp20                   0.00012859 [mEh]       0.00008069 [kcal/mol]       0.00033762 [kJ/mol]
      Disp20 (SS)                  -0.60466914 [mEh]      -0.37943561 [kcal/mol]      -1.58755861 [kJ/mol]
      Disp20 (OS)                  -0.60466914 [mEh]      -0.37943561 [kcal/mol]      -1.58755861 [kJ/mol]
      Exch-Disp20 (SS)              0.00009849 [mEh]       0.00006180 [kcal/mol]       0.00025858 [kJ/mol]
      Exch-Disp20 (OS)              0.00003010 [mEh]       0.00001889 [kcal/mol]       0.00007903 [kJ/mol]

  Total HF                         -8.72737455 [mEh]      -5.47651021 [kcal/mol]     -22.91371873 [kJ/mol]
  Total SAPT0                      -9.93658424 [mEh]      -6.23530075 [kcal/mol]     -26.08849833 [kJ/mol]

  Special recipe for scaled SAPT0 (see Manual):
    Electrostatics sSAPT0          -6.85946476 [mEh]      -4.30437912 [kcal/mol]     -18.00952224 [kJ/mol]
    Exchange sSAPT0                -0.00032760 [mEh]      -0.00020557 [kcal/mol]      -0.00086012 [kJ/mol]
    Induction sSAPT0               -1.86758220 [mEh]      -1.17192552 [kcal/mol]      -4.90333638 [kJ/mol]
    Dispersion sSAPT0              -1.20920969 [mEh]      -0.75879054 [kcal/mol]      -3.17477960 [kJ/mol]
  Total sSAPT0                     -9.93658424 [mEh]      -6.23530075 [kcal/mol]     -26.08849833 [kJ/mol]
  --------------------------------------------------------------------------------------------------------

*** Psi4 exiting successfully. Buy a developer a beer!
