                               Psi4 1.9 release

  ==> Input File <==

--------------------------------------------------------------------------
memory 32 GB # how much memory is available ! Depends on the nodes/cores !

molecule dimer {
# monomer A
+1 1    # Charge and multiplicity
C  0.680067 -1.215929 6.008042
C -0.680504 -1.215545 6.006014
N -1.085635  0.102779 6.005016
C  0.000108  0.884180 6.001740
C -2.477365  0.570758 5.955610
N  1.085222  0.102779 6.005016
H  1.385146 -2.033368 6.015870
H -1.385302 -2.033214 6.006204
H -0.000009  1.965269 5.999993
C  2.478117  0.567877 6.021908
H  2.490592  1.658130 5.994563
H  2.967028  0.220701 6.935354
H  3.001428  0.176405 5.146425
H -2.857359  0.490799 4.933539
H -3.082679 -0.042306 6.625694
H -2.518128  1.610706 6.282594
--
# monomer B
0 1     # Charge and multiplicity
C   1.22531237526482      0.70753866091955      0.00613762728373
C   1.22532433589282     -0.70753852257020     -0.00619318228664
C   -0.00000567409046      1.41496628609039     -0.00672680580738
C   2.45644923379077      1.41832825917820      0.00902448468363
C   0.00001130712078     -1.41497612663474      0.00347275151708
C   -1.22530046906674      0.70754574598412      0.00838914760619
C   2.45643823516184     -1.41832293188077     -0.00843833914343
C   -0.00000085313587      2.83680140328112     -0.00913035594137
C   3.68182717731192      0.70931832800114     -0.00808954934571
C   2.45512052870677      2.83422403348893     -0.00819210630633
C   3.68182158506039     -0.70933346742900      0.00798293467272
C   -1.22531311884624     -0.70752714354401     -0.00512042085974
C   1.22670006104402      3.54346985599427      0.00816696660346
C   0.00000526469929     -2.83678176723568      0.00832091913869
C   -2.45643555300670      1.41831729028492      0.00842454345199
C   2.45512389762097     -2.83422965658853      0.00783102630520
C   -1.22671388474763      3.54346943575023      0.00827029982280
C   4.91451777504333      1.42717324448953     -0.00160886631602
C   3.69315067131765      3.54279566454522     -0.00155906667985
C   -2.45643712022637     -1.41831290883911     -0.00846337726810
C   1.22670532178455     -3.54347386990643     -0.00780316414624
C   -2.45512491866593      2.83421703463423     -0.00818572995999
C   4.91452486062398     -1.42718653794377      0.00136387641845
C   1.22142509354026      4.97013443726031      0.00150231067809
C   4.89300870916237      2.82518837202648     -0.00039219795739
C   -1.22669652864725     -3.54347062507680     -0.00753595973677
C   -3.68181849668397      0.70932533873199     -0.00807686886569
C   3.69314758099218     -3.54280096939050      0.00148176697923
C   -1.22143177215231      4.97012866986289      0.00168580605083
C   6.13477145276790      0.68054831910577     -0.00083909176631
C   3.65678936045204      4.97295361556775     -0.00065042889723
C   -2.45512642789169     -2.83421472106065      0.00758666850712
C   -3.68181869921921     -0.70932533146830      0.00810055625144
C   4.89301309775526     -2.82519973363176      0.00021895393805
C   -0.00000059327114      5.65044773803267      0.00045449734393
C   6.13477559217374     -0.68055448207492      0.00042622874941
C   2.47813196269732      5.65357712333155      0.00063835075260
C   1.22142288457925     -4.97012668293268     -0.00129718634452
C   -3.69316190412301      3.54279732619245     -0.00139355922051
C   -1.22142804110313     -4.97011793159564     -0.00140994817719
C   -4.91452132810043      1.42717581899491     -0.00153192130862
C   3.65678749952045     -4.97295485423912      0.00080007163680
C   -2.47813805026426      5.65357479452875      0.00092287576113
C   -3.69314125872231     -3.54278984697859      0.00136564082345
C   -4.91451200321153     -1.42718062802730      0.00139857359209
C   -0.00000552908399     -5.65043791501335      0.00005899322272
C   -4.89302000425900      2.82518897091939     -0.00040227981744
C   2.47812647313991     -5.65357317188818     -0.00029052915548
C   -3.65679823041642      4.97295655404175     -0.00047374852278
C   -4.89299899901461     -2.82519139505969      0.00006491824035
C   -2.47812801824129     -5.65356579800621     -0.00056571680280
C   -6.13477002348955      0.68054913825639     -0.00086464346868
C   -3.65678835334731     -4.97294365097028      0.00058578382008
C   -6.13476456307132     -0.68055354348201      0.00040575295444
H   5.83528897565761      3.36927626695423      0.00396712770529
H   7.07385965258860      1.22821762089947     -0.00037744837300
H   4.60066374401555      5.51238117445323     -0.00014522814529
H   5.83528386714679     -3.36930568472863     -0.00423551337640
H   -0.00001167146422      6.73853104613662     -0.00389474766392
H   7.07386165167227     -1.22822657074368     -0.00008250934481
H   2.47331421164041      6.74068466339473      0.00017162982210
H   4.60066897122302     -5.51237575717576      0.00039007446835
H   -2.47331820069565      6.74068209160650      0.00047297644710
H   -0.00000978838621     -6.73852780445195      0.00458867820736
H   -5.83530143450167      3.36927132229595      0.00410314985360
H   2.47330840367253     -6.74068500242887      0.00027980126949
H   -4.60067436136587      5.51237839860371      0.00002010017831
H   -5.83527902699321     -3.36928859177951     -0.00451481925734
H   -2.47329986759855     -6.74067870613986     -0.00016951527498
H   -7.07385728692578      1.22822084484047     -0.00046143985387
H   -4.60067330624313     -5.51236229778631      0.00021776644566
H   -7.07385645456741     -1.22822025997701     -0.00017736581114

    units angstrom      # Angstroms are the default
    no_reorient         # Geometry fixed, default
    symmetry c1         # C1 symmetry, default
}

set {
    scf_type DF         # Density fitting, faster than exact integrals
    freeze_core True    # Freeze core electrons
    basis jun-cc-pVDZ   # Jun-cc-pVDZ basis set, recommended for sSAPT0 in https://doi.org/10.1063/1.4867135
}

energy('ssapt0')        # Compute sSAPT0 energy, includes also SAPT0
--------------------------------------------------------------------------

  //              Dimer HF             //
    Molecular point group: c1
  Charge       = 1
  Multiplicity = 1
  Basis Set: JUN-CC-PVDZ
    Blend: JUN-CC-PVDZ
  Basis Set: (JUN-CC-PVDZ AUX)
    Blend: JUN-CC-PVDZ-JKFIT
  @DF-RHF Final Energy: -2359.20123633482763
    Total Energy =                      -2359.2012363348276267
 Dipole X            :          0.0034776            0.0006313            0.0041089
 Dipole Y            :         -1.5303644            1.8864948            0.3561304
 Dipole Z            :        -22.2873864           31.2201340            8.9327476
 Magnitude           :                                                    8.9398448
  //            Monomer A HF           //
    Molecular point group: c1
  Multiplicity = 1
  Basis Set: JUN-CC-PVDZ
    Blend: JUN-CC-PVDZ
  Basis Set: (JUN-CC-PVDZ AUX)
    Blend: JUN-CC-PVDZ-JKFIT
  @DF-RHF Final Energy:  -303.29741973976326
    Total Energy =                       -303.2974197397632565
  //            Monomer B HF           //
    Molecular point group: c1

    Geometry (in Angstrom), charge = 0, multiplicity = 1:

       Center              X                  Y                   Z               Mass
    ------------   -----------------  -----------------  -----------------  -----------------
      Gh(C)           0.680066520158    -1.215933861162     5.244880994947    12.000000000000
      Gh(C)          -0.680504479842    -1.215549861162     5.242852994947    12.000000000000
      Gh(N)          -1.085635479842     0.102774138838     5.241854994947    14.003074004430
      Gh(C)           0.000107520158     0.884175138838     5.238578994947    12.000000000000
      Gh(C)          -2.477365479842     0.570753138838     5.192448994947    12.000000000000
      Gh(N)           1.085221520158     0.102774138838     5.241854994947    14.003074004430
      Gh(H)           1.385145520158    -2.033372861162     5.252708994947     1.007825032230
      Gh(H)          -1.385302479842    -2.033218861162     5.243042994947     1.007825032230
      Gh(H)          -0.000009479842     1.965264138838     5.236831994947     1.007825032230
      Gh(C)           2.478116520158     0.567872138838     5.258746994947    12.000000000000
      Gh(H)           2.490591520158     1.658125138838     5.231401994947     1.007825032230
      Gh(H)           2.967027520158     0.220696138838     6.172192994947     1.007825032230
      Gh(H)           3.001427520158     0.176400138838     4.383263994947     1.007825032230
      Gh(H)          -2.857359479842     0.490794138838     4.170377994947     1.007825032230
      Gh(H)          -3.082679479842    -0.042310861162     5.862532994947     1.007825032230
      Gh(H)          -2.518128479842     1.610701138838     5.519432994947     1.007825032230
         C            1.225311895423     0.707533799757    -0.757023377769    12.000000000000
         C            1.225323856051    -0.707543383733    -0.769354187340    12.000000000000
         C           -0.000006153932     1.414961424928    -0.769887810860    12.000000000000
         C            2.456448753949     1.418323398016    -0.754136520369    12.000000000000
         C            0.000010827279    -1.414980987797    -0.759688253536    12.000000000000
         C           -1.225300948908     0.707540884822    -0.754771857447    12.000000000000
         C            2.456437755320    -1.418327793043    -0.771599344196    12.000000000000
         C           -0.000001332978     2.836796542119    -0.772291360994    12.000000000000
         C            3.681826697470     0.709313466839    -0.771250554399    12.000000000000
         C            2.455120048865     2.834219172327    -0.771353111359    12.000000000000
         C            3.681821105219    -0.709338328591    -0.755178070380    12.000000000000
         C           -1.225313598688    -0.707532004706    -0.768281425913    12.000000000000
         C            1.226699581202     3.543464994832    -0.754994038450    12.000000000000
         C            0.000004784858    -2.836786628398    -0.754840085914    12.000000000000
         C           -2.456436032848     1.418312429123    -0.754736461601    12.000000000000
         C            2.455123417779    -2.834234517751    -0.755329978748    12.000000000000
         C           -1.226714364589     3.543464574588    -0.754890705230    12.000000000000
         C            4.914517295202     1.427168383327    -0.764769871369    12.000000000000
         C            3.693150191476     3.542790803383    -0.764720071733    12.000000000000
         C           -2.456437600068    -1.418317770001    -0.771624382321    12.000000000000
         C            1.226704841943    -3.543478731069    -0.770964169199    12.000000000000
         C           -2.455125398508     2.834212173472    -0.771346735013    12.000000000000
         C            4.914524380782    -1.427191399106    -0.761797128635    12.000000000000
         C            1.221424613699     4.970129576098    -0.761658694375    12.000000000000
         C            4.893008229321     2.825183510864    -0.763553203010    12.000000000000
         C           -1.226697008489    -3.543475486239    -0.770696964790    12.000000000000
         C           -3.681818976526     0.709320477570    -0.771237873919    12.000000000000
         C            3.693147101150    -3.542805830553    -0.761679238074    12.000000000000
         C           -1.221432251994     4.970123808701    -0.761475199002    12.000000000000
         C            6.134770972926     0.680543457943    -0.764000096819    12.000000000000
         C            3.656788880610     4.972948754405    -0.763811433950    12.000000000000
         C           -2.455126907733    -2.834219582223    -0.755574336546    12.000000000000
         C           -3.681819179061    -0.709330192631    -0.755060448802    12.000000000000
         C            4.893012617914    -2.825204594794    -0.762942051115    12.000000000000
         C           -0.000001073113     5.650442876870    -0.762706507709    12.000000000000
         C            6.134775112332    -0.680559343237    -0.762734776304    12.000000000000
         C            2.478131482856     5.653572262169    -0.762522654300    12.000000000000
         C            1.221422404738    -4.970131544095    -0.764458191398    12.000000000000
         C           -3.693162383965     3.542792465030    -0.764554564274    12.000000000000
         C           -1.221428520945    -4.970122792758    -0.764570953230    12.000000000000
         C           -4.914521807942     1.427170957833    -0.764692926362    12.000000000000
         C            3.656787019679    -4.972959715401    -0.762360933416    12.000000000000
         C           -2.478138530106     5.653569933366    -0.762238129292    12.000000000000
         C           -3.693141738564    -3.542794708141    -0.761795364230    12.000000000000
         C           -4.914512483053    -1.427185489190    -0.761762431461    12.000000000000
         C           -0.000006008926    -5.650442776176    -0.763102011830    12.000000000000
         C           -4.893020484101     2.825184109757    -0.763563284870    12.000000000000
         C            2.478125993298    -5.653578033051    -0.763451534208    12.000000000000
         C           -3.656798710258     4.972951692879    -0.763634753576    12.000000000000
         C           -4.892999478856    -2.825196256222    -0.763096086813    12.000000000000
         C           -2.478128498083    -5.653570659169    -0.763726721856    12.000000000000
         C           -6.134770503331     0.680544277094    -0.764025648522    12.000000000000
         C           -3.656788833189    -4.972948512133    -0.762575221233    12.000000000000
         C           -6.134765042913    -0.680558404644    -0.762755252099    12.000000000000
         H            5.835288495816     3.369271405792    -0.759193877348     1.007825032230
         H            7.073859172747     1.228212759737    -0.763538453426     1.007825032230
         H            4.600663264174     5.512376313291    -0.763306233198     1.007825032230
         H            5.835283387305    -3.369310545891    -0.767396518429     1.007825032230
         H           -0.000012151306     6.738526184974    -0.767055752717     1.007825032230
         H            7.073861171831    -1.228231431906    -0.763243514398     1.007825032230
         H            2.473313731799     6.740679802232    -0.762989375231     1.007825032230
         H            4.600668491381    -5.512380618338    -0.762770930585     1.007825032230
         H           -2.473318680537     6.740677230444    -0.762688028606     1.007825032230
         H           -0.000010268228    -6.738532665614    -0.758572326846     1.007825032230
         H           -5.835301914343     3.369266461134    -0.759057855199     1.007825032230
         H            2.473307923831    -6.740689863591    -0.762881203784     1.007825032230
         H           -4.600674841208     5.512373537441    -0.763140904875     1.007825032230
         H           -5.835279506835    -3.369293452942    -0.767675824310     1.007825032230
         H           -2.473300347440    -6.740683567302    -0.763330520328     1.007825032230
         H           -7.073857766768     1.228215983678    -0.763622444907     1.007825032230
         H           -4.600673786085    -5.512367158949    -0.762943238607     1.007825032230
         H           -7.073856934409    -1.228225121139    -0.763338370864     1.007825032230

  Charge       = 0
  Multiplicity = 1
  Basis Set: JUN-CC-PVDZ
    Blend: JUN-CC-PVDZ
  Basis Set: (JUN-CC-PVDZ AUX)
    Blend: JUN-CC-PVDZ-JKFIT

    Orbital Energies [Eh]
    ---------------------

    Doubly Occupied:

       1A    -11.260607     2A    -11.260164     3A    -11.260162
       4A    -11.259455     5A    -11.259455     6A    -11.259286
       7A    -11.259078     8A    -11.259000     9A    -11.258999
      10A    -11.258676    11A    -11.258672    12A    -11.258605
      13A    -11.258543    14A    -11.258539    15A    -11.258535
      16A    -11.258507    17A    -11.258501    18A    -11.258485
      19A    -11.258471    20A    -11.258465    21A    -11.258460
      22A    -11.258358    23A    -11.258355    24A    -11.258053
      25A    -11.257397    26A    -11.257335    27A    -11.257335
      28A    -11.257199    29A    -11.257199    30A    -11.257114
      31A    -11.256492    32A    -11.256421    33A    -11.256420
      34A    -11.256311    35A    -11.256310    36A    -11.256263
      37A    -11.252352    38A    -11.252350    39A    -11.252349
      40A    -11.252348    41A    -11.252345    42A    -11.252343
      43A    -11.251476    44A    -11.251473    45A    -11.251472
      46A    -11.251466    47A    -11.251465    48A    -11.251461
      49A    -11.250913    50A    -11.250911    51A    -11.250910
      52A    -11.250908    53A    -11.250906    54A    -11.250905
      55A     -1.244190    56A     -1.219928    57A     -1.219926
      58A     -1.189645    59A     -1.189638    60A     -1.181070
      61A     -1.157653    62A     -1.149078    63A     -1.135613
      64A     -1.135605    65A     -1.113286    66A     -1.113281
      67A     -1.082541    68A     -1.082534    69A     -1.078719
      70A     -1.066071    71A     -1.066067    72A     -1.039497
      73A     -1.024392    74A     -1.021892    75A     -1.021848
      76A     -1.017817    77A     -1.012883    78A     -0.987130
      79A     -0.987084    80A     -0.961975    81A     -0.961925
      82A     -0.894390    83A     -0.894363    84A     -0.888060
      85A     -0.886310    86A     -0.886253    87A     -0.881507
      88A     -0.881460    89A     -0.861996    90A     -0.837491
      91A     -0.818308    92A     -0.816733    93A     -0.812247
      94A     -0.812239    95A     -0.794782    96A     -0.794771
      97A     -0.746739    98A     -0.744972    99A     -0.733534
     100A     -0.733527   101A     -0.732277   102A     -0.732253
     103A     -0.716609   104A     -0.699072   105A     -0.699059
     106A     -0.693691   107A     -0.693674   108A     -0.661325
     109A     -0.653236   110A     -0.651277   111A     -0.650345
     112A     -0.650340   113A     -0.639454   114A     -0.639449
     115A     -0.629823   116A     -0.627632   117A     -0.627617
     118A     -0.606458   119A     -0.605882   120A     -0.601771
     121A     -0.599837   122A     -0.599803   123A     -0.593735
     124A     -0.591347   125A     -0.591334   126A     -0.585358
     127A     -0.576417   128A     -0.576397   129A     -0.567411
     130A     -0.567396   131A     -0.566071   132A     -0.566053
     133A     -0.558843   134A     -0.554946   135A     -0.554940
     136A     -0.538686   137A     -0.538683   138A     -0.538259
     139A     -0.538248   140A     -0.529814   141A     -0.528185
     142A     -0.522971   143A     -0.522962   144A     -0.500595
     145A     -0.495673   146A     -0.493330   147A     -0.487899
     148A     -0.485176   149A     -0.481860   150A     -0.481852
     151A     -0.470394   152A     -0.470382   153A     -0.451144
     154A     -0.451067   155A     -0.439140   156A     -0.439131
     157A     -0.404819   158A     -0.404797   159A     -0.403440
     160A     -0.375494   161A     -0.375491   162A     -0.349195
     163A     -0.337656   164A     -0.336620   165A     -0.336569
     166A     -0.311170   167A     -0.298164   168A     -0.284419
     169A     -0.284369   170A     -0.224991   171A     -0.224928

  @DF-RHF Final Energy: -2055.89235737403305

   => Energetics <=

    Nuclear Repulsion Energy =           6452.5568002797772351
    One-Electron Energy =              -15636.4517702641369397
    Two-Electron Energy =                7128.0026126103266506
    Total Energy =                      -2055.8923573740330539
 Dipole X            :          0.0000535           -0.0000085            0.0000450
 Dipole Y            :          0.0028857           -0.0028843            0.0000014
 Dipole Z            :        493.2133715         -493.2219719           -0.0086004
 Magnitude           :                                                    0.0086005

    SAPT Results
  --------------------------------------------------------------------------------------------------------
    Electrostatics                 -8.55311539 [mEh]      -5.36716094 [kcal/mol]     -22.45620136 [kJ/mol]
      Elst10,r                     -8.55311539 [mEh]      -5.36716094 [kcal/mol]     -22.45620136 [kJ/mol]

    Exchange                        0.00040156 [mEh]       0.00025198 [kcal/mol]       0.00105429 [kJ/mol]
      Exch10                        0.00040156 [mEh]       0.00025198 [kcal/mol]       0.00105429 [kJ/mol]
      Exch10(S^2)                   0.00040156 [mEh]       0.00025198 [kcal/mol]       0.00105429 [kJ/mol]

    Induction                      -2.90650720 [mEh]      -1.82386080 [kcal/mol]      -7.63103360 [kJ/mol]
      Ind20,r                      -2.84597249 [mEh]      -1.78587470 [kcal/mol]      -7.47209975 [kJ/mol]
      Exch-Ind20,r                  0.00177127 [mEh]       0.00111149 [kcal/mol]       0.00465048 [kJ/mol]
      delta HF,r (2)               -0.06230598 [mEh]      -0.03909759 [kcal/mol]      -0.16358433 [kJ/mol]

    Dispersion                     -2.54597492 [mEh]      -1.59762338 [kcal/mol]      -6.68445624 [kJ/mol]
      Disp20                       -2.54722263 [mEh]      -1.59840633 [kcal/mol]      -6.68773210 [kJ/mol]
      Exch-Disp20                   0.00124771 [mEh]       0.00078295 [kcal/mol]       0.00327586 [kJ/mol]
      Disp20 (SS)                  -1.27361132 [mEh]      -0.79920317 [kcal/mol]      -3.34386605 [kJ/mol]
      Disp20 (OS)                  -1.27361132 [mEh]      -0.79920317 [kcal/mol]      -3.34386605 [kJ/mol]
      Exch-Disp20 (SS)              0.00092968 [mEh]       0.00058338 [kcal/mol]       0.00244088 [kJ/mol]
      Exch-Disp20 (OS)              0.00031803 [mEh]       0.00019957 [kcal/mol]       0.00083499 [kJ/mol]

  Total HF                        -11.45922103 [mEh]      -7.19076976 [kcal/mol]     -30.08618067 [kJ/mol]
  Total SAPT0                     -14.00519595 [mEh]      -8.78839314 [kcal/mol]     -36.77063691 [kJ/mol]

  Special recipe for scaled SAPT0 (see Manual):
    Electrostatics sSAPT0          -8.55311539 [mEh]      -5.36716094 [kcal/mol]     -22.45620136 [kJ/mol]
    Exchange sSAPT0                 0.00040156 [mEh]       0.00025198 [kcal/mol]       0.00105429 [kJ/mol]
    Induction sSAPT0               -2.90650720 [mEh]      -1.82386080 [kcal/mol]      -7.63103360 [kJ/mol]
    Dispersion sSAPT0              -2.54597492 [mEh]      -1.59762338 [kcal/mol]      -6.68445624 [kJ/mol]
  Total sSAPT0                    -14.00519595 [mEh]      -8.78839314 [kcal/mol]     -36.77063691 [kJ/mol]
  --------------------------------------------------------------------------------------------------------

*** Psi4 exiting successfully. Buy a developer a beer!
