                               Psi4 1.9 release

  ==> Input File <==

--------------------------------------------------------------------------
memory 80 GB # how much memory is available ! Depends on the nodes/cores !

molecule dimer {
# monomer A
-1 1    # Charge and multiplicity
B -1.977592e-04  2.742729e-04 3.700034
F  1.123153e-16  1.430594e-17 5.112819
F  1.147860e+00  6.757812e-01 3.228893
F  1.191806e-02 -1.332011e+00 3.229095
F -1.159666e+00  6.560735e-01 3.229174
--
# monomer B
0 1     # Charge and multiplicity
C   -3.66844126402057      7.80375217008252      0.00190004133558
C   -4.84759871934653      7.13124183134024     -0.00046653359696
C   -4.89495929917518      5.69633040353158     -0.00103944469517
C   -3.65374067877320      4.98073034095895      0.00662099703436
C   -2.40942512149445      7.11398103667468      0.00209438359570
C   -2.42547734410473      5.68112195090346     -0.00491050527438
C   -1.19474401643570      7.78614419430947      0.00356656413763
C   0.03795902893699      7.09942164575698      0.00139585983271
C   0.03033258741920      5.66948955970466     -0.00408752508301
C   -1.20098450790502      4.96927034791531      0.00488220885047
C   1.27795782581485      7.77285944319479      0.00277170839332
C   2.48535808472416      7.08769688523756      0.00049722048857
C   2.48612868491717      5.65477081024076     -0.00644052849921
C   1.25408291964399      4.95607811366431      0.00518741308898
C   3.75171459140595      7.76391215098033      0.00062407186893
C   4.92356605618520      7.07878077698995     -0.00143240883900
C   4.95560727132542      5.64344746336949     -0.00159282164606
C   3.70680153420475      4.94121020833308      0.00349873852374
H   -3.65852113775815      8.89082741913536      0.00358502958574
H   -1.18921332975660      8.87412108735996      0.00753844057883
H   1.28429423888630      8.86083343548850      0.00693053253426
H   3.75354208679975      8.85103527897216      0.00214659618464
H   5.86995870320703      7.61379483465560     -0.00235777588134
H   -5.78823170750226      7.67630221293400     -0.00202638095293
C   -6.09197395869619      4.99326001364347     -0.00291168518608
C   -6.12866148031747      3.58258016879823     -0.00171050815740
C   -3.66457974004527      3.56418217974434     -0.00463560277484
C   -4.89429820469869      2.86108077590057      0.00453338221034
C   -2.43733499489796      2.84761165708481      0.00719617576166
C   -1.20922785759670      3.54788693497833     -0.00648285103018
C   1.24714157216223      3.53468075142962     -0.00729145743546
C   0.01517603956900      2.83311183930540      0.00439272578912
C   2.46764517244071      2.82128997725533      0.00449278391269
C   3.70254947457969      3.52466015442405     -0.00899517692985
C   6.14498038638375      4.92757236613191     -0.00282626685777
C   6.16658835886151      3.51658447594213     -0.00065971342101
C   4.92460995845939      2.80840792535402      0.00587903281610
H   7.08990550964105      5.46688776622306     -0.00658814770723
H   -7.03104175110130      5.54268795285765     -0.00714490013730
C   -7.33969804112295      2.85841153457957     -0.00333767559888
C   -7.36488195805880      1.47032337158330     -0.00157213747140
C   -4.90350460894690      1.44442681216000     -0.00628840166334
C   -6.13225715261081      0.73993935705394      0.00600164231964
C   -3.67687480051673      0.72669714267312      0.00433931473643
C   -2.44565658606518      1.42964113326212     -0.00597039546461
C   -1.22360068130162      0.71532450163492      0.00545886906656
C   0.00763786931376      1.41738314923765      0.00392452278437
C   1.23121980774686      0.70211669058719     -0.01490206287210
C   2.46082110053113      1.40329203612573      0.00460244601878
C   3.68443025419614      0.68719842821222      0.00377365974158
C   4.91870890153864      1.39173456118907     -0.00862816189375
C   7.36980207796101      2.77948220318441     -0.00242013321349
C   7.38016266612146      1.39121750785509     -0.00087345036788
C   6.13979953912259      0.67411862320065      0.00545489144369
H   -8.27919079934664      3.40711804112415     -0.00763522772059
H   8.31511347147953      3.31811809662368     -0.00663070901292
C   -8.59175593758115      0.72483255304480     -0.00123170985383
C   -8.59902460370342     -0.63263980622873      0.00089141472904
C   -6.13981313911873     -0.67413663715361     -0.00609792660607
C   -7.38018411213749     -1.39126618958160      0.00131813493501
C   -4.91868448025621     -1.39175501803000      0.00624257154343
C   -3.68443829568458     -0.68723731573599     -0.00478966852105
C   -2.46081704024768     -1.40334517882457      0.00575341766833
C   -1.23116201232071     -0.70217386488055     -0.00636696112346
C   -0.00756962538737     -1.41741884941102      0.00108956317991
C   1.22364771588843     -0.71527537726392      0.01109518512883
C   2.44567064933149     -1.42964328900682     -0.00065482763106
C   3.67686670284649     -0.72670743155550     -0.00479541202602
C   6.13224884641929     -0.73997883984993     -0.00632338623858
C   4.90351914550401     -1.44445752054090      0.00751768830159
C   8.59901484869081      0.63260386666793     -0.00101133422380
C   8.59174548810050     -0.72485086719319      0.00072504603735
C   7.36486276438985     -1.47033266560598      0.00049486934466
H   -9.52830597181814      1.27684744919284     -0.00270163681798
H   9.54141097460619      1.17457248844457     -0.00206336648518
C   -7.36983790976868     -2.77954514593389      0.00312634335708
C   -4.92459910905015     -2.80843725734101     -0.00460528907921
C   -6.16662249566744     -3.51665219282533      0.00169655107992
C   -3.70251035970491     -3.52468154912026      0.00571878010666
C   -2.46764698511392     -2.82132596280400     -0.00632585824990
C   -0.01513347410770     -2.83314164539971     -0.00604426974092
C   -1.24712184122656     -3.53473217556300      0.00551968366725
C   1.20924506964357     -3.54791467864352      0.00805871345849
C   2.43733602215464     -2.84764173817541     -0.00608104485234
C   4.89430234377080     -2.86112296828604     -0.00526030478103
C   3.66461525504104     -3.56421984553201      0.00761911515957
C   6.12863901474565     -3.58258405771778      0.00096495711699
C   7.33967266469532     -2.85841330737039      0.00248018319869
H   -9.54144911125902     -1.17456346666430      0.00226083090216
H   9.52826186807155     -1.27691907390448      0.00197485379837
H   -8.31516504384864     -3.31814985321231      0.00729857188773
H   8.27915514249207     -3.40714078989363      0.00681973918158
C   -6.14499418870218     -4.92764727278338      0.00302254913999
C   -3.70678334799751     -4.94126171411716     -0.00679841894792
C   -4.95559005800169     -5.64349397349412      0.00116871569699
C   -2.48612132622665     -5.65478557440947      0.00614125209662
C   -1.25405833548005     -4.95612205000132     -0.00503435388927
C   1.20101257386816     -4.96928038819302     -0.00385322963129
C   -0.03033667441341     -5.66952030313900      0.00398997003238
C   3.65375010132847     -4.98074377541453     -0.00309522988330
C   2.42549269587528     -5.68117463552727      0.00628170066869
C   6.09196561781097     -4.99325796338655      0.00325918379042
C   4.89497644461045     -5.69634842095790      0.00202298796027
H   -7.08989238804069     -5.46699984223871      0.00742531082125
H   7.03105520920009     -5.54265853633254      0.00683896355417
C   -4.92354532219813     -7.07882109967734      0.00061394679214
C   -2.48534208823777     -7.08772807792913     -0.00189594564379
C   -3.75168589177895     -7.76394715763627     -0.00170126671874
C   -0.03794895698805     -7.09946487446944     -0.00168022049625
C   -1.27795610040136     -7.77290438466689     -0.00366491325785
C   2.40944432072629     -7.11402201200282     -0.00081701968533
C   1.19474993715296     -7.78618536556242     -0.00296931056689
C   4.84762105249800     -7.13126211057943      0.00168979497423
C   3.66847160587561     -7.80378799294376     -0.00065863938960
H   -5.86994035041618     -7.61383059804164      0.00215798365757
H   5.78824962538815     -7.67633218931421      0.00281691445618
H   -3.75352693944918     -8.85107156923607     -0.00353718114765
H   -1.28430440589466     -8.86087539249706     -0.00809229711623
H   1.18922157469537     -8.87416062058945     -0.00706194725726
H   3.65854661482387     -8.89086063405326     -0.00231318081200

    units angstrom      # Angstroms are the default
    no_reorient         # Geometry fixed, default
    symmetry c1         # C1 symmetry, default
}

set {
    scf_type DF         # Density fitting, faster than exact integrals
    freeze_core True    # Freeze core electrons
    basis jun-cc-pVDZ   # Jun-cc-pVDZ basis set, recommended for sSAPT0 in https://doi.org/10.1063/1.4867135
}

energy('ssapt0')        # Compute sSAPT0 energy, includes also SAPT0
--------------------------------------------------------------------------

  //              Dimer HF             //
    Molecular point group: c1
  Charge       = -1
  Multiplicity = 1
  Basis Set: JUN-CC-PVDZ
    Blend: JUN-CC-PVDZ
  Basis Set: (JUN-CC-PVDZ AUX)
    Blend: JUN-CC-PVDZ-JKFIT
  @DF-RHF Final Energy: -4073.11440673134803
    Total Energy =                      -4073.1144067313471169
 Dipole X            :          0.0014405           -0.0000548            0.0013857
 Dipole Y            :          0.0014671           -0.0002464            0.0012207
 Dipole Z            :         17.0553894          -22.0196307           -4.9642414
 Magnitude           :                                                    4.9642417
  //            Monomer A HF           //
    Molecular point group: c1
  Multiplicity = 1
  Basis Set: JUN-CC-PVDZ
    Blend: JUN-CC-PVDZ
  Basis Set: (JUN-CC-PVDZ AUX)
    Blend: JUN-CC-PVDZ-JKFIT
  @DF-RHF Final Energy:  -422.77342376940237
    Total Energy =                       -422.7734237694023705
  //            Monomer B HF           //
    Molecular point group: c1

    Geometry (in Angstrom), charge = 0, multiplicity = 1:

       Center              X                  Y                   Z               Mass
    ------------   -----------------  -----------------  -----------------  -----------------
      Gh(B)          -0.000201921932     0.000288800891     3.445191440429    11.009305360000
      Gh(F)          -0.000004162732     0.000014527991     4.857976440429    18.998403162730
      Gh(F)           1.147855837268     0.675795727991     2.974050440429    18.998403162730
      Gh(F)           0.011913897268    -1.331996472009     2.974252440429    18.998403162730
      Gh(F)          -1.159670162732     0.656088027991     2.974331440429    18.998403162730
         C           -3.668445426752     7.803766698073    -0.252942518235    12.000000000000
         C           -4.847602882078     7.131256359331    -0.255309093168    12.000000000000
         C           -4.894963461907     5.696344931522    -0.255882004266    12.000000000000
         C           -3.653744841505     4.980744868950    -0.248221562536    12.000000000000
         C           -2.409429284226     7.113995564665    -0.252748175975    12.000000000000
         C           -2.425481506836     5.681136478894    -0.259753064845    12.000000000000
         C           -1.194748179167     7.786158722300    -0.251275995433    12.000000000000
         C            0.037954866205     7.099436173748    -0.253446699738    12.000000000000
         C            0.030328424687     5.669504087695    -0.258930084654    12.000000000000
         C           -1.200988670637     4.969284875906    -0.249960350720    12.000000000000
         C            1.277953663083     7.772873971185    -0.252070851177    12.000000000000
         C            2.485353921992     7.087711413228    -0.254345339082    12.000000000000
         C            2.486124522185     5.654785338231    -0.261283088070    12.000000000000
         C            1.254078756912     4.956092641655    -0.249655146482    12.000000000000
         C            3.751710428674     7.763926678971    -0.254218487702    12.000000000000
         C            4.923561893453     7.078795304981    -0.256274968410    12.000000000000
         C            4.955603108594     5.643461991360    -0.256435381217    12.000000000000
         C            3.706797371473     4.941224736324    -0.251343821047    12.000000000000
         H           -3.658525300490     8.890841947126    -0.251257529985     1.007825032230
         H           -1.189217492488     8.874135615351    -0.247304118992     1.007825032230
         H            1.284290076155     8.860847963479    -0.247912027036     1.007825032230
         H            3.753537924068     8.851049806963    -0.252695963386     1.007825032230
         H            5.869954540475     7.613809362646    -0.257200335452     1.007825032230
         H           -5.788235870234     7.676316740925    -0.256868940524     1.007825032230
         C           -6.091978121428     4.993274541634    -0.257754244757    12.000000000000
         C           -6.128665643049     3.582594696789    -0.256553067728    12.000000000000
         C           -3.664583902777     3.564196707735    -0.259478162346    12.000000000000
         C           -4.894302367430     2.861095303891    -0.250309177360    12.000000000000
         C           -2.437339157630     2.847626185075    -0.247646383809    12.000000000000
         C           -1.209232020328     3.547901462969    -0.261325410601    12.000000000000
         C            1.247137409430     3.534695279420    -0.262134017006    12.000000000000
         C            0.015171876837     2.833126367296    -0.250449833782    12.000000000000
         C            2.467641009709     2.821304505246    -0.250349775658    12.000000000000
         C            3.702545311848     3.524674682415    -0.263837736501    12.000000000000
         C            6.144976223652     4.927586894122    -0.257668826429    12.000000000000
         C            6.166584196130     3.516599003933    -0.255502272992    12.000000000000
         C            4.924605795728     2.808422453345    -0.248963526755    12.000000000000
         H            7.089901346909     5.466902294214    -0.261430707278     1.007825032230
         H           -7.031045913833     5.542702480848    -0.261987459708     1.007825032230
         C           -7.339702203855     2.858426062570    -0.258180235170    12.000000000000
         C           -7.364886120791     1.470337899574    -0.256414697042    12.000000000000
         C           -4.903508771679     1.444441340151    -0.261130961234    12.000000000000
         C           -6.132261315343     0.739953885044    -0.248840917251    12.000000000000
         C           -3.676878963248     0.726711670664    -0.250503244834    12.000000000000
         C           -2.445660748797     1.429655661253    -0.260812955035    12.000000000000
         C           -1.223604844033     0.715339029625    -0.249383690504    12.000000000000
         C            0.007633706582     1.417397677228    -0.250918036786    12.000000000000
         C            1.231215645015     0.702131218578    -0.269744622443    12.000000000000
         C            2.460816937799     1.403306564116    -0.250240113552    12.000000000000
         C            3.684426091464     0.687212956203    -0.251068899829    12.000000000000
         C            4.918704738807     1.391749089180    -0.263470721464    12.000000000000
         C            7.369797915229     2.779496731175    -0.257262692784    12.000000000000
         C            7.380158503390     1.391232035846    -0.255716009939    12.000000000000
         C            6.139795376391     0.674133151191    -0.249387668127    12.000000000000
         H           -8.279194962078     3.407132569115    -0.262477787291     1.007825032230
         H            8.315109308748     3.318132624614    -0.261473268584     1.007825032230
         C           -8.591760100313     0.724847081035    -0.256074269425    12.000000000000
         C           -8.599028766435    -0.632625278238    -0.253951144842    12.000000000000
         C           -6.139817301850    -0.674122109163    -0.260940486177    12.000000000000
         C           -7.380188274869    -1.391251661591    -0.253524424636    12.000000000000
         C           -4.918688642988    -1.391740490039    -0.248599988027    12.000000000000
         C           -3.684442458416    -0.687222787745    -0.259632228092    12.000000000000
         C           -2.460821202979    -1.403330650834    -0.249089141902    12.000000000000
         C           -1.231166175052    -0.702159336890    -0.261209520694    12.000000000000
         C           -0.007573788119    -1.417404321420    -0.253752996391    12.000000000000
         C            1.223643553157    -0.715260849273    -0.243747374442    12.000000000000
         C            2.445666486600    -1.429628761016    -0.255497387202    12.000000000000
         C            3.676862540115    -0.726692903565    -0.259637971597    12.000000000000
         C            6.132244683688    -0.739964311859    -0.261165945809    12.000000000000
         C            4.903514982772    -1.444442992550    -0.247324871269    12.000000000000
         C            8.599010685959     0.632618394658    -0.255853893795    12.000000000000
         C            8.591741325369    -0.724836339203    -0.254117513533    12.000000000000
         C            7.364858601658    -1.470318137615    -0.254347690226    12.000000000000
         H           -9.528310134550     1.276861977183    -0.257544196389     1.007825032230
         H            9.541406811874     1.174587016435    -0.256905926056     1.007825032230
         C           -7.369842072500    -2.779530617943    -0.251716216214    12.000000000000
         C           -4.924603271782    -2.808422729350    -0.259447848650    12.000000000000
         C           -6.166626658399    -3.516637664835    -0.253146008491    12.000000000000
         C           -3.702514522437    -3.524667021130    -0.249123779464    12.000000000000
         C           -2.467651147846    -2.821311434813    -0.261168417821    12.000000000000
         C           -0.015137636839    -2.833127117409    -0.260886829312    12.000000000000
         C           -1.247126003958    -3.534717647572    -0.249322875903    12.000000000000
         C            1.209240906912    -3.547900150653    -0.246783846112    12.000000000000
         C            2.437331859423    -2.847627210185    -0.260923604423    12.000000000000
         C            4.894298181039    -2.861108440295    -0.260102864352    12.000000000000
         C            3.664611092309    -3.564205317541    -0.247223444411    12.000000000000
         C            6.128634852014    -3.582569529727    -0.253877602454    12.000000000000
         C            7.339668501964    -2.858398779380    -0.252362376372    12.000000000000
         H           -9.541453273991    -1.174548938674    -0.252581728669     1.007825032230
         H            9.528257705340    -1.276904545914    -0.252867705772     1.007825032230
         H           -8.315169206580    -3.318135325222    -0.247543987683     1.007825032230
         H            8.279150979760    -3.407126261903    -0.248022820389     1.007825032230
         C           -6.144998351434    -4.927632744793    -0.251820010431    12.000000000000
         C           -3.706787510729    -4.941247186127    -0.261640978519    12.000000000000
         C           -4.955594220733    -5.643479445504    -0.253673843874    12.000000000000
         C           -2.486125488958    -5.654771046419    -0.248701307474    12.000000000000
         C           -1.254062498212    -4.956107522011    -0.259876913460    12.000000000000
         C            1.201008411136    -4.969265860202    -0.258695789202    12.000000000000
         C           -0.030340837145    -5.669505775148    -0.250852589538    12.000000000000
         C            3.653745938597    -4.980729247424    -0.257937789454    12.000000000000
         C            2.425488533144    -5.681160107537    -0.248560858902    12.000000000000
         C            6.091961455079    -4.993243435396    -0.251583375780    12.000000000000
         C            4.894972281879    -5.696333892967    -0.252819571610    12.000000000000
         H           -7.089896550772    -5.466985314248    -0.247417248749     1.007825032230
         H            7.031051046468    -5.542644008342    -0.248003596017     1.007825032230
         C           -4.923549484930    -7.078806571687    -0.254228612779    12.000000000000
         C           -2.485346250970    -7.087713549939    -0.256738505215    12.000000000000
         C           -3.751690054511    -7.763932629646    -0.256543826289    12.000000000000
         C           -0.037953119720    -7.099450346479    -0.256522780067    12.000000000000
         C           -1.277960263133    -7.772889856676    -0.258507472829    12.000000000000
         C            2.409440157995    -7.114007484012    -0.255659579256    12.000000000000
         C            1.194745774421    -7.786170837572    -0.257811870138    12.000000000000
         C            4.847616889766    -7.131247582589    -0.253152764597    12.000000000000
         C            3.668467443144    -7.803773464953    -0.255501198960    12.000000000000
         H           -5.869944513148    -7.613816070051    -0.252684575913     1.007825032230
         H            5.788245462656    -7.676317661324    -0.252025645115     1.007825032230
         H           -3.753531102181    -8.851057041246    -0.258379740718     1.007825032230
         H           -1.284308568626    -8.860860864507    -0.262934856687     1.007825032230
         H            1.189217411964    -8.874146092599    -0.261904506828     1.007825032230
         H            3.658542452092    -8.890846106063    -0.257155740383     1.007825032230

  Charge       = 0
  Multiplicity = 1
  Basis Set: JUN-CC-PVDZ
    Blend: JUN-CC-PVDZ
  Basis Set: (JUN-CC-PVDZ AUX)
    Blend: JUN-CC-PVDZ-JKFIT

    Orbital Energies [Eh]
    ---------------------

    Doubly Occupied:

       1A    -11.264112     2A    -11.263760     3A    -11.263757
       4A    -11.263349     5A    -11.263347     6A    -11.263306
       7A    -11.263160     8A    -11.263146     9A    -11.263138
      10A    -11.262908    11A    -11.262785    12A    -11.262780
      13A    -11.262287    14A    -11.262284    15A    -11.262248
      16A    -11.262244    17A    -11.262133    18A    -11.262126
      19A    -11.262085    20A    -11.262040    21A    -11.262036
      22A    -11.261928    23A    -11.261922    24A    -11.261769
      25A    -11.261759    26A    -11.261740    27A    -11.261733
      28A    -11.261691    29A    -11.261682    30A    -11.261582
      31A    -11.261571    32A    -11.261563    33A    -11.261560
      34A    -11.261538    35A    -11.261536    36A    -11.261520
      37A    -11.261337    38A    -11.261328    39A    -11.261322
      40A    -11.261316    41A    -11.261309    42A    -11.261306
      43A    -11.261293    44A    -11.261277    45A    -11.261273
      46A    -11.261247    47A    -11.261243    48A    -11.261236
      49A    -11.261069    50A    -11.261044    51A    -11.261037
      52A    -11.260972    53A    -11.260968    54A    -11.260914
      55A    -11.259916    56A    -11.259903    57A    -11.259900
      58A    -11.259871    59A    -11.259869    60A    -11.259853
      61A    -11.259287    62A    -11.259261    63A    -11.259259
      64A    -11.259205    65A    -11.259204    66A    -11.259174
      67A    -11.258919    68A    -11.258901    69A    -11.258898
      70A    -11.258870    71A    -11.258868    72A    -11.258856
      73A    -11.254529    74A    -11.254529    75A    -11.254524
      76A    -11.254522    77A    -11.254521    78A    -11.254519
      79A    -11.253657    80A    -11.253657    81A    -11.253652
      82A    -11.253649    83A    -11.253647    84A    -11.253646
      85A    -11.253573    86A    -11.253572    87A    -11.253568
      88A    -11.253564    89A    -11.253563    90A    -11.253562
      91A    -11.253057    92A    -11.253056    93A    -11.253052
      94A    -11.253050    95A    -11.253049    96A    -11.253047
      97A     -1.253923    98A     -1.238988    99A     -1.238986
     100A     -1.220460   101A     -1.220454   102A     -1.215420
     103A     -1.201038   104A     -1.195606   105A     -1.188126
     106A     -1.188122   107A     -1.173765   108A     -1.173762
     109A     -1.155615   110A     -1.155613   111A     -1.152695
     112A     -1.144725   113A     -1.144722   114A     -1.128557
     115A     -1.114703   116A     -1.113164   117A     -1.112465
     118A     -1.112449   119A     -1.111621   120A     -1.088419
     121A     -1.088405   122A     -1.076962   123A     -1.076961
     124A     -1.067605   125A     -1.067577   126A     -1.064955
     127A     -1.046796   128A     -1.046788   129A     -1.040472
     130A     -1.038736   131A     -1.038735   132A     -1.025230
     133A     -1.021364   134A     -1.021312   135A     -1.007179
     136A     -1.006805   137A     -1.003792   138A     -1.000477
     139A     -1.000429   140A     -0.991076   141A     -0.970981
     142A     -0.970932   143A     -0.955880   144A     -0.955825
     145A     -0.905572   146A     -0.905551   147A     -0.905529
     148A     -0.905511   149A     -0.904307   150A     -0.892349
     151A     -0.892290   152A     -0.890350   153A     -0.890292
     154A     -0.889446   155A     -0.872216   156A     -0.869058
     157A     -0.851538   158A     -0.847853   159A     -0.847832
     160A     -0.845583   161A     -0.843007   162A     -0.834560
     163A     -0.834547   164A     -0.828115   165A     -0.828111
     166A     -0.784542   167A     -0.784531   168A     -0.783649
     169A     -0.783622   170A     -0.782278   171A     -0.782257
     172A     -0.782018   173A     -0.766987   174A     -0.760773
     175A     -0.750555   176A     -0.733483   177A     -0.727064
     178A     -0.727050   179A     -0.725074   180A     -0.724536
     181A     -0.724517   182A     -0.718468   183A     -0.713756
     184A     -0.713749   185A     -0.699567   186A     -0.699554
     187A     -0.686098   188A     -0.685953   189A     -0.685950
     190A     -0.682169   191A     -0.682159   192A     -0.678757
     193A     -0.653614   194A     -0.650861   195A     -0.650831
     196A     -0.649793   197A     -0.649777   198A     -0.649562
     199A     -0.640906   200A     -0.640878   201A     -0.640084
     202A     -0.639160   203A     -0.636003   204A     -0.635977
     205A     -0.629132   206A     -0.617730   207A     -0.615300
     208A     -0.615279   209A     -0.608795   210A     -0.608788
     211A     -0.599121   212A     -0.599083   213A     -0.598729
     214A     -0.598593   215A     -0.598570   216A     -0.598012
     217A     -0.595062   218A     -0.595050   219A     -0.594712
     220A     -0.594211   221A     -0.591938   222A     -0.591936
     223A     -0.587365   224A     -0.577793   225A     -0.577784
     226A     -0.575668   227A     -0.575665   228A     -0.573374
     229A     -0.569576   230A     -0.568119   231A     -0.568095
     232A     -0.566740   233A     -0.566729   234A     -0.560910
     235A     -0.558698   236A     -0.558679   237A     -0.558424
     238A     -0.554356   239A     -0.550543   240A     -0.547472
     241A     -0.544256   242A     -0.535029   243A     -0.534992
     244A     -0.533526   245A     -0.533504   246A     -0.528070
     247A     -0.528054   248A     -0.527764   249A     -0.517140
     250A     -0.517106   251A     -0.515343   252A     -0.515337
     253A     -0.509635   254A     -0.509619   255A     -0.498018
     256A     -0.496438   257A     -0.496411   258A     -0.493803
     259A     -0.493789   260A     -0.489432   261A     -0.481444
     262A     -0.477409   263A     -0.477405   264A     -0.473984
     265A     -0.469424   266A     -0.466511   267A     -0.466506
     268A     -0.458790   269A     -0.446658   270A     -0.446597
     271A     -0.441030   272A     -0.440760   273A     -0.440737
     274A     -0.434675   275A     -0.433902   276A     -0.407362
     277A     -0.407339   278A     -0.386390   279A     -0.386342
     280A     -0.385721   281A     -0.385720   282A     -0.383728
     283A     -0.354299   284A     -0.354282   285A     -0.350643
     286A     -0.338104   287A     -0.335580   288A     -0.335506
     289A     -0.332701   290A     -0.332694   291A     -0.307031
     292A     -0.301925   293A     -0.301863   294A     -0.300840
     295A     -0.286163   296A     -0.256464   297A     -0.253475
     298A     -0.253421   299A     -0.204253   300A     -0.204164

  @DF-RHF Final Energy: -3650.34020390217756

   => Energetics <=

    Nuclear Repulsion Energy =          15611.4211649754324753
    One-Electron Energy =              -36072.1497877246074495
    Two-Electron Energy =               16810.3884188469965011
    Total Energy =                      -3650.3402039021784731
 Dipole X            :         -0.0000966            0.0002304            0.0001339
 Dipole Y            :          0.0013120           -0.0013052            0.0000067
 Dipole Z            :        288.9462838         -288.9461937            0.0000901
 Magnitude           :                                                    0.0001615

    SAPT Results
  --------------------------------------------------------------------------------------------------------
    Electrostatics                 10.30498611 [mEh]       6.46647641 [kcal/mol]      27.05573731 [kJ/mol]
      Elst10,r                     10.30498611 [mEh]       6.46647641 [kcal/mol]      27.05573731 [kJ/mol]

    Exchange                        6.35029879 [mEh]       3.98487265 [kcal/mol]      16.67270718 [kJ/mol]
      Exch10                        6.35029879 [mEh]       3.98487265 [kcal/mol]      16.67270718 [kJ/mol]
      Exch10(S^2)                   6.34756759 [mEh]       3.98315880 [kcal/mol]      16.66553641 [kJ/mol]

    Induction                     -17.43434467 [mEh]     -10.94021645 [kcal/mol]     -45.77386563 [kJ/mol]
      Ind20,r                     -18.75056497 [mEh]     -11.76615715 [kcal/mol]     -49.22960153 [kJ/mol]
      Exch-Ind20,r                  1.80725670 [mEh]       1.13407070 [kcal/mol]       4.74495182 [kJ/mol]
      delta HF,r (2)               -0.49103641 [mEh]      -0.30813000 [kcal/mol]      -1.28921592 [kJ/mol]

    Dispersion                     -9.43702235 [mEh]      -5.92182093 [kcal/mol]     -24.77689877 [kJ/mol]
      Disp20                      -10.42460569 [mEh]      -6.54153883 [kcal/mol]     -27.36979847 [kJ/mol]
      Exch-Disp20                   0.98758334 [mEh]       0.61971790 [kcal/mol]       2.59289971 [kJ/mol]
      Disp20 (SS)                  -5.21230285 [mEh]      -3.27076942 [kcal/mol]     -13.68489924 [kJ/mol]
      Disp20 (OS)                  -5.21230285 [mEh]      -3.27076942 [kcal/mol]     -13.68489924 [kJ/mol]
      Exch-Disp20 (SS)              0.59390059 [mEh]       0.37267825 [kcal/mol]       1.55928578 [kJ/mol]
      Exch-Disp20 (OS)              0.39368275 [mEh]       0.24703966 [kcal/mol]       1.03361393 [kJ/mol]

  Total HF                         -0.77905977 [mEh]      -0.48886739 [kcal/mol]      -2.04542114 [kJ/mol]
  Total SAPT0                     -10.21608212 [mEh]      -6.41068831 [kcal/mol]     -26.82231990 [kJ/mol]

  Special recipe for scaled SAPT0 (see Manual):
    Electrostatics sSAPT0          10.30498611 [mEh]       6.46647641 [kcal/mol]      27.05573731 [kJ/mol]
    Exchange sSAPT0                 6.35029879 [mEh]       3.98487265 [kcal/mol]      16.67270718 [kJ/mol]
    Induction sSAPT0              -17.43201081 [mEh]     -10.93875193 [kcal/mol]     -45.76773809 [kJ/mol]
    Dispersion sSAPT0              -9.43574700 [mEh]      -5.92102064 [kcal/mol]     -24.77355034 [kJ/mol]
  Total sSAPT0                    -10.21247291 [mEh]      -6.40842350 [kcal/mol]     -26.81284393 [kJ/mol]
  --------------------------------------------------------------------------------------------------------

*** Psi4 exiting successfully. Buy a developer a beer!
