                               Psi4 1.9 release

  ==> Input File <==

--------------------------------------------------------------------------
memory 32 GB # how much memory is available ! Depends on the nodes/cores !

molecule dimer {
# monomer A
+1 1    # Charge and multiplicity
C  0.680067 -0.008042 -4.615929
C -0.680504 -0.006014 -4.615545
N -1.085635 -0.005016 -3.297221
C  0.000108 -0.001740 -2.515820
C -2.477365  0.044390 -2.829242
N  1.085222 -0.005016 -3.297221
H  1.385146 -0.015870 -5.433368
H -1.385302 -0.006204 -5.433214
H -0.000009  0.000007 -1.434731
C  2.478117 -0.021908 -2.832123
H  2.490592  0.005437 -1.741870
H  2.967028 -0.935354 -3.179299
H  3.001428  0.853575 -3.223595
H -2.857359  1.066461 -2.909201
H -3.082679 -0.625694 -3.442306
H -2.518128 -0.282594 -1.789294
--
# monomer B
0 1     # Charge and multiplicity
C   1.22531237526482      0.70753866091955      0.00613762728373
C   1.22532433589282     -0.70753852257020     -0.00619318228664
C   -0.00000567409046      1.41496628609039     -0.00672680580738
C   2.45644923379077      1.41832825917820      0.00902448468363
C   0.00001130712078     -1.41497612663474      0.00347275151708
C   -1.22530046906674      0.70754574598412      0.00838914760619
C   2.45643823516184     -1.41832293188077     -0.00843833914343
C   -0.00000085313587      2.83680140328112     -0.00913035594137
C   3.68182717731192      0.70931832800114     -0.00808954934571
C   2.45512052870677      2.83422403348893     -0.00819210630633
C   3.68182158506039     -0.70933346742900      0.00798293467272
C   -1.22531311884624     -0.70752714354401     -0.00512042085974
C   1.22670006104402      3.54346985599427      0.00816696660346
C   0.00000526469929     -2.83678176723568      0.00832091913869
C   -2.45643555300670      1.41831729028492      0.00842454345199
C   2.45512389762097     -2.83422965658853      0.00783102630520
C   -1.22671388474763      3.54346943575023      0.00827029982280
C   4.91451777504333      1.42717324448953     -0.00160886631602
C   3.69315067131765      3.54279566454522     -0.00155906667985
C   -2.45643712022637     -1.41831290883911     -0.00846337726810
C   1.22670532178455     -3.54347386990643     -0.00780316414624
C   -2.45512491866593      2.83421703463423     -0.00818572995999
C   4.91452486062398     -1.42718653794377      0.00136387641845
C   1.22142509354026      4.97013443726031      0.00150231067809
C   4.89300870916237      2.82518837202648     -0.00039219795739
C   -1.22669652864725     -3.54347062507680     -0.00753595973677
C   -3.68181849668397      0.70932533873199     -0.00807686886569
C   3.69314758099218     -3.54280096939050      0.00148176697923
C   -1.22143177215231      4.97012866986289      0.00168580605083
C   6.13477145276790      0.68054831910577     -0.00083909176631
C   3.65678936045204      4.97295361556775     -0.00065042889723
C   -2.45512642789169     -2.83421472106065      0.00758666850712
C   -3.68181869921921     -0.70932533146830      0.00810055625144
C   4.89301309775526     -2.82519973363176      0.00021895393805
C   -0.00000059327114      5.65044773803267      0.00045449734393
C   6.13477559217374     -0.68055448207492      0.00042622874941
C   2.47813196269732      5.65357712333155      0.00063835075260
C   1.22142288457925     -4.97012668293268     -0.00129718634452
C   -3.69316190412301      3.54279732619245     -0.00139355922051
C   -1.22142804110313     -4.97011793159564     -0.00140994817719
C   -4.91452132810043      1.42717581899491     -0.00153192130862
C   3.65678749952045     -4.97295485423912      0.00080007163680
C   -2.47813805026426      5.65357479452875      0.00092287576113
C   -3.69314125872231     -3.54278984697859      0.00136564082345
C   -4.91451200321153     -1.42718062802730      0.00139857359209
C   -0.00000552908399     -5.65043791501335      0.00005899322272
C   -4.89302000425900      2.82518897091939     -0.00040227981744
C   2.47812647313991     -5.65357317188818     -0.00029052915548
C   -3.65679823041642      4.97295655404175     -0.00047374852278
C   -4.89299899901461     -2.82519139505969      0.00006491824035
C   -2.47812801824129     -5.65356579800621     -0.00056571680280
C   -6.13477002348955      0.68054913825639     -0.00086464346868
C   -3.65678835334731     -4.97294365097028      0.00058578382008
C   -6.13476456307132     -0.68055354348201      0.00040575295444
H   5.83528897565761      3.36927626695423      0.00396712770529
H   7.07385965258860      1.22821762089947     -0.00037744837300
H   4.60066374401555      5.51238117445323     -0.00014522814529
H   5.83528386714679     -3.36930568472863     -0.00423551337640
H   -0.00001167146422      6.73853104613662     -0.00389474766392
H   7.07386165167227     -1.22822657074368     -0.00008250934481
H   2.47331421164041      6.74068466339473      0.00017162982210
H   4.60066897122302     -5.51237575717576      0.00039007446835
H   -2.47331820069565      6.74068209160650      0.00047297644710
H   -0.00000978838621     -6.73852780445195      0.00458867820736
H   -5.83530143450167      3.36927132229595      0.00410314985360
H   2.47330840367253     -6.74068500242887      0.00027980126949
H   -4.60067436136587      5.51237839860371      0.00002010017831
H   -5.83527902699321     -3.36928859177951     -0.00451481925734
H   -2.47329986759855     -6.74067870613986     -0.00016951527498
H   -7.07385728692578      1.22822084484047     -0.00046143985387
H   -4.60067330624313     -5.51236229778631      0.00021776644566
H   -7.07385645456741     -1.22822025997701     -0.00017736581114

    units angstrom      # Angstroms are the default
    no_reorient         # Geometry fixed, default
    symmetry c1         # C1 symmetry, default
}

set {
    scf_type DF         # Density fitting, faster than exact integrals
    freeze_core True    # Freeze core electrons
    basis jun-cc-pVDZ   # Jun-cc-pVDZ basis set, recommended for sSAPT0 in https://doi.org/10.1063/1.4867135
}

energy('ssapt0')        # Compute sSAPT0 energy, includes also SAPT0
--------------------------------------------------------------------------

  //              Dimer HF             //
    Molecular point group: c1
  Charge       = 1
  Multiplicity = 1
  Basis Set: JUN-CC-PVDZ
    Blend: JUN-CC-PVDZ
  Basis Set: (JUN-CC-PVDZ AUX)
    Blend: JUN-CC-PVDZ-JKFIT
  @DF-RHF Final Energy: -2359.13085778607865
    Total Energy =                      -2359.1308577860781952
 Dipole X            :         -0.0037885            0.0006313           -0.0031572
 Dipole Y            :         -0.0638243            0.0560211           -0.0078032
 Dipole Z            :         12.7311162          -15.8363328           -3.1052166
 Magnitude           :                                                    3.1052281
  //            Monomer A HF           //
    Molecular point group: c1
  Multiplicity = 1
  Basis Set: JUN-CC-PVDZ
    Blend: JUN-CC-PVDZ
  Basis Set: (JUN-CC-PVDZ AUX)
    Blend: JUN-CC-PVDZ-JKFIT
  @DF-RHF Final Energy:  -303.29911116842260
    Total Energy =                       -303.2991111684225984
  //            Monomer B HF           //
    Molecular point group: c1

    Geometry (in Angstrom), charge = 0, multiplicity = 1:

       Center              X                  Y                   Z               Mass
    ------------   -----------------  -----------------  -----------------  -----------------
      Gh(C)           0.680066520158    -0.008042372515    -4.183472131283    12.000000000000
      Gh(C)          -0.680504479842    -0.006014372515    -4.183088131283    12.000000000000
      Gh(N)          -1.085635479842    -0.005016372515    -2.864764131283    14.003074004430
      Gh(C)           0.000107520158    -0.001740372515    -2.083363131283    12.000000000000
      Gh(C)          -2.477365479842     0.044389627485    -2.396785131283    12.000000000000
      Gh(N)           1.085221520158    -0.005016372515    -2.864764131283    14.003074004430
      Gh(H)           1.385145520158    -0.015870372515    -5.000911131283     1.007825032230
      Gh(H)          -1.385302479842    -0.006204372515    -5.000757131283     1.007825032230
      Gh(H)          -0.000009479842     0.000006627485    -1.002274131283     1.007825032230
      Gh(C)           2.478116520158    -0.021908372515    -2.399666131283    12.000000000000
      Gh(H)           2.490591520158     0.005436627485    -1.309413131283     1.007825032230
      Gh(H)           2.967027520158    -0.935354372515    -2.746842131283     1.007825032230
      Gh(H)           3.001427520158     0.853574627485    -2.791138131283     1.007825032230
      Gh(H)          -2.857359479842     1.066460627485    -2.476744131283     1.007825032230
      Gh(H)          -3.082679479842    -0.625694372515    -3.009849131283     1.007825032230
      Gh(H)          -2.518128479842    -0.282594372515    -1.356837131283     1.007825032230
         C            1.225311895423     0.707538288405     0.438594496001    12.000000000000
         C            1.225323856051    -0.707538895085     0.426263686430    12.000000000000
         C           -0.000006153932     1.414965913575     0.425730062909    12.000000000000
         C            2.456448753949     1.418327886663     0.441481353400    12.000000000000
         C            0.000010827279    -1.414976499150     0.435929620234    12.000000000000
         C           -1.225300948908     0.707545373469     0.440846016323    12.000000000000
         C            2.456437755320    -1.418323304396     0.424018529573    12.000000000000
         C           -0.000001332978     2.836801030766     0.423326512775    12.000000000000
         C            3.681826697470     0.709317955486     0.424367319371    12.000000000000
         C            2.455120048865     2.834223660974     0.424264762411    12.000000000000
         C            3.681821105219    -0.709333839944     0.440439803390    12.000000000000
         C           -1.225313598688    -0.707527516059     0.427336447857    12.000000000000
         C            1.226699581202     3.543469483479     0.440623835320    12.000000000000
         C            0.000004784858    -2.836782139751     0.440777787856    12.000000000000
         C           -2.456436032848     1.418316917770     0.440881412169    12.000000000000
         C            2.455123417779    -2.834230029103     0.440287895022    12.000000000000
         C           -1.226714364589     3.543469063235     0.440727168540    12.000000000000
         C            4.914517295202     1.427172871975     0.430848002401    12.000000000000
         C            3.693150191476     3.542795292030     0.430897802037    12.000000000000
         C           -2.456437600068    -1.418313281354     0.423993491449    12.000000000000
         C            1.226704841943    -3.543474242421     0.424653704571    12.000000000000
         C           -2.455125398508     2.834216662119     0.424271138757    12.000000000000
         C            4.914524380782    -1.427186910459     0.433820745135    12.000000000000
         C            1.221424613699     4.970134064745     0.433959179395    12.000000000000
         C            4.893008229321     2.825187999512     0.432064670759    12.000000000000
         C           -1.226697008489    -3.543470997592     0.424920908980    12.000000000000
         C           -3.681818976526     0.709324966217     0.424379999851    12.000000000000
         C            3.693147101150    -3.542801341905     0.433938635696    12.000000000000
         C           -1.221432251994     4.970128297348     0.434142674768    12.000000000000
         C            6.134770972926     0.680547946591     0.431617776951    12.000000000000
         C            3.656788880610     4.972953243053     0.431806439820    12.000000000000
         C           -2.455126907733    -2.834215093576     0.440043537224    12.000000000000
         C           -3.681819179061    -0.709325703983     0.440557424968    12.000000000000
         C            4.893012617914    -2.825200106147     0.432675822655    12.000000000000
         C           -0.000001073113     5.650447365518     0.432911366061    12.000000000000
         C            6.134775112332    -0.680554854590     0.432883097466    12.000000000000
         C            2.478131482856     5.653576750817     0.433095219469    12.000000000000
         C            1.221422404738    -4.970127055448     0.431159682372    12.000000000000
         C           -3.693162383965     3.542796953677     0.431063309496    12.000000000000
         C           -1.221428520945    -4.970118304111     0.431046920540    12.000000000000
         C           -4.914521807942     1.427175446480     0.430924947408    12.000000000000
         C            3.656787019679    -4.972955226754     0.433256940354    12.000000000000
         C           -2.478138530106     5.653574422014     0.433379744478    12.000000000000
         C           -3.693141738564    -3.542790219494     0.433822509540    12.000000000000
         C           -4.914512483053    -1.427181000542     0.433855442309    12.000000000000
         C           -0.000006008926    -5.650438287528     0.432515861940    12.000000000000
         C           -4.893020484101     2.825188598404     0.432054588899    12.000000000000
         C            2.478125993298    -5.653573544403     0.432166339561    12.000000000000
         C           -3.656798710258     4.972956181527     0.431983120194    12.000000000000
         C           -4.892999478856    -2.825191767575     0.432521786957    12.000000000000
         C           -2.478128498083    -5.653566170521     0.431891151914    12.000000000000
         C           -6.134770503331     0.680548765741     0.431592225248    12.000000000000
         C           -3.656788833189    -4.972944023485     0.433042652537    12.000000000000
         C           -6.134765042913    -0.680553915997     0.432862621671    12.000000000000
         H            5.835288495816     3.369275894439     0.436423996422     1.007825032230
         H            7.073859172747     1.228217248385     0.432079420344     1.007825032230
         H            4.600663264174     5.512380801938     0.432311640572     1.007825032230
         H            5.835283387305    -3.369306057244     0.428221355340     1.007825032230
         H           -0.000012151306     6.738530673622     0.428562121053     1.007825032230
         H            7.073861171831    -1.228226943259     0.432374359372     1.007825032230
         H            2.473313731799     6.740684290880     0.432628498539     1.007825032230
         H            4.600668491381    -5.512376129691     0.432846943185     1.007825032230
         H           -2.473318680537     6.740681719092     0.432929845164     1.007825032230
         H           -0.000010268228    -6.738528176967     0.437045546924     1.007825032230
         H           -5.835301914343     3.369270949781     0.436560018570     1.007825032230
         H            2.473307923831    -6.740685374944     0.432736669986     1.007825032230
         H           -4.600674841208     5.512378026089     0.432476968895     1.007825032230
         H           -5.835279506835    -3.369288964294     0.427942049459     1.007825032230
         H           -2.473300347440    -6.740679078655     0.432287353442     1.007825032230
         H           -7.073857766768     1.228220472326     0.431995428863     1.007825032230
         H           -4.600673786085    -5.512362670301     0.432674635162     1.007825032230
         H           -7.073856934409    -1.228220632492     0.432279502906     1.007825032230

  Charge       = 0
  Multiplicity = 1
  Basis Set: JUN-CC-PVDZ
    Blend: JUN-CC-PVDZ
  Basis Set: (JUN-CC-PVDZ AUX)
    Blend: JUN-CC-PVDZ-JKFIT

    Orbital Energies [Eh]
    ---------------------

    Doubly Occupied:

       1A    -11.260532     2A    -11.260139     3A    -11.260024
       4A    -11.259407     5A    -11.259304     6A    -11.259179
       7A    -11.258956     8A    -11.258919     9A    -11.258827
      10A    -11.258540    11A    -11.258512    12A    -11.258427
      13A    -11.258366    14A    -11.258362    15A    -11.258354
      16A    -11.258334    17A    -11.258308    18A    -11.258298
      19A    -11.258293    20A    -11.258281    21A    -11.258273
      22A    -11.258234    23A    -11.258184    24A    -11.257950
      25A    -11.257254    26A    -11.257226    27A    -11.257139
      28A    -11.257069    29A    -11.257003    30A    -11.256946
      31A    -11.256364    32A    -11.256331    33A    -11.256224
      34A    -11.256176    35A    -11.256116    36A    -11.256082
      37A    -11.252181    38A    -11.252177    39A    -11.252170
      40A    -11.252158    41A    -11.252120    42A    -11.252119
      43A    -11.251267    44A    -11.251256    45A    -11.251250
      46A    -11.251235    47A    -11.251229    48A    -11.251210
      49A    -11.250742    50A    -11.250738    51A    -11.250731
      52A    -11.250719    53A    -11.250681    54A    -11.250680
      55A     -1.243798    56A     -1.219604    57A     -1.219557
      58A     -1.189337    59A     -1.189309    60A     -1.180684
      61A     -1.157360    62A     -1.148771    63A     -1.135266
      64A     -1.135221    65A     -1.112997    66A     -1.112989
      67A     -1.082207    68A     -1.082189    69A     -1.078353
      70A     -1.065794    71A     -1.065781    72A     -1.039186
      73A     -1.024026    74A     -1.021510    75A     -1.021433
      76A     -1.017532    77A     -1.012616    78A     -0.986804
      79A     -0.986724    80A     -0.961682    81A     -0.961618
      82A     -0.894072    83A     -0.894064    84A     -0.887658
      85A     -0.885907    86A     -0.885881    87A     -0.881140
      88A     -0.881101    89A     -0.861695    90A     -0.837233
      91A     -0.817986    92A     -0.816362    93A     -0.811885
      94A     -0.811877    95A     -0.794490    96A     -0.794475
      97A     -0.746362    98A     -0.744617    99A     -0.733172
     100A     -0.733139   101A     -0.731967   102A     -0.731956
     103A     -0.716260   104A     -0.698782   105A     -0.698723
     106A     -0.693379   107A     -0.693303   108A     -0.661028
     109A     -0.652861   110A     -0.650899   111A     -0.650059
     112A     -0.650039   113A     -0.639167   114A     -0.639124
     115A     -0.629474   116A     -0.627272   117A     -0.627270
     118A     -0.606415   119A     -0.605652   120A     -0.601407
     121A     -0.599550   122A     -0.599445   123A     -0.593394
     124A     -0.590960   125A     -0.590902   126A     -0.585105
     127A     -0.576418   128A     -0.576299   129A     -0.567142
     130A     -0.567104   131A     -0.565706   132A     -0.565700
     133A     -0.558467   134A     -0.554653   135A     -0.554613
     136A     -0.538393   137A     -0.538383   138A     -0.538151
     139A     -0.538121   140A     -0.529497   141A     -0.528104
     142A     -0.522678   143A     -0.522614   144A     -0.500302
     145A     -0.495541   146A     -0.493024   147A     -0.487746
     148A     -0.484827   149A     -0.481524   150A     -0.481509
     151A     -0.470249   152A     -0.470209   153A     -0.450729
     154A     -0.450679   155A     -0.438963   156A     -0.438956
     157A     -0.404622   158A     -0.404601   159A     -0.403263
     160A     -0.375306   161A     -0.375301   162A     -0.349005
     163A     -0.337465   164A     -0.336367   165A     -0.336348
     166A     -0.310949   167A     -0.298019   168A     -0.284191
     169A     -0.284125   170A     -0.224748   171A     -0.224690

  @DF-RHF Final Energy: -2055.89632351451337

   => Energetics <=

    Nuclear Repulsion Energy =           6452.5568002797781446
    One-Electron Energy =              -15636.5466841218039917
    Two-Electron Energy =                7128.0935603275138419
    Total Energy =                      -2055.8963235145129147
 Dipole X            :          0.0000883           -0.0000085            0.0000798
 Dipole Y            :          0.0006782            0.0000167            0.0006948
 Dipole Z            :       -279.4912096          279.4895217           -0.0016879
 Magnitude           :                                                    0.0018271

    SAPT Results
  --------------------------------------------------------------------------------------------------------
    Electrostatics                -58.88703102 [mEh]     -36.95216985 [kcal/mol]    -154.60787866 [kJ/mol]
      Elst10,r                    -58.88703102 [mEh]     -36.95216985 [kcal/mol]    -154.60787866 [kJ/mol]

    Exchange                      169.25275185 [mEh]     106.20770525 [kcal/mol]     444.37303875 [kJ/mol]
      Exch10                      169.25275185 [mEh]     106.20770525 [kcal/mol]     444.37303875 [kJ/mol]
      Exch10(S^2)                 162.80486297 [mEh]     102.16159389 [kcal/mol]     427.44410883 [kJ/mol]

    Induction                     -45.78882396 [mEh]     -28.73292083 [kcal/mol]    -120.21854075 [kJ/mol]
      Ind20,r                     -82.55729552 [mEh]     -51.80548507 [kcal/mol]    -216.75414953 [kJ/mol]
      Exch-Ind20,r                 51.11095284 [mEh]      32.07260712 [kcal/mol]     134.19178819 [kJ/mol]
      delta HF,r (2)              -14.34248128 [mEh]      -9.00004288 [kcal/mol]     -37.65617941 [kJ/mol]

    Dispersion                    -69.48341508 [mEh]     -43.60150124 [kcal/mol]    -182.42868117 [kJ/mol]
      Disp20                      -80.81203912 [mEh]     -50.71032014 [kcal/mol]    -212.17197948 [kJ/mol]
      Exch-Disp20                  11.32862404 [mEh]       7.10881891 [kcal/mol]      29.74329831 [kJ/mol]
      Disp20 (SS)                 -40.40601956 [mEh]     -25.35516007 [kcal/mol]    -106.08598974 [kJ/mol]
      Disp20 (OS)                 -40.40601956 [mEh]     -25.35516007 [kcal/mol]    -106.08598974 [kJ/mol]
      Exch-Disp20 (SS)              6.65655931 [mEh]       4.17705403 [kcal/mol]      17.47679406 [kJ/mol]
      Exch-Disp20 (OS)              4.67206473 [mEh]       2.93176488 [kcal/mol]      12.26650425 [kJ/mol]

  Total HF                         64.57689686 [mEh]      40.52261457 [kcal/mol]     169.54661934 [kJ/mol]
  Total SAPT0                      -4.90651823 [mEh]      -3.07888667 [kcal/mol]     -12.88206183 [kJ/mol]

  Special recipe for scaled SAPT0 (see Manual):
    Electrostatics sSAPT0         -58.88703102 [mEh]     -36.95216985 [kcal/mol]    -154.60787866 [kJ/mol]
    Exchange sSAPT0               169.25275185 [mEh]     106.20770525 [kcal/mol]     444.37303875 [kJ/mol]
    Induction sSAPT0              -39.47238745 [mEh]     -24.76929708 [kcal/mol]    -103.63473897 [kJ/mol]
    Dispersion sSAPT0             -68.08339160 [mEh]     -42.72297323 [kcal/mol]    -178.75292001 [kJ/mol]
  Total sSAPT0                      2.80994177 [mEh]       1.76326508 [kcal/mol]       7.37750111 [kJ/mol]
  --------------------------------------------------------------------------------------------------------

*** Psi4 exiting successfully. Buy a developer a beer!
