                               Psi4 1.9 release

  ==> Input File <==

--------------------------------------------------------------------------
memory 32 GB # how much memory is available ! Depends on the nodes/cores !

molecule dimer {
# monomer A
+1 1    # Charge and multiplicity
C  0.680067 1.417258  -9.815929
C -0.680504 1.419286  -9.815545
N -1.085635 1.420284  -8.497221
C  0.000108 1.423560  -7.715820
C -2.477365 1.469690  -8.029242
N  1.085222 1.420284  -8.497221
H  1.385146 1.409430 -10.633368
H -1.385302 1.419096 -10.633214
H -0.000009 1.425307  -6.634731
C  2.478117 1.403392  -8.032123
H  2.490592 1.430737  -6.941870
H  2.967028 0.489946  -8.379299
H  3.001428 2.278875  -8.423595
H -2.857359 2.491761  -8.109201
H -3.082679 0.799606  -8.642306
H -2.518128 1.142706  -6.989294
--
# monomer B
0 1     # Charge and multiplicity
C   1.22531237526482      0.70753866091955      0.00613762728373
C   1.22532433589282     -0.70753852257020     -0.00619318228664
C   -0.00000567409046      1.41496628609039     -0.00672680580738
C   2.45644923379077      1.41832825917820      0.00902448468363
C   0.00001130712078     -1.41497612663474      0.00347275151708
C   -1.22530046906674      0.70754574598412      0.00838914760619
C   2.45643823516184     -1.41832293188077     -0.00843833914343
C   -0.00000085313587      2.83680140328112     -0.00913035594137
C   3.68182717731192      0.70931832800114     -0.00808954934571
C   2.45512052870677      2.83422403348893     -0.00819210630633
C   3.68182158506039     -0.70933346742900      0.00798293467272
C   -1.22531311884624     -0.70752714354401     -0.00512042085974
C   1.22670006104402      3.54346985599427      0.00816696660346
C   0.00000526469929     -2.83678176723568      0.00832091913869
C   -2.45643555300670      1.41831729028492      0.00842454345199
C   2.45512389762097     -2.83422965658853      0.00783102630520
C   -1.22671388474763      3.54346943575023      0.00827029982280
C   4.91451777504333      1.42717324448953     -0.00160886631602
C   3.69315067131765      3.54279566454522     -0.00155906667985
C   -2.45643712022637     -1.41831290883911     -0.00846337726810
C   1.22670532178455     -3.54347386990643     -0.00780316414624
C   -2.45512491866593      2.83421703463423     -0.00818572995999
C   4.91452486062398     -1.42718653794377      0.00136387641845
C   1.22142509354026      4.97013443726031      0.00150231067809
C   4.89300870916237      2.82518837202648     -0.00039219795739
C   -1.22669652864725     -3.54347062507680     -0.00753595973677
C   -3.68181849668397      0.70932533873199     -0.00807686886569
C   3.69314758099218     -3.54280096939050      0.00148176697923
C   -1.22143177215231      4.97012866986289      0.00168580605083
C   6.13477145276790      0.68054831910577     -0.00083909176631
C   3.65678936045204      4.97295361556775     -0.00065042889723
C   -2.45512642789169     -2.83421472106065      0.00758666850712
C   -3.68181869921921     -0.70932533146830      0.00810055625144
C   4.89301309775526     -2.82519973363176      0.00021895393805
C   -0.00000059327114      5.65044773803267      0.00045449734393
C   6.13477559217374     -0.68055448207492      0.00042622874941
C   2.47813196269732      5.65357712333155      0.00063835075260
C   1.22142288457925     -4.97012668293268     -0.00129718634452
C   -3.69316190412301      3.54279732619245     -0.00139355922051
C   -1.22142804110313     -4.97011793159564     -0.00140994817719
C   -4.91452132810043      1.42717581899491     -0.00153192130862
C   3.65678749952045     -4.97295485423912      0.00080007163680
C   -2.47813805026426      5.65357479452875      0.00092287576113
C   -3.69314125872231     -3.54278984697859      0.00136564082345
C   -4.91451200321153     -1.42718062802730      0.00139857359209
C   -0.00000552908399     -5.65043791501335      0.00005899322272
C   -4.89302000425900      2.82518897091939     -0.00040227981744
C   2.47812647313991     -5.65357317188818     -0.00029052915548
C   -3.65679823041642      4.97295655404175     -0.00047374852278
C   -4.89299899901461     -2.82519139505969      0.00006491824035
C   -2.47812801824129     -5.65356579800621     -0.00056571680280
C   -6.13477002348955      0.68054913825639     -0.00086464346868
C   -3.65678835334731     -4.97294365097028      0.00058578382008
C   -6.13476456307132     -0.68055354348201      0.00040575295444
H   5.83528897565761      3.36927626695423      0.00396712770529
H   7.07385965258860      1.22821762089947     -0.00037744837300
H   4.60066374401555      5.51238117445323     -0.00014522814529
H   5.83528386714679     -3.36930568472863     -0.00423551337640
H   -0.00001167146422      6.73853104613662     -0.00389474766392
H   7.07386165167227     -1.22822657074368     -0.00008250934481
H   2.47331421164041      6.74068466339473      0.00017162982210
H   4.60066897122302     -5.51237575717576      0.00039007446835
H   -2.47331820069565      6.74068209160650      0.00047297644710
H   -0.00000978838621     -6.73852780445195      0.00458867820736
H   -5.83530143450167      3.36927132229595      0.00410314985360
H   2.47330840367253     -6.74068500242887      0.00027980126949
H   -4.60067436136587      5.51237839860371      0.00002010017831
H   -5.83527902699321     -3.36928859177951     -0.00451481925734
H   -2.47329986759855     -6.74067870613986     -0.00016951527498
H   -7.07385728692578      1.22822084484047     -0.00046143985387
H   -4.60067330624313     -5.51236229778631      0.00021776644566
H   -7.07385645456741     -1.22822025997701     -0.00017736581114

    units angstrom      # Angstroms are the default
    no_reorient         # Geometry fixed, default
    symmetry c1         # C1 symmetry, default
}

set {
    scf_type DF         # Density fitting, faster than exact integrals
    freeze_core True    # Freeze core electrons
    basis jun-cc-pVDZ   # Jun-cc-pVDZ basis set, recommended for sSAPT0 in https://doi.org/10.1063/1.4867135
}

energy('ssapt0')        # Compute sSAPT0 energy, includes also SAPT0
--------------------------------------------------------------------------

  //              Dimer HF             //
    Molecular point group: c1
  Charge       = 1
  Multiplicity = 1
  Basis Set: JUN-CC-PVDZ
    Blend: JUN-CC-PVDZ
  Basis Set: (JUN-CC-PVDZ AUX)
    Blend: JUN-CC-PVDZ-JKFIT
  @DF-RHF Final Energy: -2359.19566585922848
    Total Energy =                      -2359.1956658592280291
 Dipole X            :         -0.0012177            0.0006313           -0.0005864
 Dipole Y            :         -5.4661784            7.4856329            2.0194545
 Dipole Z            :         29.8834089          -42.9421923          -13.0587835
 Magnitude           :                                                   13.2140086
  //            Monomer A HF           //
    Molecular point group: c1
  Multiplicity = 1
  Basis Set: JUN-CC-PVDZ
    Blend: JUN-CC-PVDZ
  Basis Set: (JUN-CC-PVDZ AUX)
    Blend: JUN-CC-PVDZ-JKFIT
  @DF-RHF Final Energy:  -303.29718166948908
    Total Energy =                       -303.2971816694890776
  //            Monomer B HF           //
    Molecular point group: c1

    Geometry (in Angstrom), charge = 0, multiplicity = 1:

       Center              X                  Y                   Z               Mass
    ------------   -----------------  -----------------  -----------------  -----------------
      Gh(C)           0.680066520158     1.235968212970    -8.722064037913    12.000000000000
      Gh(C)          -0.680504479842     1.237996212970    -8.721680037913    12.000000000000
      Gh(N)          -1.085635479842     1.238994212970    -7.403356037913    14.003074004430
      Gh(C)           0.000107520158     1.242270212970    -6.621955037913    12.000000000000
      Gh(C)          -2.477365479842     1.288400212970    -6.935377037913    12.000000000000
      Gh(N)           1.085221520158     1.238994212970    -7.403356037913    14.003074004430
      Gh(H)           1.385145520158     1.228140212970    -9.539503037913     1.007825032230
      Gh(H)          -1.385302479842     1.237806212970    -9.539349037913     1.007825032230
      Gh(H)          -0.000009479842     1.244017212970    -5.540866037913     1.007825032230
      Gh(C)           2.478116520158     1.222102212970    -6.938258037913    12.000000000000
      Gh(H)           2.490591520158     1.249447212970    -5.848005037913     1.007825032230
      Gh(H)           2.967027520158     0.308656212970    -7.285434037913     1.007825032230
      Gh(H)           3.001427520158     2.097585212970    -7.329730037913     1.007825032230
      Gh(H)          -2.857359479842     2.310471212970    -7.015336037913     1.007825032230
      Gh(H)          -3.082679479842     0.618316212970    -7.548441037913     1.007825032230
      Gh(H)          -2.518128479842     0.961416212970    -5.895429037913     1.007825032230
         C            1.225311895423     0.526248873889     1.100002589370    12.000000000000
         C            1.225323856051    -0.888828309601     1.087671779800    12.000000000000
         C           -0.000006153932     1.233676499060     1.087138156279    12.000000000000
         C            2.456448753949     1.237038472148     1.102889446770    12.000000000000
         C            0.000010827279    -1.596265913665     1.097337713604    12.000000000000
         C           -1.225300948908     0.526255958954     1.102254109693    12.000000000000
         C            2.456437755320    -1.599612718911     1.085426622943    12.000000000000
         C           -0.000001332978     2.655511616251     1.084734606145    12.000000000000
         C            3.681826697470     0.528028540971     1.085775412741    12.000000000000
         C            2.455120048865     2.652934246459     1.085672855780    12.000000000000
         C            3.681821105219    -0.890623254459     1.101847896759    12.000000000000
         C           -1.225313598688    -0.888816930574     1.088744541227    12.000000000000
         C            1.226699581202     3.362180068964     1.102031928690    12.000000000000
         C            0.000004784858    -3.018071554266     1.102185881225    12.000000000000
         C           -2.456436032848     1.237027503255     1.102289505539    12.000000000000
         C            2.455123417779    -3.015519443619     1.101695988392    12.000000000000
         C           -1.226714364589     3.362179648720     1.102135261909    12.000000000000
         C            4.914517295202     1.245883457459     1.092256095771    12.000000000000
         C            3.693150191476     3.361505877515     1.092305895407    12.000000000000
         C           -2.456437600068    -1.599602695869     1.085401584818    12.000000000000
         C            1.226704841943    -3.724763656937     1.086061797940    12.000000000000
         C           -2.455125398508     2.652927247604     1.085679232127    12.000000000000
         C            4.914524380782    -1.608476324974     1.095228838505    12.000000000000
         C            1.221424613699     4.788844650230     1.095367272765    12.000000000000
         C            4.893008229321     2.643898584996     1.093472764129    12.000000000000
         C           -1.226697008489    -3.724760412107     1.086329002350    12.000000000000
         C           -3.681818976526     0.528035551702     1.085788093221    12.000000000000
         C            3.693147101150    -3.724090756421     1.095346729066    12.000000000000
         C           -1.221432251994     4.788838882833     1.095550768137    12.000000000000
         C            6.134770972926     0.499258532075     1.093025870320    12.000000000000
         C            3.656788880610     4.791663828537     1.093214533189    12.000000000000
         C           -2.455126907733    -3.015504508091     1.101451630594    12.000000000000
         C           -3.681819179061    -0.890615118499     1.101965518338    12.000000000000
         C            4.893012617914    -3.006489520662     1.094083916025    12.000000000000
         C           -0.000001073113     5.469157951002     1.094319459431    12.000000000000
         C            6.134775112332    -0.861844269105     1.094291190836    12.000000000000
         C            2.478131482856     5.472287336301     1.094503312839    12.000000000000
         C            1.221422404738    -5.151416469963     1.092567775742    12.000000000000
         C           -3.693162383965     3.361507539162     1.092471402866    12.000000000000
         C           -1.221428520945    -5.151407718626     1.092455013909    12.000000000000
         C           -4.914521807942     1.245886031965     1.092333040778    12.000000000000
         C            3.656787019679    -5.154244641269     1.094665033723    12.000000000000
         C           -2.478138530106     5.472285007498     1.094787837848    12.000000000000
         C           -3.693141738564    -3.724079634009     1.095230602910    12.000000000000
         C           -4.914512483053    -1.608470415058     1.095263535679    12.000000000000
         C           -0.000006008926    -5.831727702044     1.093923955309    12.000000000000
         C           -4.893020484101     2.643899183889     1.093462682269    12.000000000000
         C            2.478125993298    -5.834862958919     1.093574432931    12.000000000000
         C           -3.656798710258     4.791666767011     1.093391213564    12.000000000000
         C           -4.892999478856    -3.006481182090     1.093929880327    12.000000000000
         C           -2.478128498083    -5.834855585037     1.093299245284    12.000000000000
         C           -6.134770503331     0.499259351226     1.093000318618    12.000000000000
         C           -3.656788833189    -5.154233438001     1.094450745907    12.000000000000
         C           -6.134765042913    -0.861843330512     1.094270715041    12.000000000000
         H            5.835288495816     3.187986479924     1.097832089792     1.007825032230
         H            7.073859172747     1.046927833869     1.093487513714     1.007825032230
         H            4.600663264174     5.331091387423     1.093719733941     1.007825032230
         H            5.835283387305    -3.550595471759     1.089629448710     1.007825032230
         H           -0.000012151306     6.557241259106     1.089970214423     1.007825032230
         H            7.073861171831    -1.409516357774     1.093782452742     1.007825032230
         H            2.473313731799     6.559394876364     1.094036591909     1.007825032230
         H            4.600668491381    -5.693665544206     1.094255036555     1.007825032230
         H           -2.473318680537     6.559392304576     1.094337938534     1.007825032230
         H           -0.000010268228    -6.919817591482     1.098453640294     1.007825032230
         H           -5.835301914343     3.187981535266     1.097968111940     1.007825032230
         H            2.473307923831    -6.921974789459     1.094144763356     1.007825032230
         H           -4.600674841208     5.331088611573     1.093885062265     1.007825032230
         H           -5.835279506835    -3.550578378810     1.089350142829     1.007825032230
         H           -2.473300347440    -6.921968493170     1.093695446812     1.007825032230
         H           -7.073857766768     1.046931057810     1.093403522233     1.007825032230
         H           -4.600673786085    -5.693652084817     1.094082728532     1.007825032230
         H           -7.073856934409    -1.409510047007     1.093687596275     1.007825032230

  Charge       = 0
  Multiplicity = 1
  Basis Set: JUN-CC-PVDZ
    Blend: JUN-CC-PVDZ
  Basis Set: (JUN-CC-PVDZ AUX)
    Blend: JUN-CC-PVDZ-JKFIT

    Orbital Energies [Eh]
    ---------------------

    Doubly Occupied:

       1A    -11.260673     2A    -11.260231     3A    -11.260229
       4A    -11.259520     5A    -11.259519     6A    -11.259349
       7A    -11.259140     8A    -11.259063     9A    -11.259061
      10A    -11.258737    11A    -11.258734    12A    -11.258665
      13A    -11.258602    14A    -11.258597    15A    -11.258595
      16A    -11.258566    17A    -11.258560    18A    -11.258544
      19A    -11.258530    20A    -11.258525    21A    -11.258520
      22A    -11.258421    23A    -11.258418    24A    -11.258119
      25A    -11.257460    26A    -11.257398    27A    -11.257397
      28A    -11.257262    29A    -11.257262    30A    -11.257177
      31A    -11.256555    32A    -11.256484    33A    -11.256484
      34A    -11.256374    35A    -11.256374    36A    -11.256327
      37A    -11.252401    38A    -11.252400    39A    -11.252399
      40A    -11.252397    41A    -11.252395    42A    -11.252393
      43A    -11.251536    44A    -11.251533    45A    -11.251531
      46A    -11.251526    47A    -11.251525    48A    -11.251521
      49A    -11.250963    50A    -11.250961    51A    -11.250960
      52A    -11.250958    53A    -11.250956    54A    -11.250955
      55A     -1.244298    56A     -1.220017    57A     -1.220015
      58A     -1.189724    59A     -1.189717    60A     -1.181168
      61A     -1.157724    62A     -1.149156    63A     -1.135706
      64A     -1.135700    65A     -1.113357    66A     -1.113353
      67A     -1.082630    68A     -1.082623    69A     -1.078813
      70A     -1.066140    71A     -1.066137    72A     -1.039580
      73A     -1.024492    74A     -1.021996    75A     -1.021952
      76A     -1.017889    77A     -1.012951    78A     -0.987223
      79A     -0.987176    80A     -0.962051    81A     -0.962001
      82A     -0.894470    83A     -0.894443    84A     -0.888167
      85A     -0.886414    86A     -0.886356    87A     -0.881602
      88A     -0.881554    89A     -0.862075    90A     -0.837553
      91A     -0.818392    92A     -0.816834    93A     -0.812341
      94A     -0.812332    95A     -0.794856    96A     -0.794846
      97A     -0.746840    98A     -0.745067    99A     -0.733635
     100A     -0.733626   101A     -0.732355   102A     -0.732331
     103A     -0.716702   104A     -0.699152   105A     -0.699140
     106A     -0.693778   107A     -0.693762   108A     -0.661402
     109A     -0.653336   110A     -0.651381   111A     -0.650419
     112A     -0.650413   113A     -0.639531   114A     -0.639528
     115A     -0.629915   116A     -0.627727   117A     -0.627711
     118A     -0.606458   119A     -0.605936   120A     -0.601868
     121A     -0.599921   122A     -0.599890   123A     -0.593825
     124A     -0.591457   125A     -0.591445   126A     -0.585421
     127A     -0.576419   128A     -0.576416   129A     -0.567480
     130A     -0.567465   131A     -0.566168   132A     -0.566148
     133A     -0.558943   134A     -0.555025   135A     -0.555019
     136A     -0.538762   137A     -0.538760   138A     -0.538290
     139A     -0.538284   140A     -0.529898   141A     -0.528207
     142A     -0.523053   143A     -0.523046   144A     -0.500670
     145A     -0.495720   146A     -0.493409   147A     -0.487949
     148A     -0.485268   149A     -0.481949   150A     -0.481941
     151A     -0.470439   152A     -0.470422   153A     -0.451254
     154A     -0.451176   155A     -0.439190   156A     -0.439181
     157A     -0.404871   158A     -0.404848   159A     -0.403492
     160A     -0.375544   161A     -0.375542   162A     -0.349249
     163A     -0.337717   164A     -0.336685   165A     -0.336628
     166A     -0.311225   167A     -0.298212   168A     -0.284482
     169A     -0.284429   170A     -0.225050   171A     -0.224984

  @DF-RHF Final Energy: -2055.89164667746809

   => Energetics <=

    Nuclear Repulsion Energy =           6452.5568002797781446
    One-Electron Energy =              -15636.4258668437159940
    Two-Electron Energy =                7127.9774198864688515
    Total Energy =                      -2055.8916466774680885
 Dipole X            :          0.0001065           -0.0000085            0.0000980
 Dipole Y            :        117.1650398         -117.1648546            0.0001853
 Dipole Z            :       -706.9474742          706.9485343            0.0010600
 Magnitude           :                                                    0.0010805

    SAPT Results
  --------------------------------------------------------------------------------------------------------
    Electrostatics                 -5.48438239 [mEh]      -3.44150190 [kcal/mol]     -14.39924397 [kJ/mol]
      Elst10,r                     -5.48438239 [mEh]      -3.44150190 [kcal/mol]     -14.39924397 [kJ/mol]

    Exchange                       -0.00010411 [mEh]      -0.00006533 [kcal/mol]      -0.00027334 [kJ/mol]
      Exch10                       -0.00010411 [mEh]      -0.00006533 [kcal/mol]      -0.00027334 [kJ/mol]
      Exch10(S^2)                  -0.00010411 [mEh]      -0.00006533 [kcal/mol]      -0.00027334 [kJ/mol]

    Induction                      -1.35302578 [mEh]      -0.84903649 [kcal/mol]      -3.55236869 [kJ/mol]
      Ind20,r                      -1.33728221 [mEh]      -0.83915726 [kcal/mol]      -3.51103397 [kJ/mol]
      Exch-Ind20,r                  0.00003334 [mEh]       0.00002092 [kcal/mol]       0.00008753 [kJ/mol]
      delta HF,r (2)               -0.01577690 [mEh]      -0.00990016 [kcal/mol]      -0.04142226 [kJ/mol]

    Dispersion                     -0.52117964 [mEh]      -0.32704516 [kcal/mol]      -1.36835696 [kJ/mol]
      Disp20                       -0.52119665 [mEh]      -0.32705583 [kcal/mol]      -1.36840161 [kJ/mol]
      Exch-Disp20                   0.00001700 [mEh]       0.00001067 [kcal/mol]       0.00004465 [kJ/mol]
      Disp20 (SS)                  -0.26059832 [mEh]      -0.16352792 [kcal/mol]      -0.68420080 [kJ/mol]
      Disp20 (OS)                  -0.26059832 [mEh]      -0.16352792 [kcal/mol]      -0.68420080 [kJ/mol]
      Exch-Disp20 (SS)              0.00001237 [mEh]       0.00000776 [kcal/mol]       0.00003247 [kJ/mol]
      Exch-Disp20 (OS)              0.00000464 [mEh]       0.00000291 [kcal/mol]       0.00001217 [kJ/mol]

  Total HF                         -6.83751227 [mEh]      -4.29060373 [kcal/mol]     -17.95188600 [kJ/mol]
  Total SAPT0                      -7.35869191 [mEh]      -4.61764889 [kcal/mol]     -19.32024296 [kJ/mol]

  Special recipe for scaled SAPT0 (see Manual):
    Electrostatics sSAPT0          -5.48438239 [mEh]      -3.44150190 [kcal/mol]     -14.39924397 [kJ/mol]
    Exchange sSAPT0                -0.00010411 [mEh]      -0.00006533 [kcal/mol]      -0.00027334 [kJ/mol]
    Induction sSAPT0               -1.35302578 [mEh]      -0.84903649 [kcal/mol]      -3.55236869 [kJ/mol]
    Dispersion sSAPT0              -0.52117964 [mEh]      -0.32704516 [kcal/mol]      -1.36835696 [kJ/mol]
  Total sSAPT0                     -7.35869191 [mEh]      -4.61764889 [kcal/mol]     -19.32024296 [kJ/mol]
  --------------------------------------------------------------------------------------------------------

*** Psi4 exiting successfully. Buy a developer a beer!
