                               Psi4 1.9 release

  ==> Input File <==

--------------------------------------------------------------------------
memory 32 GB # how much memory is available ! Depends on the nodes/cores !

molecule dimer {
# monomer A
+1 1    # Charge and multiplicity
C  0.680067 -0.008042 -5.015929
C -0.680504 -0.006014 -5.015545
N -1.085635 -0.005016 -3.697221
C  0.000108 -0.001740 -2.915820
C -2.477365  0.044390 -3.229242
N  1.085222 -0.005016 -3.697221
H  1.385146 -0.015870 -5.833368
H -1.385302 -0.006204 -5.833214
H -0.000009  0.000007 -1.834731
C  2.478117 -0.021908 -3.232123
H  2.490592  0.005437 -2.141870
H  2.967028 -0.935354 -3.579299
H  3.001428  0.853575 -3.623595
H -2.857359  1.066461 -3.309201
H -3.082679 -0.625694 -3.842306
H -2.518128 -0.282594 -2.189294
--
# monomer B
0 1     # Charge and multiplicity
C   1.22531237526482      0.70753866091955      0.00613762728373
C   1.22532433589282     -0.70753852257020     -0.00619318228664
C   -0.00000567409046      1.41496628609039     -0.00672680580738
C   2.45644923379077      1.41832825917820      0.00902448468363
C   0.00001130712078     -1.41497612663474      0.00347275151708
C   -1.22530046906674      0.70754574598412      0.00838914760619
C   2.45643823516184     -1.41832293188077     -0.00843833914343
C   -0.00000085313587      2.83680140328112     -0.00913035594137
C   3.68182717731192      0.70931832800114     -0.00808954934571
C   2.45512052870677      2.83422403348893     -0.00819210630633
C   3.68182158506039     -0.70933346742900      0.00798293467272
C   -1.22531311884624     -0.70752714354401     -0.00512042085974
C   1.22670006104402      3.54346985599427      0.00816696660346
C   0.00000526469929     -2.83678176723568      0.00832091913869
C   -2.45643555300670      1.41831729028492      0.00842454345199
C   2.45512389762097     -2.83422965658853      0.00783102630520
C   -1.22671388474763      3.54346943575023      0.00827029982280
C   4.91451777504333      1.42717324448953     -0.00160886631602
C   3.69315067131765      3.54279566454522     -0.00155906667985
C   -2.45643712022637     -1.41831290883911     -0.00846337726810
C   1.22670532178455     -3.54347386990643     -0.00780316414624
C   -2.45512491866593      2.83421703463423     -0.00818572995999
C   4.91452486062398     -1.42718653794377      0.00136387641845
C   1.22142509354026      4.97013443726031      0.00150231067809
C   4.89300870916237      2.82518837202648     -0.00039219795739
C   -1.22669652864725     -3.54347062507680     -0.00753595973677
C   -3.68181849668397      0.70932533873199     -0.00807686886569
C   3.69314758099218     -3.54280096939050      0.00148176697923
C   -1.22143177215231      4.97012866986289      0.00168580605083
C   6.13477145276790      0.68054831910577     -0.00083909176631
C   3.65678936045204      4.97295361556775     -0.00065042889723
C   -2.45512642789169     -2.83421472106065      0.00758666850712
C   -3.68181869921921     -0.70932533146830      0.00810055625144
C   4.89301309775526     -2.82519973363176      0.00021895393805
C   -0.00000059327114      5.65044773803267      0.00045449734393
C   6.13477559217374     -0.68055448207492      0.00042622874941
C   2.47813196269732      5.65357712333155      0.00063835075260
C   1.22142288457925     -4.97012668293268     -0.00129718634452
C   -3.69316190412301      3.54279732619245     -0.00139355922051
C   -1.22142804110313     -4.97011793159564     -0.00140994817719
C   -4.91452132810043      1.42717581899491     -0.00153192130862
C   3.65678749952045     -4.97295485423912      0.00080007163680
C   -2.47813805026426      5.65357479452875      0.00092287576113
C   -3.69314125872231     -3.54278984697859      0.00136564082345
C   -4.91451200321153     -1.42718062802730      0.00139857359209
C   -0.00000552908399     -5.65043791501335      0.00005899322272
C   -4.89302000425900      2.82518897091939     -0.00040227981744
C   2.47812647313991     -5.65357317188818     -0.00029052915548
C   -3.65679823041642      4.97295655404175     -0.00047374852278
C   -4.89299899901461     -2.82519139505969      0.00006491824035
C   -2.47812801824129     -5.65356579800621     -0.00056571680280
C   -6.13477002348955      0.68054913825639     -0.00086464346868
C   -3.65678835334731     -4.97294365097028      0.00058578382008
C   -6.13476456307132     -0.68055354348201      0.00040575295444
H   5.83528897565761      3.36927626695423      0.00396712770529
H   7.07385965258860      1.22821762089947     -0.00037744837300
H   4.60066374401555      5.51238117445323     -0.00014522814529
H   5.83528386714679     -3.36930568472863     -0.00423551337640
H   -0.00001167146422      6.73853104613662     -0.00389474766392
H   7.07386165167227     -1.22822657074368     -0.00008250934481
H   2.47331421164041      6.74068466339473      0.00017162982210
H   4.60066897122302     -5.51237575717576      0.00039007446835
H   -2.47331820069565      6.74068209160650      0.00047297644710
H   -0.00000978838621     -6.73852780445195      0.00458867820736
H   -5.83530143450167      3.36927132229595      0.00410314985360
H   2.47330840367253     -6.74068500242887      0.00027980126949
H   -4.60067436136587      5.51237839860371      0.00002010017831
H   -5.83527902699321     -3.36928859177951     -0.00451481925734
H   -2.47329986759855     -6.74067870613986     -0.00016951527498
H   -7.07385728692578      1.22822084484047     -0.00046143985387
H   -4.60067330624313     -5.51236229778631      0.00021776644566
H   -7.07385645456741     -1.22822025997701     -0.00017736581114

    units angstrom      # Angstroms are the default
    no_reorient         # Geometry fixed, default
    symmetry c1         # C1 symmetry, default
}

set {
    scf_type DF         # Density fitting, faster than exact integrals
    freeze_core True    # Freeze core electrons
    basis jun-cc-pVDZ   # Jun-cc-pVDZ basis set, recommended for sSAPT0 in https://doi.org/10.1063/1.4867135
}

energy('ssapt0')        # Compute sSAPT0 energy, includes also SAPT0
--------------------------------------------------------------------------

  //              Dimer HF             //
    Molecular point group: c1
  Charge       = 1
  Multiplicity = 1
  Basis Set: JUN-CC-PVDZ
    Blend: JUN-CC-PVDZ
  Basis Set: (JUN-CC-PVDZ AUX)
    Blend: JUN-CC-PVDZ-JKFIT
  @DF-RHF Final Energy: -2359.19314350454670
    Total Energy =                      -2359.1931435045462422
 Dipole X            :         -0.0032593            0.0006313           -0.0026281
 Dipole Y            :         -0.0574573            0.0560211           -0.0014362
 Dipole Z            :         13.9779251          -17.9213990           -3.9434739
 Magnitude           :                                                    3.9434750
  //            Monomer A HF           //
    Molecular point group: c1
  Multiplicity = 1
  Basis Set: JUN-CC-PVDZ
    Blend: JUN-CC-PVDZ
  Basis Set: (JUN-CC-PVDZ AUX)
    Blend: JUN-CC-PVDZ-JKFIT
  @DF-RHF Final Energy:  -303.29858930736032
    Total Energy =                       -303.2985893073603165
  //            Monomer B HF           //
    Molecular point group: c1

    Geometry (in Angstrom), charge = 0, multiplicity = 1:

       Center              X                  Y                   Z               Mass
    ------------   -----------------  -----------------  -----------------  -----------------
      Gh(C)           0.680066520158    -0.008042372515    -4.532594585639    12.000000000000
      Gh(C)          -0.680504479842    -0.006014372515    -4.532210585639    12.000000000000
      Gh(N)          -1.085635479842    -0.005016372515    -3.213886585639    14.003074004430
      Gh(C)           0.000107520158    -0.001740372515    -2.432485585639    12.000000000000
      Gh(C)          -2.477365479842     0.044389627485    -2.745907585639    12.000000000000
      Gh(N)           1.085221520158    -0.005016372515    -3.213886585639    14.003074004430
      Gh(H)           1.385145520158    -0.015870372515    -5.350033585639     1.007825032230
      Gh(H)          -1.385302479842    -0.006204372515    -5.349879585639     1.007825032230
      Gh(H)          -0.000009479842     0.000006627485    -1.351396585639     1.007825032230
      Gh(C)           2.478116520158    -0.021908372515    -2.748788585639    12.000000000000
      Gh(H)           2.490591520158     0.005436627485    -1.658535585639     1.007825032230
      Gh(H)           2.967027520158    -0.935354372515    -3.095964585639     1.007825032230
      Gh(H)           3.001427520158     0.853574627485    -3.140260585639     1.007825032230
      Gh(H)          -2.857359479842     1.066460627485    -2.825866585639     1.007825032230
      Gh(H)          -3.082679479842    -0.625694372515    -3.358971585639     1.007825032230
      Gh(H)          -2.518128479842    -0.282594372515    -1.705959585639     1.007825032230
         C            1.225311895423     0.707538288405     0.489472041644    12.000000000000
         C            1.225323856051    -0.707538895085     0.477141232074    12.000000000000
         C           -0.000006153932     1.414965913575     0.476607608553    12.000000000000
         C            2.456448753949     1.418327886663     0.492358899044    12.000000000000
         C            0.000010827279    -1.414976499150     0.486807165878    12.000000000000
         C           -1.225300948908     0.707545373469     0.491723561967    12.000000000000
         C            2.456437755320    -1.418323304396     0.474896075217    12.000000000000
         C           -0.000001332978     2.836801030766     0.474204058419    12.000000000000
         C            3.681826697470     0.709317955486     0.475244865015    12.000000000000
         C            2.455120048865     2.834223660974     0.475142308054    12.000000000000
         C            3.681821105219    -0.709333839944     0.491317349033    12.000000000000
         C           -1.225313598688    -0.707527516059     0.478213993501    12.000000000000
         C            1.226699581202     3.543469483479     0.491501380964    12.000000000000
         C            0.000004784858    -2.836782139751     0.491655333499    12.000000000000
         C           -2.456436032848     1.418316917770     0.491758957813    12.000000000000
         C            2.455123417779    -2.834230029103     0.491165440666    12.000000000000
         C           -1.226714364589     3.543469063235     0.491604714183    12.000000000000
         C            4.914517295202     1.427172871975     0.481725548045    12.000000000000
         C            3.693150191476     3.542795292030     0.481775347681    12.000000000000
         C           -2.456437600068    -1.418313281354     0.474871037093    12.000000000000
         C            1.226704841943    -3.543474242421     0.475531250214    12.000000000000
         C           -2.455125398508     2.834216662119     0.475148684401    12.000000000000
         C            4.914524380782    -1.427186910459     0.484698290779    12.000000000000
         C            1.221424613699     4.970134064745     0.484836725039    12.000000000000
         C            4.893008229321     2.825187999512     0.482942216403    12.000000000000
         C           -1.226697008489    -3.543470997592     0.475798454624    12.000000000000
         C           -3.681818976526     0.709324966217     0.475257545495    12.000000000000
         C            3.693147101150    -3.542801341905     0.484816181340    12.000000000000
         C           -1.221432251994     4.970128297348     0.485020220411    12.000000000000
         C            6.134770972926     0.680547946591     0.482495322594    12.000000000000
         C            3.656788880610     4.972953243053     0.482683985463    12.000000000000
         C           -2.455126907733    -2.834215093576     0.490921082868    12.000000000000
         C           -3.681819179061    -0.709325703983     0.491434970612    12.000000000000
         C            4.893012617914    -2.825200106147     0.483553368299    12.000000000000
         C           -0.000001073113     5.650447365518     0.483788911705    12.000000000000
         C            6.134775112332    -0.680554854590     0.483760643110    12.000000000000
         C            2.478131482856     5.653576750817     0.483972765113    12.000000000000
         C            1.221422404738    -4.970127055448     0.482037228016    12.000000000000
         C           -3.693162383965     3.542796953677     0.481940855140    12.000000000000
         C           -1.221428520945    -4.970118304111     0.481924466183    12.000000000000
         C           -4.914521807942     1.427175446480     0.481802493052    12.000000000000
         C            3.656787019679    -4.972955226754     0.484134485997    12.000000000000
         C           -2.478138530106     5.653574422014     0.484257290122    12.000000000000
         C           -3.693141738564    -3.542790219494     0.484700055184    12.000000000000
         C           -4.914512483053    -1.427181000542     0.484732987953    12.000000000000
         C           -0.000006008926    -5.650438287528     0.483393407583    12.000000000000
         C           -4.893020484101     2.825188598404     0.482932134543    12.000000000000
         C            2.478125993298    -5.653573544403     0.483043885205    12.000000000000
         C           -3.656798710258     4.972956181527     0.482860665838    12.000000000000
         C           -4.892999478856    -2.825191767575     0.483399332601    12.000000000000
         C           -2.478128498083    -5.653566170521     0.482768697558    12.000000000000
         C           -6.134770503331     0.680548765741     0.482469770892    12.000000000000
         C           -3.656788833189    -4.972944023485     0.483920198181    12.000000000000
         C           -6.134765042913    -0.680553915997     0.483740167315    12.000000000000
         H            5.835288495816     3.369275894439     0.487301542066     1.007825032230
         H            7.073859172747     1.228217248385     0.482956965988     1.007825032230
         H            4.600663264174     5.512380801938     0.483189186215     1.007825032230
         H            5.835283387305    -3.369306057244     0.479098900984     1.007825032230
         H           -0.000012151306     6.738530673622     0.479439666697     1.007825032230
         H            7.073861171831    -1.228226943259     0.483251905016     1.007825032230
         H            2.473313731799     6.740684290880     0.483506044183     1.007825032230
         H            4.600668491381    -5.512376129691     0.483724488829     1.007825032230
         H           -2.473318680537     6.740681719092     0.483807390808     1.007825032230
         H           -0.000010268228    -6.738528176967     0.487923092568     1.007825032230
         H           -5.835301914343     3.369270949781     0.487437564214     1.007825032230
         H            2.473307923831    -6.740685374944     0.483614215630     1.007825032230
         H           -4.600674841208     5.512378026089     0.483354514539     1.007825032230
         H           -5.835279506835    -3.369288964294     0.478819595103     1.007825032230
         H           -2.473300347440    -6.740679078655     0.483164899086     1.007825032230
         H           -7.073857766768     1.228220472326     0.482872974507     1.007825032230
         H           -4.600673786085    -5.512362670301     0.483552180806     1.007825032230
         H           -7.073856934409    -1.228220632492     0.483157048550     1.007825032230

  Charge       = 0
  Multiplicity = 1
  Basis Set: JUN-CC-PVDZ
    Blend: JUN-CC-PVDZ
  Basis Set: (JUN-CC-PVDZ AUX)
    Blend: JUN-CC-PVDZ-JKFIT

    Orbital Energies [Eh]
    ---------------------

    Doubly Occupied:

       1A    -11.260604     2A    -11.260190     3A    -11.260108
       4A    -11.259434     5A    -11.259357     6A    -11.259205
       7A    -11.258970     8A    -11.258925     9A    -11.258855
      10A    -11.258571    11A    -11.258548    12A    -11.258439
      13A    -11.258382    14A    -11.258379    15A    -11.258375
      16A    -11.258347    17A    -11.258328    18A    -11.258316
      19A    -11.258311    20A    -11.258299    21A    -11.258295
      22A    -11.258258    23A    -11.258225    24A    -11.258012
      25A    -11.257257    26A    -11.257225    27A    -11.257156
      28A    -11.257079    29A    -11.257019    30A    -11.256962
      31A    -11.256363    32A    -11.256327    33A    -11.256238
      34A    -11.256186    35A    -11.256130    36A    -11.256101
      37A    -11.252200    38A    -11.252192    39A    -11.252188
      40A    -11.252178    41A    -11.252146    42A    -11.252142
      43A    -11.251289    44A    -11.251278    45A    -11.251272
      46A    -11.251257    47A    -11.251250    48A    -11.251244
      49A    -11.250761    50A    -11.250753    51A    -11.250749
      52A    -11.250739    53A    -11.250707    54A    -11.250703
      55A     -1.243853    56A     -1.219636    57A     -1.219594
      58A     -1.189366    59A     -1.189341    60A     -1.180751
      61A     -1.157389    62A     -1.148800    63A     -1.135312
      64A     -1.135269    65A     -1.113025    66A     -1.113018
      67A     -1.082240    68A     -1.082223    69A     -1.078411
      70A     -1.065822    71A     -1.065810    72A     -1.039216
      73A     -1.024062    74A     -1.021572    75A     -1.021497
      76A     -1.017559    77A     -1.012645    78A     -0.986837
      79A     -0.986761    80A     -0.961717    81A     -0.961655
      82A     -0.894104    83A     -0.894093    84A     -0.887718
      85A     -0.885952    86A     -0.885924    87A     -0.881184
      88A     -0.881143    89A     -0.861724    90A     -0.837260
      91A     -0.818018    92A     -0.816399    93A     -0.811933
      94A     -0.811926    95A     -0.794521    96A     -0.794506
      97A     -0.746407    98A     -0.744655    99A     -0.733218
     100A     -0.733190   101A     -0.732002   102A     -0.731987
     103A     -0.716308   104A     -0.698811   105A     -0.698756
     106A     -0.693417   107A     -0.693345   108A     -0.661059
     109A     -0.652908   110A     -0.650939   111A     -0.650092
     112A     -0.650074   113A     -0.639196   114A     -0.639157
     115A     -0.629518   116A     -0.627317   117A     -0.627312
     118A     -0.606406   119A     -0.605677   120A     -0.601447
     121A     -0.599579   122A     -0.599480   123A     -0.593428
     124A     -0.591013   125A     -0.590958   126A     -0.585132
     127A     -0.576435   128A     -0.576305   129A     -0.567171
     130A     -0.567137   131A     -0.565753   132A     -0.565747
     133A     -0.558513   134A     -0.554686   135A     -0.554654
     136A     -0.538425   137A     -0.538417   138A     -0.538171
     139A     -0.538123   140A     -0.529532   141A     -0.528109
     142A     -0.522710   143A     -0.522651   144A     -0.500332
     145A     -0.495553   146A     -0.493055   147A     -0.487754
     148A     -0.484863   149A     -0.481561   150A     -0.481550
     151A     -0.470275   152A     -0.470231   153A     -0.450781
     154A     -0.450726   155A     -0.438976   156A     -0.438971
     157A     -0.404641   158A     -0.404615   159A     -0.403264
     160A     -0.375325   161A     -0.375316   162A     -0.349023
     163A     -0.337484   164A     -0.336427   165A     -0.336411
     166A     -0.310969   167A     -0.298027   168A     -0.284216
     169A     -0.284160   170A     -0.224778   171A     -0.224724

  @DF-RHF Final Energy: -2055.89574896497425

   => Energetics <=

    Nuclear Repulsion Energy =           6452.5568002797781446
    One-Electron Energy =              -15636.5351553491873347
    Two-Electron Energy =                7128.0826061044344897
    Total Energy =                      -2055.8957489649737909
 Dipole X            :         -0.0004039           -0.0000085           -0.0004124
 Dipole Y            :          0.0006214            0.0000167            0.0006380
 Dipole Z            :       -312.3705729          312.3709842            0.0004113
 Magnitude           :                                                    0.0008639

    SAPT Results
  --------------------------------------------------------------------------------------------------------
    Electrostatics                -27.65786899 [mEh]     -17.35557481 [kcal/mol]     -72.61572503 [kJ/mol]
      Elst10,r                    -27.65786899 [mEh]     -17.35557481 [kcal/mol]     -72.61572503 [kJ/mol]

    Exchange                       55.72987731 [mEh]      34.97102598 [kcal/mol]     146.31877271 [kJ/mol]
      Exch10                       55.72987731 [mEh]      34.97102598 [kcal/mol]     146.31877271 [kJ/mol]
      Exch10(S^2)                  54.90329647 [mEh]      34.45233868 [kcal/mol]     144.14858502 [kJ/mol]

    Induction                     -26.87724053 [mEh]     -16.86572306 [kcal/mol]     -70.56618529 [kJ/mol]
      Ind20,r                     -34.14576619 [mEh]     -21.42679178 [kcal/mol]     -89.64969679 [kJ/mol]
      Exch-Ind20,r                 15.07269803 [mEh]       9.45826081 [kcal/mol]      39.57336323 [kJ/mol]
      delta HF,r (2)               -7.80417237 [mEh]      -4.89719210 [kcal/mol]     -20.48985173 [kJ/mol]

    Dispersion                    -40.01393059 [mEh]     -25.10912053 [kcal/mol]    -105.05656029 [kJ/mol]
      Disp20                      -44.41305192 [mEh]     -27.86961084 [kcal/mol]    -116.60645175 [kJ/mol]
      Exch-Disp20                   4.39912133 [mEh]       2.76049031 [kcal/mol]      11.54989145 [kJ/mol]
      Disp20 (SS)                 -22.20652596 [mEh]     -13.93480542 [kcal/mol]     -58.30322587 [kJ/mol]
      Disp20 (OS)                 -22.20652596 [mEh]     -13.93480542 [kcal/mol]     -58.30322587 [kJ/mol]
      Exch-Disp20 (SS)              2.59110851 [mEh]       1.62594514 [kcal/mol]       6.80295445 [kJ/mol]
      Exch-Disp20 (OS)              1.80801282 [mEh]       1.13454517 [kcal/mol]       4.74693700 [kJ/mol]

  Total HF                          1.19476779 [mEh]       0.74972811 [kcal/mol]       3.13686240 [kJ/mol]
  Total SAPT0                     -38.81916280 [mEh]     -24.35939242 [kcal/mol]    -101.91969790 [kJ/mol]

  Special recipe for scaled SAPT0 (see Manual):
    Electrostatics sSAPT0         -27.65786899 [mEh]     -17.35557481 [kcal/mol]     -72.61572503 [kJ/mol]
    Exchange sSAPT0                55.72987731 [mEh]      34.97102598 [kcal/mol]     146.31877271 [kJ/mol]
    Induction sSAPT0              -26.18617194 [mEh]     -16.43207097 [kcal/mol]     -68.75178495 [kJ/mol]
    Dispersion sSAPT0             -39.81223514 [mEh]     -24.98255472 [kcal/mol]    -104.52700897 [kJ/mol]
  Total sSAPT0                    -37.92639876 [mEh]     -23.79917453 [kcal/mol]     -99.57574623 [kJ/mol]
  --------------------------------------------------------------------------------------------------------

*** Psi4 exiting successfully. Buy a developer a beer!
