                               Psi4 1.9 release

  ==> Input File <==

--------------------------------------------------------------------------
memory 64 GB # how much memory is available ! Depends on the nodes/cores !

molecule dimer {
# monomer A
+1 1    # Charge and multiplicity
C  0.680067 1.417258 -6.615929
C -0.680504 1.419286 -6.615545
N -1.085635 1.420284 -5.297221
C  0.000108 1.423560 -4.515820
C -2.477365 1.469690 -4.829242
N  1.085222 1.420284 -5.297221
H  1.385146 1.409430 -7.433368
H -1.385302 1.419096 -7.433214
H -0.000009 1.425307 -3.434731
C  2.478117 1.403392 -4.832123
H  2.490592 1.430737 -3.741870
H  2.967028 0.489946 -5.179299
H  3.001428 2.278875 -5.223595
H -2.857359 2.491761 -4.909201
H -3.082679 0.799606 -5.442306
H -2.518128 1.142706 -3.789294
--
# monomer B
0 1     # Charge and multiplicity
C   -3.66844126402057      7.80375217008252      0.00190004133558
C   -4.84759871934653      7.13124183134024     -0.00046653359696
C   -4.89495929917518      5.69633040353158     -0.00103944469517
C   -3.65374067877320      4.98073034095895      0.00662099703436
C   -2.40942512149445      7.11398103667468      0.00209438359570
C   -2.42547734410473      5.68112195090346     -0.00491050527438
C   -1.19474401643570      7.78614419430947      0.00356656413763
C   0.03795902893699      7.09942164575698      0.00139585983271
C   0.03033258741920      5.66948955970466     -0.00408752508301
C   -1.20098450790502      4.96927034791531      0.00488220885047
C   1.27795782581485      7.77285944319479      0.00277170839332
C   2.48535808472416      7.08769688523756      0.00049722048857
C   2.48612868491717      5.65477081024076     -0.00644052849921
C   1.25408291964399      4.95607811366431      0.00518741308898
C   3.75171459140595      7.76391215098033      0.00062407186893
C   4.92356605618520      7.07878077698995     -0.00143240883900
C   4.95560727132542      5.64344746336949     -0.00159282164606
C   3.70680153420475      4.94121020833308      0.00349873852374
H   -3.65852113775815      8.89082741913536      0.00358502958574
H   -1.18921332975660      8.87412108735996      0.00753844057883
H   1.28429423888630      8.86083343548850      0.00693053253426
H   3.75354208679975      8.85103527897216      0.00214659618464
H   5.86995870320703      7.61379483465560     -0.00235777588134
H   -5.78823170750226      7.67630221293400     -0.00202638095293
C   -6.09197395869619      4.99326001364347     -0.00291168518608
C   -6.12866148031747      3.58258016879823     -0.00171050815740
C   -3.66457974004527      3.56418217974434     -0.00463560277484
C   -4.89429820469869      2.86108077590057      0.00453338221034
C   -2.43733499489796      2.84761165708481      0.00719617576166
C   -1.20922785759670      3.54788693497833     -0.00648285103018
C   1.24714157216223      3.53468075142962     -0.00729145743546
C   0.01517603956900      2.83311183930540      0.00439272578912
C   2.46764517244071      2.82128997725533      0.00449278391269
C   3.70254947457969      3.52466015442405     -0.00899517692985
C   6.14498038638375      4.92757236613191     -0.00282626685777
C   6.16658835886151      3.51658447594213     -0.00065971342101
C   4.92460995845939      2.80840792535402      0.00587903281610
H   7.08990550964105      5.46688776622306     -0.00658814770723
H   -7.03104175110130      5.54268795285765     -0.00714490013730
C   -7.33969804112295      2.85841153457957     -0.00333767559888
C   -7.36488195805880      1.47032337158330     -0.00157213747140
C   -4.90350460894690      1.44442681216000     -0.00628840166334
C   -6.13225715261081      0.73993935705394      0.00600164231964
C   -3.67687480051673      0.72669714267312      0.00433931473643
C   -2.44565658606518      1.42964113326212     -0.00597039546461
C   -1.22360068130162      0.71532450163492      0.00545886906656
C   0.00763786931376      1.41738314923765      0.00392452278437
C   1.23121980774686      0.70211669058719     -0.01490206287210
C   2.46082110053113      1.40329203612573      0.00460244601878
C   3.68443025419614      0.68719842821222      0.00377365974158
C   4.91870890153864      1.39173456118907     -0.00862816189375
C   7.36980207796101      2.77948220318441     -0.00242013321349
C   7.38016266612146      1.39121750785509     -0.00087345036788
C   6.13979953912259      0.67411862320065      0.00545489144369
H   -8.27919079934664      3.40711804112415     -0.00763522772059
H   8.31511347147953      3.31811809662368     -0.00663070901292
C   -8.59175593758115      0.72483255304480     -0.00123170985383
C   -8.59902460370342     -0.63263980622873      0.00089141472904
C   -6.13981313911873     -0.67413663715361     -0.00609792660607
C   -7.38018411213749     -1.39126618958160      0.00131813493501
C   -4.91868448025621     -1.39175501803000      0.00624257154343
C   -3.68443829568458     -0.68723731573599     -0.00478966852105
C   -2.46081704024768     -1.40334517882457      0.00575341766833
C   -1.23116201232071     -0.70217386488055     -0.00636696112346
C   -0.00756962538737     -1.41741884941102      0.00108956317991
C   1.22364771588843     -0.71527537726392      0.01109518512883
C   2.44567064933149     -1.42964328900682     -0.00065482763106
C   3.67686670284649     -0.72670743155550     -0.00479541202602
C   6.13224884641929     -0.73997883984993     -0.00632338623858
C   4.90351914550401     -1.44445752054090      0.00751768830159
C   8.59901484869081      0.63260386666793     -0.00101133422380
C   8.59174548810050     -0.72485086719319      0.00072504603735
C   7.36486276438985     -1.47033266560598      0.00049486934466
H   -9.52830597181814      1.27684744919284     -0.00270163681798
H   9.54141097460619      1.17457248844457     -0.00206336648518
C   -7.36983790976868     -2.77954514593389      0.00312634335708
C   -4.92459910905015     -2.80843725734101     -0.00460528907921
C   -6.16662249566744     -3.51665219282533      0.00169655107992
C   -3.70251035970491     -3.52468154912026      0.00571878010666
C   -2.46764698511392     -2.82132596280400     -0.00632585824990
C   -0.01513347410770     -2.83314164539971     -0.00604426974092
C   -1.24712184122656     -3.53473217556300      0.00551968366725
C   1.20924506964357     -3.54791467864352      0.00805871345849
C   2.43733602215464     -2.84764173817541     -0.00608104485234
C   4.89430234377080     -2.86112296828604     -0.00526030478103
C   3.66461525504104     -3.56421984553201      0.00761911515957
C   6.12863901474565     -3.58258405771778      0.00096495711699
C   7.33967266469532     -2.85841330737039      0.00248018319869
H   -9.54144911125902     -1.17456346666430      0.00226083090216
H   9.52826186807155     -1.27691907390448      0.00197485379837
H   -8.31516504384864     -3.31814985321231      0.00729857188773
H   8.27915514249207     -3.40714078989363      0.00681973918158
C   -6.14499418870218     -4.92764727278338      0.00302254913999
C   -3.70678334799751     -4.94126171411716     -0.00679841894792
C   -4.95559005800169     -5.64349397349412      0.00116871569699
C   -2.48612132622665     -5.65478557440947      0.00614125209662
C   -1.25405833548005     -4.95612205000132     -0.00503435388927
C   1.20101257386816     -4.96928038819302     -0.00385322963129
C   -0.03033667441341     -5.66952030313900      0.00398997003238
C   3.65375010132847     -4.98074377541453     -0.00309522988330
C   2.42549269587528     -5.68117463552727      0.00628170066869
C   6.09196561781097     -4.99325796338655      0.00325918379042
C   4.89497644461045     -5.69634842095790      0.00202298796027
H   -7.08989238804069     -5.46699984223871      0.00742531082125
H   7.03105520920009     -5.54265853633254      0.00683896355417
C   -4.92354532219813     -7.07882109967734      0.00061394679214
C   -2.48534208823777     -7.08772807792913     -0.00189594564379
C   -3.75168589177895     -7.76394715763627     -0.00170126671874
C   -0.03794895698805     -7.09946487446944     -0.00168022049625
C   -1.27795610040136     -7.77290438466689     -0.00366491325785
C   2.40944432072629     -7.11402201200282     -0.00081701968533
C   1.19474993715296     -7.78618536556242     -0.00296931056689
C   4.84762105249800     -7.13126211057943      0.00168979497423
C   3.66847160587561     -7.80378799294376     -0.00065863938960
H   -5.86994035041618     -7.61383059804164      0.00215798365757
H   5.78824962538815     -7.67633218931421      0.00281691445618
H   -3.75352693944918     -8.85107156923607     -0.00353718114765
H   -1.28430440589466     -8.86087539249706     -0.00809229711623
H   1.18922157469537     -8.87416062058945     -0.00706194725726
H   3.65854661482387     -8.89086063405326     -0.00231318081200

    units angstrom      # Angstroms are the default
    no_reorient         # Geometry fixed, default
    symmetry c1         # C1 symmetry, default
}

set {
    scf_type DF         # Density fitting, faster than exact integrals
    freeze_core True    # Freeze core electrons
    basis jun-cc-pVDZ   # Jun-cc-pVDZ basis set, recommended for sSAPT0 in https://doi.org/10.1063/1.4867135
}

energy('ssapt0')        # Compute sSAPT0 energy, includes also SAPT0
--------------------------------------------------------------------------

  //              Dimer HF             //
    Molecular point group: c1
  Charge       = 1
  Multiplicity = 1
  Basis Set: JUN-CC-PVDZ
    Blend: JUN-CC-PVDZ
  Basis Set: (JUN-CC-PVDZ AUX)
    Blend: JUN-CC-PVDZ-JKFIT
  @DF-RHF Final Energy: -3953.65663548175553
    Total Energy =                      -3953.6566354817550746
 Dipole X            :         -0.0031466            0.0004804           -0.0026662
 Dipole Y            :         -7.1097092            8.7122315            1.6025224
 Dipole Z            :         23.3814073          -30.9091009           -7.5276937
 Magnitude           :                                                    7.6963795
  //            Monomer A HF           //
    Molecular point group: c1
  Multiplicity = 1
  Basis Set: JUN-CC-PVDZ
    Blend: JUN-CC-PVDZ
  Basis Set: (JUN-CC-PVDZ AUX)
    Blend: JUN-CC-PVDZ-JKFIT
  @DF-RHF Final Energy:  -303.29767693558961
    Total Energy =                       -303.2976769355896067
  //            Monomer B HF           //
    Molecular point group: c1

    Geometry (in Angstrom), charge = 0, multiplicity = 1:

       Center              X                  Y                   Z               Mass
    ------------   -----------------  -----------------  -----------------  -----------------
      Gh(C)           0.680062820275     1.308604348936    -6.204226489631    12.000000000000
      Gh(C)          -0.680508179725     1.310632348936    -6.203842489631    12.000000000000
      Gh(N)          -1.085639179725     1.311630348936    -4.885518489631    14.003074004430
      Gh(C)           0.000103820275     1.314906348936    -4.104117489631    12.000000000000
      Gh(C)          -2.477369179725     1.361036348936    -4.417539489631    12.000000000000
      Gh(N)           1.085217820275     1.311630348936    -4.885518489631    14.003074004430
      Gh(H)           1.385141820275     1.300776348936    -7.021665489631     1.007825032230
      Gh(H)          -1.385306179725     1.310442348936    -7.021511489631     1.007825032230
      Gh(H)          -0.000013179725     1.316653348936    -3.023028489631     1.007825032230
      Gh(C)           2.478112820275     1.294738348936    -4.420420489631    12.000000000000
      Gh(H)           2.490587820275     1.322083348936    -3.330167489631     1.007825032230
      Gh(H)           2.967023820275     0.381292348936    -4.767596489631     1.007825032230
      Gh(H)           3.001423820275     2.170221348936    -4.811892489631     1.007825032230
      Gh(H)          -2.857363179725     2.383107348936    -4.497498489631     1.007825032230
      Gh(H)          -3.082683179725     0.690952348936    -5.030603489631     1.007825032230
      Gh(H)          -2.518132179725     1.034052348936    -3.377591489631     1.007825032230
         C           -3.668445443746     7.695098519018     0.413602551705    12.000000000000
         C           -4.847602899072     7.022588180276     0.411235976772    12.000000000000
         C           -4.894963478901     5.587676752467     0.410663065674    12.000000000000
         C           -3.653744858499     4.872076689895     0.418323507404    12.000000000000
         C           -2.409429301220     7.005327385610     0.413796893965    12.000000000000
         C           -2.425481523830     5.572468299839     0.406792005095    12.000000000000
         C           -1.194748196161     7.677490543245     0.415269074507    12.000000000000
         C            0.037954849212     6.990767994693     0.413098370202    12.000000000000
         C            0.030328407694     5.560835908640     0.407614985286    12.000000000000
         C           -1.200988687630     4.860616696851     0.416584719220    12.000000000000
         C            1.277953646089     7.664205792130     0.414474218763    12.000000000000
         C            2.485353904999     6.979043234173     0.412199730858    12.000000000000
         C            2.486124505192     5.546117159176     0.405261981870    12.000000000000
         C            1.254078739919     4.847424462600     0.416889923458    12.000000000000
         C            3.751710411681     7.655258499916     0.412326582238    12.000000000000
         C            4.923561876460     6.970127125926     0.410270101530    12.000000000000
         C            4.955603091600     5.534793812305     0.410109688723    12.000000000000
         C            3.706797354479     4.832556557269     0.415201248893    12.000000000000
         H           -3.658525317484     8.782173768071     0.415287539955     1.007825032230
         H           -1.189217509482     8.765467436296     0.419240950948     1.007825032230
         H            1.284290059161     8.752179784424     0.418633042904     1.007825032230
         H            3.753537907074     8.742381627908     0.413849106554     1.007825032230
         H            5.869954523482     7.505141183591     0.409344734488     1.007825032230
         H           -5.788235887228     7.567648561870     0.409676129416     1.007825032230
         C           -6.091978138422     4.884606362579     0.408790825183    12.000000000000
         C           -6.128665660043     3.473926517734     0.409992002212    12.000000000000
         C           -3.664583919771     3.455528528680     0.407066907595    12.000000000000
         C           -4.894302384424     2.752427124836     0.416235892580    12.000000000000
         C           -2.437339174623     2.738958006020     0.418898686131    12.000000000000
         C           -1.209232037322     3.439233283914     0.405219659339    12.000000000000
         C            1.247137392437     3.426027100365     0.404411052934    12.000000000000
         C            0.015171859844     2.724458188241     0.416095236159    12.000000000000
         C            2.467640992715     2.712636326191     0.416195294282    12.000000000000
         C            3.702545294854     3.416006503360     0.402707333440    12.000000000000
         C            6.144976206658     4.818918715067     0.408876243512    12.000000000000
         C            6.166584179136     3.407930824878     0.411042796948    12.000000000000
         C            4.924605778734     2.699754274290     0.417581543186    12.000000000000
         H            7.089901329916     5.358234115159     0.405114362662     1.007825032230
         H           -7.031045930827     5.434034301793     0.404557610232     1.007825032230
         C           -7.339702220848     2.749757883515     0.408364834771    12.000000000000
         C           -7.364886137784     1.361669720519     0.410130372898    12.000000000000
         C           -4.903508788672     1.335773161096     0.405414108706    12.000000000000
         C           -6.132261332336     0.631285705989     0.417704152689    12.000000000000
         C           -3.676878980242     0.618043491609     0.416041825106    12.000000000000
         C           -2.445660765791     1.320987482198     0.405732114905    12.000000000000
         C           -1.223604861027     0.606670850570     0.417161379436    12.000000000000
         C            0.007633689588     1.308729498173     0.415627033154    12.000000000000
         C            1.231215628021     0.593463039523     0.396800447497    12.000000000000
         C            2.460816920806     1.294638385061     0.416304956388    12.000000000000
         C            3.684426074471     0.578544777148     0.415476170111    12.000000000000
         C            4.918704721813     1.283080910125     0.403074348476    12.000000000000
         C            7.369797898236     2.670828552120     0.409282377156    12.000000000000
         C            7.380158486396     1.282563856791     0.410829060002    12.000000000000
         C            6.139795359397     0.565464972136     0.417157401813    12.000000000000
         H           -8.279194979072     3.298464390060     0.404067282649     1.007825032230
         H            8.315109291754     3.209464445559     0.405071801357     1.007825032230
         C           -8.591760117307     0.616178901980     0.410470800516    12.000000000000
         C           -8.599028783429    -0.741293457293     0.412593925098    12.000000000000
         C           -6.139817318844    -0.782790288218     0.405604583763    12.000000000000
         C           -7.380188291863    -1.499919840646     0.413020645304    12.000000000000
         C           -4.918688659982    -1.500408669094     0.417945081913    12.000000000000
         C           -3.684442475410    -0.795890966800     0.406912841848    12.000000000000
         C           -2.460821219973    -1.511998829889     0.417455928038    12.000000000000
         C           -1.231166192046    -0.810827515945     0.405335549246    12.000000000000
         C           -0.007573805113    -1.526072500475     0.412792073549    12.000000000000
         C            1.223643536163    -0.823929028328     0.422797695498    12.000000000000
         C            2.445666469606    -1.538296940071     0.411047682738    12.000000000000
         C            3.676862523121    -0.835361082620     0.406907098343    12.000000000000
         C            6.132244666694    -0.848632490914     0.405379124131    12.000000000000
         C            4.903514965779    -1.553111171605     0.419220198671    12.000000000000
         C            8.599010668965     0.523950215603     0.410691176146    12.000000000000
         C            8.591741308375    -0.833504518258     0.412427556407    12.000000000000
         C            7.364858584664    -1.578986316670     0.412197379714    12.000000000000
         H           -9.528310151544     1.168193798128     0.409000873551     1.007825032230
         H            9.541406794881     1.065918837380     0.409639143884     1.007825032230
         C           -7.369842089494    -2.888198796998     0.414828853727    12.000000000000
         C           -4.924603288776    -2.917090908405     0.407097221290    12.000000000000
         C           -6.166626675393    -3.625305843890     0.413399061449    12.000000000000
         C           -3.702514539430    -3.633335200185     0.417421290476    12.000000000000
         C           -2.467651164839    -2.929979613868     0.405376652120    12.000000000000
         C           -0.015137653833    -2.941795296464     0.405658240629    12.000000000000
         C           -1.247126020952    -3.643385826627     0.417222194037    12.000000000000
         C            1.209240889918    -3.656568329708     0.419761223828    12.000000000000
         C            2.437331842429    -2.956295389240     0.405621465517    12.000000000000
         C            4.894298164045    -2.969776619350     0.406442205588    12.000000000000
         C            3.664611075316    -3.672873496596     0.419321625529    12.000000000000
         C            6.128634835020    -3.691237708782     0.412667467486    12.000000000000
         C            7.339668484970    -2.967066958435     0.414182693568    12.000000000000
         H           -9.541453290984    -1.283217117729     0.413963341272     1.007825032230
         H            9.528257688346    -1.385572724969     0.413677364168     1.007825032230
         H           -8.315169223574    -3.426803504277     0.419001082257     1.007825032230
         H            8.279150962767    -3.515794440958     0.418522249551     1.007825032230
         C           -6.144998368428    -5.036300923848     0.414725059509    12.000000000000
         C           -3.706787527723    -5.049915365182     0.404904091422    12.000000000000
         C           -4.955594237727    -5.752147624559     0.412871226066    12.000000000000
         C           -2.486125505952    -5.763439225474     0.417843762466    12.000000000000
         C           -1.254062515205    -5.064775701066     0.406668156480    12.000000000000
         C            1.201008394143    -5.077934039257     0.407849280738    12.000000000000
         C           -0.030340854139    -5.778173954203     0.415692480402    12.000000000000
         C            3.653745921603    -5.089397426479     0.408607280486    12.000000000000
         C            2.425488516150    -5.789828286592     0.417984211038    12.000000000000
         C            6.091961438086    -5.101911614451     0.414961694160    12.000000000000
         C            4.894972264885    -5.805002072022     0.413725498330    12.000000000000
         H           -7.089896567766    -5.575653493303     0.419127821191     1.007825032230
         H            7.031051029475    -5.651312187397     0.418541473924     1.007825032230
         C           -4.923549501924    -7.187474750742     0.412316457162    12.000000000000
         C           -2.485346267963    -7.196381728994     0.409806564726    12.000000000000
         C           -3.751690071504    -7.872600808701     0.410001243651    12.000000000000
         C           -0.037953136713    -7.208118525534     0.410022289873    12.000000000000
         C           -1.277960280127    -7.881558035731     0.408037597112    12.000000000000
         C            2.409440141001    -7.222675663067     0.410885490684    12.000000000000
         C            1.194745757428    -7.894839016627     0.408733199803    12.000000000000
         C            4.847616872773    -7.239915761644     0.413392305344    12.000000000000
         C            3.668467426150    -7.912441644008     0.411043870980    12.000000000000
         H           -5.869944530142    -7.722484249106     0.413860494027     1.007825032230
         H            5.788245445663    -7.784985840379     0.414519424826     1.007825032230
         H           -3.753531119175    -8.959725220301     0.408165329222     1.007825032230
         H           -1.284308585620    -8.969529043562     0.403610213253     1.007825032230
         H            1.189217394970    -8.982814271654     0.404640563112     1.007825032230
         H            3.658542435098    -8.999514285118     0.409389329557     1.007825032230

  Charge       = 0
  Multiplicity = 1
  Basis Set: JUN-CC-PVDZ
    Blend: JUN-CC-PVDZ
  Basis Set: (JUN-CC-PVDZ AUX)
    Blend: JUN-CC-PVDZ-JKFIT

    Orbital Energies [Eh]
    ---------------------

    Doubly Occupied:

       1A    -11.264014     2A    -11.263676     3A    -11.263670
       4A    -11.263333     5A    -11.263309     6A    -11.263275
       7A    -11.263119     8A    -11.263101     9A    -11.263086
      10A    -11.262914    11A    -11.262764    12A    -11.262762
      13A    -11.262280    14A    -11.262277    15A    -11.262219
      16A    -11.262201    17A    -11.262143    18A    -11.262118
      19A    -11.262078    20A    -11.262034    21A    -11.262033
      22A    -11.261902    23A    -11.261879    24A    -11.261759
      25A    -11.261747    26A    -11.261728    27A    -11.261722
      28A    -11.261680    29A    -11.261668    30A    -11.261592
      31A    -11.261564    32A    -11.261562    33A    -11.261536
      34A    -11.261535    35A    -11.261516    36A    -11.261489
      37A    -11.261338    38A    -11.261331    39A    -11.261317
      40A    -11.261309    41A    -11.261301    42A    -11.261296
      43A    -11.261288    44A    -11.261274    45A    -11.261271
      46A    -11.261253    47A    -11.261240    48A    -11.261232
      49A    -11.261077    50A    -11.261047    51A    -11.261043
      52A    -11.260970    53A    -11.260965    54A    -11.260897
      55A    -11.259933    56A    -11.259908    57A    -11.259900
      58A    -11.259879    59A    -11.259867    60A    -11.259850
      61A    -11.259304    62A    -11.259271    63A    -11.259269
      64A    -11.259220    65A    -11.259215    66A    -11.259183
      67A    -11.258934    68A    -11.258908    69A    -11.258900
      70A    -11.258880    71A    -11.258868    72A    -11.258853
      73A    -11.254533    74A    -11.254529    75A    -11.254519
      76A    -11.254516    77A    -11.254510    78A    -11.254508
      79A    -11.253670    80A    -11.253658    81A    -11.253655
      82A    -11.253644    83A    -11.253641    84A    -11.253634
      85A    -11.253585    86A    -11.253573    87A    -11.253570
      88A    -11.253560    89A    -11.253556    90A    -11.253549
      91A    -11.253061    92A    -11.253057    93A    -11.253046
      94A    -11.253044    95A    -11.253037    96A    -11.253036
      97A     -1.253946    98A     -1.239003    99A     -1.238982
     100A     -1.220462   101A     -1.220451   102A     -1.215442
     103A     -1.201035   104A     -1.195598   105A     -1.188148
     106A     -1.188129   107A     -1.173758   108A     -1.173757
     109A     -1.155626   110A     -1.155619   111A     -1.152716
     112A     -1.144716   113A     -1.144713   114A     -1.128562
     115A     -1.114710   116A     -1.113157   117A     -1.112488
     118A     -1.112460   119A     -1.111612   120A     -1.088424
     121A     -1.088410   122A     -1.076956   123A     -1.076954
     124A     -1.067610   125A     -1.067579   126A     -1.064967
     127A     -1.046795   128A     -1.046786   129A     -1.040473
     130A     -1.038730   131A     -1.038727   132A     -1.025236
     133A     -1.021388   134A     -1.021325   135A     -1.007172
     136A     -1.006800   137A     -1.003788   138A     -1.000487
     139A     -1.000434   140A     -0.991069   141A     -0.970984
     142A     -0.970933   143A     -0.955878   144A     -0.955820
     145A     -0.905583   146A     -0.905550   147A     -0.905538
     148A     -0.905501   149A     -0.904327   150A     -0.892359
     151A     -0.892300   152A     -0.890355   153A     -0.890301
     154A     -0.889443   155A     -0.872211   156A     -0.869050
     157A     -0.851531   158A     -0.847854   159A     -0.847840
     160A     -0.845589   161A     -0.843007   162A     -0.834553
     163A     -0.834544   164A     -0.828112   165A     -0.828105
     166A     -0.784543   167A     -0.784534   168A     -0.783653
     169A     -0.783635   170A     -0.782281   171A     -0.782257
     172A     -0.782022   173A     -0.766977   174A     -0.760783
     175A     -0.750566   176A     -0.733478   177A     -0.727066
     178A     -0.727038   179A     -0.725072   180A     -0.724532
     181A     -0.724505   182A     -0.718485   183A     -0.713763
     184A     -0.713757   185A     -0.699571   186A     -0.699550
     187A     -0.686118   188A     -0.685946   189A     -0.685939
     190A     -0.682159   191A     -0.682150   192A     -0.678771
     193A     -0.653619   194A     -0.650864   195A     -0.650831
     196A     -0.649802   197A     -0.649793   198A     -0.649554
     199A     -0.640928   200A     -0.640888   201A     -0.640073
     202A     -0.639148   203A     -0.636014   204A     -0.635982
     205A     -0.629127   206A     -0.617772   207A     -0.615293
     208A     -0.615269   209A     -0.608788   210A     -0.608781
     211A     -0.599141   212A     -0.599132   213A     -0.598733
     214A     -0.598586   215A     -0.598575   216A     -0.598031
     217A     -0.595054   218A     -0.595041   219A     -0.594710
     220A     -0.594221   221A     -0.591944   222A     -0.591941
     223A     -0.587380   224A     -0.577786   225A     -0.577771
     226A     -0.575692   227A     -0.575690   228A     -0.573365
     229A     -0.569562   230A     -0.568134   231A     -0.568109
     232A     -0.566739   233A     -0.566732   234A     -0.560902
     235A     -0.558712   236A     -0.558678   237A     -0.558415
     238A     -0.554354   239A     -0.550564   240A     -0.547462
     241A     -0.544277   242A     -0.534997   243A     -0.534979
     244A     -0.533524   245A     -0.533506   246A     -0.528064
     247A     -0.528048   248A     -0.527781   249A     -0.517156
     250A     -0.517126   251A     -0.515351   252A     -0.515348
     253A     -0.509626   254A     -0.509613   255A     -0.498008
     256A     -0.496439   257A     -0.496404   258A     -0.493782
     259A     -0.493769   260A     -0.489416   261A     -0.481435
     262A     -0.477409   263A     -0.477408   264A     -0.473977
     265A     -0.469419   266A     -0.466505   267A     -0.466503
     268A     -0.458798   269A     -0.446669   270A     -0.446613
     271A     -0.441027   272A     -0.440750   273A     -0.440734
     274A     -0.434676   275A     -0.433893   276A     -0.407365
     277A     -0.407341   278A     -0.386393   279A     -0.386351
     280A     -0.385717   281A     -0.385716   282A     -0.383731
     283A     -0.354311   284A     -0.354288   285A     -0.350645
     286A     -0.338087   287A     -0.335578   288A     -0.335489
     289A     -0.332696   290A     -0.332693   291A     -0.307058
     292A     -0.301933   293A     -0.301863   294A     -0.300824
     295A     -0.286155   296A     -0.256453   297A     -0.253478
     298A     -0.253423   299A     -0.204243   300A     -0.204154

  @DF-RHF Final Energy: -3650.34000034957216

   => Energetics <=

    Nuclear Repulsion Energy =          15611.4211649754306563
    One-Electron Energy =              -36072.1503755189187359
    Two-Electron Energy =               16810.3892101939163695
    Total Energy =                      -3650.3400003495735291
 Dipole X            :         -0.0006382            0.0002112           -0.0004271
 Dipole Y            :        123.2172819         -123.2131634            0.0041185
 Dipole Z            :       -466.7976460          466.8063858            0.0087397
 Magnitude           :                                                    0.0096709

    SAPT Results
  --------------------------------------------------------------------------------------------------------
    Electrostatics                -10.90527689 [mEh]      -6.84316456 [kcal/mol]     -28.63180053 [kJ/mol]
      Elst10,r                    -10.90527689 [mEh]      -6.84316456 [kcal/mol]     -28.63180053 [kJ/mol]

    Exchange                        0.40272540 [mEh]       0.25271400 [kcal/mol]       1.05735539 [kJ/mol]
      Exch10                        0.40272540 [mEh]       0.25271400 [kcal/mol]       1.05735539 [kJ/mol]
      Exch10(S^2)                   0.40266425 [mEh]       0.25267563 [kcal/mol]       1.05719486 [kJ/mol]

    Induction                      -8.45564510 [mEh]      -5.30599741 [kcal/mol]     -22.20029316 [kJ/mol]
      Ind20,r                      -8.11021648 [mEh]      -5.08923768 [kcal/mol]     -21.29337045 [kJ/mol]
      Exch-Ind20,r                  0.08362776 [mEh]       0.05247721 [kcal/mol]       0.21956464 [kJ/mol]
      delta HF,r (2)               -0.42905637 [mEh]      -0.26923694 [kcal/mol]      -1.12648736 [kJ/mol]

    Dispersion                     -6.83730147 [mEh]      -4.29047145 [kcal/mol]     -17.95133253 [kJ/mol]
      Disp20                       -6.88587872 [mEh]      -4.32095413 [kcal/mol]     -18.07887208 [kJ/mol]
      Exch-Disp20                   0.04857725 [mEh]       0.03048268 [kcal/mol]       0.12753955 [kJ/mol]
      Disp20 (SS)                  -3.44293936 [mEh]      -2.16047707 [kcal/mol]      -9.03943604 [kJ/mol]
      Disp20 (OS)                  -3.44293936 [mEh]      -2.16047707 [kcal/mol]      -9.03943604 [kJ/mol]
      Exch-Disp20 (SS)              0.03221186 [mEh]       0.02021325 [kcal/mol]       0.08457223 [kJ/mol]
      Exch-Disp20 (OS)              0.01636539 [mEh]       0.01026944 [kcal/mol]       0.04296732 [kJ/mol]

  Total HF                        -18.95819659 [mEh]     -11.89644797 [kcal/mol]     -49.77473830 [kJ/mol]
  Total SAPT0                     -25.79549806 [mEh]     -16.18691941 [kcal/mol]     -67.72607083 [kJ/mol]

  Special recipe for scaled SAPT0 (see Manual):
    Electrostatics sSAPT0         -10.90527689 [mEh]      -6.84316456 [kcal/mol]     -28.63180053 [kJ/mol]
    Exchange sSAPT0                 0.40272540 [mEh]       0.25271400 [kcal/mol]       1.05735539 [kJ/mol]
    Induction sSAPT0               -8.45560700 [mEh]      -5.30597350 [kcal/mol]     -22.20019312 [kJ/mol]
    Dispersion sSAPT0              -6.83727934 [mEh]      -4.29045756 [kcal/mol]     -17.95127442 [kJ/mol]
  Total sSAPT0                    -25.79543783 [mEh]     -16.18688162 [kcal/mol]     -67.72591268 [kJ/mol]
  --------------------------------------------------------------------------------------------------------

*** Psi4 exiting successfully. Buy a developer a beer!
