                               Psi4 1.9 release

  ==> Input File <==

--------------------------------------------------------------------------
memory 64 GB # how much memory is available ! Depends on the nodes/cores !

molecule dimer {
# monomer A
-1 1    # Charge and multiplicity
B -1.977592e-04  2.742729e-04 -3.599966
F  1.123153e-16  1.430594e-17 -2.187181
F  1.147860e+00  6.757812e-01 -4.071107
F  1.191806e-02 -1.332011e+00 -4.070905
F -1.159666e+00  6.560735e-01 -4.070826
--
# monomer B
0 1     # Charge and multiplicity
C   -3.66844126402057      7.80375217008252      0.00190004133558
C   -4.84759871934653      7.13124183134024     -0.00046653359696
C   -4.89495929917518      5.69633040353158     -0.00103944469517
C   -3.65374067877320      4.98073034095895      0.00662099703436
C   -2.40942512149445      7.11398103667468      0.00209438359570
C   -2.42547734410473      5.68112195090346     -0.00491050527438
C   -1.19474401643570      7.78614419430947      0.00356656413763
C   0.03795902893699      7.09942164575698      0.00139585983271
C   0.03033258741920      5.66948955970466     -0.00408752508301
C   -1.20098450790502      4.96927034791531      0.00488220885047
C   1.27795782581485      7.77285944319479      0.00277170839332
C   2.48535808472416      7.08769688523756      0.00049722048857
C   2.48612868491717      5.65477081024076     -0.00644052849921
C   1.25408291964399      4.95607811366431      0.00518741308898
C   3.75171459140595      7.76391215098033      0.00062407186893
C   4.92356605618520      7.07878077698995     -0.00143240883900
C   4.95560727132542      5.64344746336949     -0.00159282164606
C   3.70680153420475      4.94121020833308      0.00349873852374
H   -3.65852113775815      8.89082741913536      0.00358502958574
H   -1.18921332975660      8.87412108735996      0.00753844057883
H   1.28429423888630      8.86083343548850      0.00693053253426
H   3.75354208679975      8.85103527897216      0.00214659618464
H   5.86995870320703      7.61379483465560     -0.00235777588134
H   -5.78823170750226      7.67630221293400     -0.00202638095293
C   -6.09197395869619      4.99326001364347     -0.00291168518608
C   -6.12866148031747      3.58258016879823     -0.00171050815740
C   -3.66457974004527      3.56418217974434     -0.00463560277484
C   -4.89429820469869      2.86108077590057      0.00453338221034
C   -2.43733499489796      2.84761165708481      0.00719617576166
C   -1.20922785759670      3.54788693497833     -0.00648285103018
C   1.24714157216223      3.53468075142962     -0.00729145743546
C   0.01517603956900      2.83311183930540      0.00439272578912
C   2.46764517244071      2.82128997725533      0.00449278391269
C   3.70254947457969      3.52466015442405     -0.00899517692985
C   6.14498038638375      4.92757236613191     -0.00282626685777
C   6.16658835886151      3.51658447594213     -0.00065971342101
C   4.92460995845939      2.80840792535402      0.00587903281610
H   7.08990550964105      5.46688776622306     -0.00658814770723
H   -7.03104175110130      5.54268795285765     -0.00714490013730
C   -7.33969804112295      2.85841153457957     -0.00333767559888
C   -7.36488195805880      1.47032337158330     -0.00157213747140
C   -4.90350460894690      1.44442681216000     -0.00628840166334
C   -6.13225715261081      0.73993935705394      0.00600164231964
C   -3.67687480051673      0.72669714267312      0.00433931473643
C   -2.44565658606518      1.42964113326212     -0.00597039546461
C   -1.22360068130162      0.71532450163492      0.00545886906656
C   0.00763786931376      1.41738314923765      0.00392452278437
C   1.23121980774686      0.70211669058719     -0.01490206287210
C   2.46082110053113      1.40329203612573      0.00460244601878
C   3.68443025419614      0.68719842821222      0.00377365974158
C   4.91870890153864      1.39173456118907     -0.00862816189375
C   7.36980207796101      2.77948220318441     -0.00242013321349
C   7.38016266612146      1.39121750785509     -0.00087345036788
C   6.13979953912259      0.67411862320065      0.00545489144369
H   -8.27919079934664      3.40711804112415     -0.00763522772059
H   8.31511347147953      3.31811809662368     -0.00663070901292
C   -8.59175593758115      0.72483255304480     -0.00123170985383
C   -8.59902460370342     -0.63263980622873      0.00089141472904
C   -6.13981313911873     -0.67413663715361     -0.00609792660607
C   -7.38018411213749     -1.39126618958160      0.00131813493501
C   -4.91868448025621     -1.39175501803000      0.00624257154343
C   -3.68443829568458     -0.68723731573599     -0.00478966852105
C   -2.46081704024768     -1.40334517882457      0.00575341766833
C   -1.23116201232071     -0.70217386488055     -0.00636696112346
C   -0.00756962538737     -1.41741884941102      0.00108956317991
C   1.22364771588843     -0.71527537726392      0.01109518512883
C   2.44567064933149     -1.42964328900682     -0.00065482763106
C   3.67686670284649     -0.72670743155550     -0.00479541202602
C   6.13224884641929     -0.73997883984993     -0.00632338623858
C   4.90351914550401     -1.44445752054090      0.00751768830159
C   8.59901484869081      0.63260386666793     -0.00101133422380
C   8.59174548810050     -0.72485086719319      0.00072504603735
C   7.36486276438985     -1.47033266560598      0.00049486934466
H   -9.52830597181814      1.27684744919284     -0.00270163681798
H   9.54141097460619      1.17457248844457     -0.00206336648518
C   -7.36983790976868     -2.77954514593389      0.00312634335708
C   -4.92459910905015     -2.80843725734101     -0.00460528907921
C   -6.16662249566744     -3.51665219282533      0.00169655107992
C   -3.70251035970491     -3.52468154912026      0.00571878010666
C   -2.46764698511392     -2.82132596280400     -0.00632585824990
C   -0.01513347410770     -2.83314164539971     -0.00604426974092
C   -1.24712184122656     -3.53473217556300      0.00551968366725
C   1.20924506964357     -3.54791467864352      0.00805871345849
C   2.43733602215464     -2.84764173817541     -0.00608104485234
C   4.89430234377080     -2.86112296828604     -0.00526030478103
C   3.66461525504104     -3.56421984553201      0.00761911515957
C   6.12863901474565     -3.58258405771778      0.00096495711699
C   7.33967266469532     -2.85841330737039      0.00248018319869
H   -9.54144911125902     -1.17456346666430      0.00226083090216
H   9.52826186807155     -1.27691907390448      0.00197485379837
H   -8.31516504384864     -3.31814985321231      0.00729857188773
H   8.27915514249207     -3.40714078989363      0.00681973918158
C   -6.14499418870218     -4.92764727278338      0.00302254913999
C   -3.70678334799751     -4.94126171411716     -0.00679841894792
C   -4.95559005800169     -5.64349397349412      0.00116871569699
C   -2.48612132622665     -5.65478557440947      0.00614125209662
C   -1.25405833548005     -4.95612205000132     -0.00503435388927
C   1.20101257386816     -4.96928038819302     -0.00385322963129
C   -0.03033667441341     -5.66952030313900      0.00398997003238
C   3.65375010132847     -4.98074377541453     -0.00309522988330
C   2.42549269587528     -5.68117463552727      0.00628170066869
C   6.09196561781097     -4.99325796338655      0.00325918379042
C   4.89497644461045     -5.69634842095790      0.00202298796027
H   -7.08989238804069     -5.46699984223871      0.00742531082125
H   7.03105520920009     -5.54265853633254      0.00683896355417
C   -4.92354532219813     -7.07882109967734      0.00061394679214
C   -2.48534208823777     -7.08772807792913     -0.00189594564379
C   -3.75168589177895     -7.76394715763627     -0.00170126671874
C   -0.03794895698805     -7.09946487446944     -0.00168022049625
C   -1.27795610040136     -7.77290438466689     -0.00366491325785
C   2.40944432072629     -7.11402201200282     -0.00081701968533
C   1.19474993715296     -7.78618536556242     -0.00296931056689
C   4.84762105249800     -7.13126211057943      0.00168979497423
C   3.66847160587561     -7.80378799294376     -0.00065863938960
H   -5.86994035041618     -7.61383059804164      0.00215798365757
H   5.78824962538815     -7.67633218931421      0.00281691445618
H   -3.75352693944918     -8.85107156923607     -0.00353718114765
H   -1.28430440589466     -8.86087539249706     -0.00809229711623
H   1.18922157469537     -8.87416062058945     -0.00706194725726
H   3.65854661482387     -8.89086063405326     -0.00231318081200

    units angstrom      # Angstroms are the default
    no_reorient         # Geometry fixed, default
    symmetry c1         # C1 symmetry, default
}

set {
    scf_type DF         # Density fitting, faster than exact integrals
    freeze_core True    # Freeze core electrons
    basis jun-cc-pVDZ   # Jun-cc-pVDZ basis set, recommended for sSAPT0 in https://doi.org/10.1063/1.4867135
}

energy('ssapt0')        # Compute sSAPT0 energy, includes also SAPT0
--------------------------------------------------------------------------

  //              Dimer HF             //
    Molecular point group: c1
  Charge       = -1
  Multiplicity = 1
  Basis Set: JUN-CC-PVDZ
    Blend: JUN-CC-PVDZ
  Basis Set: (JUN-CC-PVDZ AUX)
    Blend: JUN-CC-PVDZ-JKFIT
  @DF-RHF Final Energy: -4073.09789765779260
    Total Energy =                      -4073.0978976577935100
 Dipole X            :          0.0006446           -0.0000548            0.0005898
 Dipole Y            :          0.0007460           -0.0002464            0.0004996
 Dipole Z            :        -16.6855716           21.4237031            4.7381315
 Magnitude           :                                                    4.7381316
  //            Monomer A HF           //
    Molecular point group: c1
  Multiplicity = 1
  Basis Set: JUN-CC-PVDZ
    Blend: JUN-CC-PVDZ
  Basis Set: (JUN-CC-PVDZ AUX)
    Blend: JUN-CC-PVDZ-JKFIT
  @DF-RHF Final Energy:  -422.77379420951422
    Total Energy =                       -422.7737942095142216
  //            Monomer B HF           //
    Molecular point group: c1

    Geometry (in Angstrom), charge = 0, multiplicity = 1:

       Center              X                  Y                   Z               Mass
    ------------   -----------------  -----------------  -----------------  -----------------
      Gh(B)          -0.000201921932     0.000288800891    -3.352017261285    11.009305360000
      Gh(F)          -0.000004162732     0.000014527991    -1.939232261285    18.998403162730
      Gh(F)           1.147855837268     0.675795727991    -3.823158261285    18.998403162730
      Gh(F)           0.011913897268    -1.331996472009    -3.822956261285    18.998403162730
      Gh(F)          -1.159670162732     0.656088027991    -3.822877261285    18.998403162730
         C           -3.668445426752     7.803766698073     0.249848780050    12.000000000000
         C           -4.847602882078     7.131256359331     0.247482205118    12.000000000000
         C           -4.894963461907     5.696344931522     0.246909294020    12.000000000000
         C           -3.653744841505     4.980744868950     0.254569735749    12.000000000000
         C           -2.409429284226     7.113995564665     0.250043122310    12.000000000000
         C           -2.425481506836     5.681136478894     0.243038233440    12.000000000000
         C           -1.194748179167     7.786158722300     0.251515302852    12.000000000000
         C            0.037954866205     7.099436173748     0.249344598547    12.000000000000
         C            0.030328424687     5.669504087695     0.243861213632    12.000000000000
         C           -1.200988670637     4.969284875906     0.252830947565    12.000000000000
         C            1.277953663083     7.772873971185     0.250720447108    12.000000000000
         C            2.485353921992     7.087711413228     0.248445959203    12.000000000000
         C            2.486124522185     5.654785338231     0.241508210215    12.000000000000
         C            1.254078756912     4.956092641655     0.253136151804    12.000000000000
         C            3.751710428674     7.763926678971     0.248572810584    12.000000000000
         C            4.923561893453     7.078795304981     0.246516329876    12.000000000000
         C            4.955603108594     5.643461991360     0.246355917069    12.000000000000
         C            3.706797371473     4.941224736324     0.251447477238    12.000000000000
         H           -3.658525300490     8.890841947126     0.251533768300     1.007825032230
         H           -1.189217492488     8.874135615351     0.255487179294     1.007825032230
         H            1.284290076155     8.860847963479     0.254879271249     1.007825032230
         H            3.753537924068     8.851049806963     0.250095334899     1.007825032230
         H            5.869954540475     7.613809362646     0.245590962833     1.007825032230
         H           -5.788235870234     7.676316740925     0.245922357762     1.007825032230
         C           -6.091978121428     4.993274541634     0.245037053529    12.000000000000
         C           -6.128665643049     3.582594696789     0.246238230557    12.000000000000
         C           -3.664583902777     3.564196707735     0.243313135940    12.000000000000
         C           -4.894302367430     2.861095303891     0.252482120925    12.000000000000
         C           -2.437339157630     2.847626185075     0.255144914476    12.000000000000
         C           -1.209232020328     3.547901462969     0.241465887684    12.000000000000
         C            1.247137409430     3.534695279420     0.240657281279    12.000000000000
         C            0.015171876837     2.833126367296     0.252341464504    12.000000000000
         C            2.467641009709     2.821304505246     0.252441522627    12.000000000000
         C            3.702545311848     3.524674682415     0.238953561785    12.000000000000
         C            6.144976223652     4.927586894122     0.245122471857    12.000000000000
         C            6.166584196130     3.516599003933     0.247289025294    12.000000000000
         C            4.924605795728     2.808422453345     0.253827771531    12.000000000000
         H            7.089901346909     5.466902294214     0.241360591007     1.007825032230
         H           -7.031045913833     5.542702480848     0.240803838577     1.007825032230
         C           -7.339702203855     2.858426062570     0.244611063116    12.000000000000
         C           -7.364886120791     1.470337899574     0.246376601243    12.000000000000
         C           -4.903508771679     1.444441340151     0.241660337051    12.000000000000
         C           -6.132261315343     0.739953885044     0.253950381034    12.000000000000
         C           -3.676878963248     0.726711670664     0.252288053451    12.000000000000
         C           -2.445660748797     1.429655661253     0.241978343250    12.000000000000
         C           -1.223604844033     0.715339029625     0.253407607781    12.000000000000
         C            0.007633706582     1.417397677228     0.251873261499    12.000000000000
         C            1.231215645015     0.702131218578     0.233046675843    12.000000000000
         C            2.460816937799     1.403306564116     0.252551184733    12.000000000000
         C            3.684426091464     0.687212956203     0.251722398456    12.000000000000
         C            4.918704738807     1.391749089180     0.239320576821    12.000000000000
         C            7.369797915229     2.779496731175     0.245528605501    12.000000000000
         C            7.380158503390     1.391232035846     0.247075288347    12.000000000000
         C            6.139795376391     0.674133151191     0.253403630158    12.000000000000
         H           -8.279194962078     3.407132569115     0.240313510994     1.007825032230
         H            8.315109308748     3.318132624614     0.241318029702     1.007825032230
         C           -8.591760100313     0.724847081035     0.246717028861    12.000000000000
         C           -8.599028766435    -0.632625278238     0.248840153444    12.000000000000
         C           -6.139817301850    -0.674122109163     0.241850812109    12.000000000000
         C           -7.380188274869    -1.391251661591     0.249266873650    12.000000000000
         C           -4.918688642988    -1.391740490039     0.254191310258    12.000000000000
         C           -3.684442458416    -0.687222787745     0.243159070194    12.000000000000
         C           -2.460821202979    -1.403330650834     0.253702156383    12.000000000000
         C           -1.231166175052    -0.702159336890     0.241581777591    12.000000000000
         C           -0.007573788119    -1.417404321420     0.249038301895    12.000000000000
         C            1.223643553157    -0.715260849273     0.259043923844    12.000000000000
         C            2.445666486600    -1.429628761016     0.247293911084    12.000000000000
         C            3.676862540115    -0.726692903565     0.243153326689    12.000000000000
         C            6.132244683688    -0.739964311859     0.241625352476    12.000000000000
         C            4.903514982772    -1.444442992550     0.255466427016    12.000000000000
         C            8.599010685959     0.632618394658     0.246937404491    12.000000000000
         C            8.591741325369    -0.724836339203     0.248673784752    12.000000000000
         C            7.364858601658    -1.470318137615     0.248443608059    12.000000000000
         H           -9.528310134550     1.276861977183     0.245247101897     1.007825032230
         H            9.541406811874     1.174587016435     0.245885372229     1.007825032230
         C           -7.369842072500    -2.779530617943     0.251075082072    12.000000000000
         C           -4.924603271782    -2.808422729350     0.243343449635    12.000000000000
         C           -6.166626658399    -3.516637664835     0.249645289795    12.000000000000
         C           -3.702514522437    -3.524667021130     0.253667518821    12.000000000000
         C           -2.467651147846    -2.821311434813     0.241622880465    12.000000000000
         C           -0.015137636839    -2.833127117409     0.241904468974    12.000000000000
         C           -1.247126003958    -3.534717647572     0.253468422382    12.000000000000
         C            1.209240906912    -3.547900150653     0.256007452173    12.000000000000
         C            2.437331859423    -2.847627210185     0.241867693862    12.000000000000
         C            4.894298181039    -2.861108440295     0.242688433934    12.000000000000
         C            3.664611092309    -3.564205317541     0.255567853874    12.000000000000
         C            6.128634852014    -3.582569529727     0.248913695832    12.000000000000
         C            7.339668501964    -2.858398779380     0.250428921913    12.000000000000
         H           -9.541453273991    -1.174548938674     0.250209569617     1.007825032230
         H            9.528257705340    -1.276904545914     0.249923592513     1.007825032230
         H           -8.315169206580    -3.318135325222     0.255247310602     1.007825032230
         H            8.279150979760    -3.407126261903     0.254768477896     1.007825032230
         C           -6.144998351434    -4.927632744793     0.250971287855    12.000000000000
         C           -3.706787510729    -4.941247186127     0.241150319767    12.000000000000
         C           -4.955594220733    -5.643479445504     0.249117454412    12.000000000000
         C           -2.486125488958    -5.654771046419     0.254089990811    12.000000000000
         C           -1.254062498212    -4.956107522011     0.242914384825    12.000000000000
         C            1.201008411136    -4.969265860202     0.244095509083    12.000000000000
         C           -0.030340837145    -5.669505775148     0.251938708747    12.000000000000
         C            3.653745938597    -4.980729247424     0.244853508831    12.000000000000
         C            2.425488533144    -5.681160107537     0.254230439383    12.000000000000
         C            6.091961455079    -4.993243435396     0.251207922505    12.000000000000
         C            4.894972281879    -5.696333892967     0.249971726675    12.000000000000
         H           -7.089896550772    -5.466985314248     0.255374049536     1.007825032230
         H            7.031051046468    -5.542644008342     0.254787702269     1.007825032230
         C           -4.923549484930    -7.078806571687     0.248562685507    12.000000000000
         C           -2.485346250970    -7.087713549939     0.246052793071    12.000000000000
         C           -3.751690054511    -7.763932629646     0.246247471996    12.000000000000
         C           -0.037953119720    -7.099450346479     0.246268518218    12.000000000000
         C           -1.277960263133    -7.772889856676     0.244283825457    12.000000000000
         C            2.409440157995    -7.114007484012     0.247131719029    12.000000000000
         C            1.194745774421    -7.786170837572     0.244979428148    12.000000000000
         C            4.847616889766    -7.131247582589     0.249638533689    12.000000000000
         C            3.668467443144    -7.803773464953     0.247290099325    12.000000000000
         H           -5.869944513148    -7.613816070051     0.250106722372     1.007825032230
         H            5.788245462656    -7.676317661324     0.250765653171     1.007825032230
         H           -3.753531102181    -8.851057041246     0.244411557567     1.007825032230
         H           -1.284308568626    -8.860860864507     0.239856441598     1.007825032230
         H            1.189217411964    -8.874146092599     0.240886791457     1.007825032230
         H            3.658542452092    -8.890846106063     0.245635557903     1.007825032230

  Charge       = 0
  Multiplicity = 1
  Basis Set: JUN-CC-PVDZ
    Blend: JUN-CC-PVDZ
  Basis Set: (JUN-CC-PVDZ AUX)
    Blend: JUN-CC-PVDZ-JKFIT

    Orbital Energies [Eh]
    ---------------------

    Doubly Occupied:

       1A    -11.264118     2A    -11.263751     3A    -11.263740
       4A    -11.263311     5A    -11.263308     6A    -11.263274
       7A    -11.263133     8A    -11.263129     9A    -11.263118
      10A    -11.262889    11A    -11.262769    12A    -11.262764
      13A    -11.262272    14A    -11.262268    15A    -11.262255
      16A    -11.262252    17A    -11.262135    18A    -11.262133
      19A    -11.262080    20A    -11.262043    21A    -11.262040
      22A    -11.261938    23A    -11.261934    24A    -11.261774
      25A    -11.261769    26A    -11.261746    27A    -11.261738
      28A    -11.261704    29A    -11.261695    30A    -11.261601
      31A    -11.261584    32A    -11.261578    33A    -11.261576
      34A    -11.261546    35A    -11.261544    36A    -11.261521
      37A    -11.261353    38A    -11.261345    39A    -11.261339
      40A    -11.261334    41A    -11.261328    42A    -11.261325
      43A    -11.261308    44A    -11.261290    45A    -11.261286
      46A    -11.261264    47A    -11.261261    48A    -11.261255
      49A    -11.261071    50A    -11.261037    51A    -11.261034
      52A    -11.260954    53A    -11.260953    54A    -11.260895
      55A    -11.259941    56A    -11.259928    57A    -11.259926
      58A    -11.259896    59A    -11.259894    60A    -11.259878
      61A    -11.259313    62A    -11.259288    63A    -11.259285
      64A    -11.259233    65A    -11.259230    66A    -11.259201
      67A    -11.258944    68A    -11.258926    69A    -11.258924
      70A    -11.258896    71A    -11.258894    72A    -11.258882
      73A    -11.254547    74A    -11.254546    75A    -11.254541
      76A    -11.254541    77A    -11.254540    78A    -11.254540
      79A    -11.253676    80A    -11.253676    81A    -11.253673
      82A    -11.253672    83A    -11.253670    84A    -11.253668
      85A    -11.253592    86A    -11.253591    87A    -11.253589
      88A    -11.253587    89A    -11.253585    90A    -11.253583
      91A    -11.253075    92A    -11.253074    93A    -11.253069
      94A    -11.253069    95A    -11.253068    96A    -11.253067
      97A     -1.253959    98A     -1.239017    99A     -1.239016
     100A     -1.220488   101A     -1.220483   102A     -1.215462
     103A     -1.201067   104A     -1.195629   105A     -1.188152
     106A     -1.188150   107A     -1.173789   108A     -1.173786
     109A     -1.155644   110A     -1.155640   111A     -1.152744
     112A     -1.144747   113A     -1.144744   114A     -1.128589
     115A     -1.114731   116A     -1.113189   117A     -1.112497
     118A     -1.112483   119A     -1.111643   120A     -1.088448
     121A     -1.088433   122A     -1.076985   123A     -1.076984
     124A     -1.067631   125A     -1.067601   126A     -1.064998
     127A     -1.046825   128A     -1.046817   129A     -1.040501
     130A     -1.038758   131A     -1.038757   132A     -1.025252
     133A     -1.021404   134A     -1.021354   135A     -1.007205
     136A     -1.006835   137A     -1.003815   138A     -1.000504
     139A     -1.000456   140A     -0.991097   141A     -0.971011
     142A     -0.970963   143A     -0.955904   144A     -0.955848
     145A     -0.905605   146A     -0.905573   147A     -0.905563
     148A     -0.905533   149A     -0.904360   150A     -0.892389
     151A     -0.892330   152A     -0.890379   153A     -0.890322
     154A     -0.889474   155A     -0.872241   156A     -0.869078
     157A     -0.851561   158A     -0.847889   159A     -0.847868
     160A     -0.845610   161A     -0.843039   162A     -0.834587
     163A     -0.834574   164A     -0.828138   165A     -0.828135
     166A     -0.784570   167A     -0.784559   168A     -0.783677
     169A     -0.783651   170A     -0.782309   171A     -0.782289
     172A     -0.782058   173A     -0.767015   174A     -0.760818
     175A     -0.750582   176A     -0.733505   177A     -0.727093
     178A     -0.727080   179A     -0.725103   180A     -0.724563
     181A     -0.724545   182A     -0.718497   183A     -0.713792
     184A     -0.713786   185A     -0.699594   186A     -0.699582
     187A     -0.686145   188A     -0.685979   189A     -0.685976
     190A     -0.682196   191A     -0.682186   192A     -0.678782
     193A     -0.653640   194A     -0.650891   195A     -0.650861
     196A     -0.649828   197A     -0.649812   198A     -0.649589
     199A     -0.640946   200A     -0.640919   201A     -0.640109
     202A     -0.639184   203A     -0.636033   204A     -0.636006
     205A     -0.629163   206A     -0.617744   207A     -0.615324
     208A     -0.615304   209A     -0.608823   210A     -0.608816
     211A     -0.599122   212A     -0.599087   213A     -0.598764
     214A     -0.598627   215A     -0.598602   216A     -0.598043
     217A     -0.595087   218A     -0.595074   219A     -0.594738
     220A     -0.594244   221A     -0.591971   222A     -0.591968
     223A     -0.587400   224A     -0.577814   225A     -0.577805
     226A     -0.575665   227A     -0.575661   228A     -0.573401
     229A     -0.569602   230A     -0.568158   231A     -0.568135
     232A     -0.566770   233A     -0.566760   234A     -0.560932
     235A     -0.558731   236A     -0.558712   237A     -0.558445
     238A     -0.554384   239A     -0.550562   240A     -0.547493
     241A     -0.544272   242A     -0.535013   243A     -0.534976
     244A     -0.533551   245A     -0.533530   246A     -0.528096
     247A     -0.528081   248A     -0.527803   249A     -0.517174
     250A     -0.517140   251A     -0.515361   252A     -0.515355
     253A     -0.509661   254A     -0.509645   255A     -0.498046
     256A     -0.496466   257A     -0.496439   258A     -0.493766
     259A     -0.493754   260A     -0.489452   261A     -0.481469
     262A     -0.477428   263A     -0.477425   264A     -0.474011
     265A     -0.469457   266A     -0.466542   267A     -0.466537
     268A     -0.458794   269A     -0.446697   270A     -0.446637
     271A     -0.441028   272A     -0.440788   273A     -0.440763
     274A     -0.434697   275A     -0.433916   276A     -0.407372
     277A     -0.407348   278A     -0.386390   279A     -0.386342
     280A     -0.385745   281A     -0.385743   282A     -0.383745
     283A     -0.354339   284A     -0.354323   285A     -0.350652
     286A     -0.338053   287A     -0.335602   288A     -0.335532
     289A     -0.332721   290A     -0.332714   291A     -0.307054
     292A     -0.301915   293A     -0.301852   294A     -0.300860
     295A     -0.286169   296A     -0.256479   297A     -0.253484
     298A     -0.253431   299A     -0.204262   300A     -0.204173

  @DF-RHF Final Energy: -3650.33963931214839

   => Energetics <=

    Nuclear Repulsion Energy =          15611.4211649754324753
    One-Electron Energy =              -36072.1365873094327981
    Two-Electron Energy =               16810.3757830218528397
    Total Energy =                      -3650.3396393121474830
 Dipole X            :          0.0001175            0.0002304            0.0003480
 Dipole Y            :          0.0013843           -0.0013052            0.0000791
 Dipole Z            :       -281.1336123          281.1365175            0.0029052
 Magnitude           :                                                    0.0029270

    SAPT Results
  --------------------------------------------------------------------------------------------------------
    Electrostatics                 -6.89309343 [mEh]      -4.32548143 [kcal/mol]     -18.09781430 [kJ/mol]
      Elst10,r                     -6.89309343 [mEh]      -4.32548143 [kcal/mol]     -18.09781430 [kJ/mol]

    Exchange                       45.56455710 [mEh]      28.59219125 [kcal/mol]     119.62972817 [kJ/mol]
      Exch10                       45.56455710 [mEh]      28.59219125 [kcal/mol]     119.62972817 [kJ/mol]
      Exch10(S^2)                  45.33948046 [mEh]      28.45095353 [kcal/mol]     119.03878955 [kJ/mol]

    Induction                     -23.13559980 [mEh]     -14.51780806 [kcal/mol]     -60.74250891 [kJ/mol]
      Ind20,r                     -35.89243141 [mEh]     -22.52284075 [kcal/mol]     -94.23556569 [kJ/mol]
      Exch-Ind20,r                 15.38157263 [mEh]       9.65208255 [kcal/mol]      40.38431338 [kJ/mol]
      delta HF,r (2)               -2.62474102 [mEh]      -1.64704985 [kcal/mol]      -6.89125659 [kJ/mol]

    Dispersion                    -15.45651131 [mEh]      -9.69910728 [kcal/mol]     -40.58106485 [kJ/mol]
      Disp20                      -19.71142571 [mEh]     -12.36910638 [kcal/mol]     -51.75234107 [kJ/mol]
      Exch-Disp20                   4.25491440 [mEh]       2.66999910 [kcal/mol]      11.17127623 [kJ/mol]
      Disp20 (SS)                  -9.85571286 [mEh]      -6.18455319 [kcal/mol]     -25.87617054 [kJ/mol]
      Disp20 (OS)                  -9.85571286 [mEh]      -6.18455319 [kcal/mol]     -25.87617054 [kJ/mol]
      Exch-Disp20 (SS)              2.34084345 [mEh]       1.46890144 [kcal/mol]       6.14588364 [kJ/mol]
      Exch-Disp20 (OS)              1.91407095 [mEh]       1.20109765 [kcal/mol]       5.02539258 [kJ/mol]

  Total HF                         15.53586387 [mEh]       9.74890176 [kcal/mol]      40.78940497 [kJ/mol]
  Total SAPT0                       0.07935256 [mEh]       0.04979448 [kcal/mol]       0.20834012 [kJ/mol]

  Special recipe for scaled SAPT0 (see Manual):
    Electrostatics sSAPT0          -6.89309343 [mEh]      -4.32548143 [kcal/mol]     -18.09781430 [kJ/mol]
    Exchange sSAPT0                45.56455710 [mEh]      28.59219125 [kcal/mol]     119.62972817 [kJ/mol]
    Induction sSAPT0              -22.90538670 [mEh]     -14.37334715 [kcal/mol]     -60.13808449 [kJ/mol]
    Dispersion sSAPT0             -15.39282881 [mEh]      -9.65914590 [kcal/mol]     -40.41386646 [kJ/mol]
  Total sSAPT0                      0.37324817 [mEh]       0.23421676 [kcal/mol]       0.97996292 [kJ/mol]
  --------------------------------------------------------------------------------------------------------

*** Psi4 exiting successfully. Buy a developer a beer!
