                         Program Version 5.0.3 -  RELEASE  -
|  1> ! RIJCOSX CHELPG autoaux TIGHTSCF HF
|  2> %basis
|  3>  GTOName "jun-cc-pvdz.basis"
|  4> end
|  5> %maxcore 3000
|  6> %pal
|  7>  nprocs 16
|  8> end
|  9> *xyzfile -1 1 opt_aligned.xyz
| 10>
| 11>                          ****END OF INPUT****

CARTESIAN COORDINATES (ANGSTROEM)
---------------------------------
  B     -0.000198    0.000274    0.000034
  F      0.000000    0.000000    1.412819
  F      1.147860    0.675781   -0.471107
  F      0.011918   -1.332011   -0.470905
  F     -1.159666    0.656073   -0.470826

 Total Charge           Charge          ....   -1
 Multiplicity           Mult            ....    1
 Number of Electrons    NEL             ....   42
 Basis Dimension        Dim             ....   90

ORBITAL ENERGIES
----------------

  NO   OCC          E(Eh)            E(eV)
   0   2.0000     -26.067029      -709.3199
   1   2.0000     -26.067016      -709.3196
   2   2.0000     -26.066951      -709.3178
   3   2.0000     -26.066919      -709.3169
   4   2.0000      -7.539149      -205.1507
   5   2.0000      -1.410936       -38.3935
   6   2.0000      -1.351227       -36.7688
   7   2.0000      -1.351166       -36.7671
   8   2.0000      -1.351040       -36.7637
   9   2.0000      -0.602232       -16.3876
  10   2.0000      -0.528454       -14.3800
  11   2.0000      -0.528439       -14.3796
  12   2.0000      -0.528371       -14.3777
  13   2.0000      -0.447316       -12.1721
  14   2.0000      -0.447278       -12.1711
  15   2.0000      -0.408475       -11.1152
  16   2.0000      -0.408442       -11.1143
  17   2.0000      -0.408304       -11.1105
  18   2.0000      -0.385057       -10.4779
  19   2.0000      -0.384905       -10.4738
  20   2.0000      -0.384835       -10.4719
  21   0.0000       0.183918         5.0047
  22   0.0000       0.183919         5.0047
  23   0.0000       0.183922         5.0048
  24   0.0000       0.211759         5.7623
  25   0.0000       0.388490        10.5713

MULLIKEN ATOMIC CHARGES
-----------------------
   0 B :    1.292726
   1 F :   -0.573070
   2 F :   -0.573286
   3 F :   -0.573245
   4 F :   -0.573125
Sum of atomic charges:   -1.0000000

LOEWDIN ATOMIC CHARGES
----------------------
   0 B :   -0.186248
   1 F :   -0.203243
   2 F :   -0.203469
   3 F :   -0.203687
   4 F :   -0.203354

  Mayer bond orders larger than 0.100000
B(  0-B ,  1-F ) :   0.6511 B(  0-B ,  2-F ) :   0.6500 B(  0-B ,  3-F ) :   0.6506
B(  0-B ,  4-F ) :   0.6500 B(  1-F ,  2-F ) :   0.1220 B(  1-F ,  3-F ) :   0.1218
B(  1-F ,  4-F ) :   0.1220 B(  2-F ,  3-F ) :   0.1217 B(  2-F ,  4-F ) :   0.1220
B(  3-F ,  4-F ) :   0.1217

FINAL SINGLE POINT ENERGY      -422.771660963814

DIPOLE MOMENT
-------------
                                X             Y             Z
Electronic contribution:     -0.00073       0.00137       0.00082
Nuclear contribution   :      0.00005      -0.00006      -0.00001
                        -----------------------------------------
Total Dipole Moment    :     -0.00068       0.00131       0.00081
                        -----------------------------------------
Magnitude (a.u.)       :      0.00168
Magnitude (Debye)      :      0.00427

Rotational constants in cm-1:     0.166725     0.166670     0.166649
Rotational constants in MHz :  4998.290064  4996.646843  4995.999746

                             ****ORCA TERMINATED NORMALLY****
TOTAL RUN TIME: 0 days 0 hours 0 minutes 36 seconds 838 msec
