                               Psi4 1.9 release

  ==> Input File <==

--------------------------------------------------------------------------
memory 47 GB # how much memory is available ! Depends on the nodes/cores !

molecule dimer {
# monomer A
-1 1    # Charge and multiplicity
B -1.977592e-04  2.742729e-04 7.200034
F  1.123153e-16  1.430594e-17 8.612819
F  1.147860e+00  6.757812e-01 6.728893
F  1.191806e-02 -1.332011e+00 6.729095
F -1.159666e+00  6.560735e-01 6.729174
--
# monomer B
0 1     # Charge and multiplicity
C   -3.66844126402057      7.80375217008252      0.00190004133558
C   -4.84759871934653      7.13124183134024     -0.00046653359696
C   -4.89495929917518      5.69633040353158     -0.00103944469517
C   -3.65374067877320      4.98073034095895      0.00662099703436
C   -2.40942512149445      7.11398103667468      0.00209438359570
C   -2.42547734410473      5.68112195090346     -0.00491050527438
C   -1.19474401643570      7.78614419430947      0.00356656413763
C   0.03795902893699      7.09942164575698      0.00139585983271
C   0.03033258741920      5.66948955970466     -0.00408752508301
C   -1.20098450790502      4.96927034791531      0.00488220885047
C   1.27795782581485      7.77285944319479      0.00277170839332
C   2.48535808472416      7.08769688523756      0.00049722048857
C   2.48612868491717      5.65477081024076     -0.00644052849921
C   1.25408291964399      4.95607811366431      0.00518741308898
C   3.75171459140595      7.76391215098033      0.00062407186893
C   4.92356605618520      7.07878077698995     -0.00143240883900
C   4.95560727132542      5.64344746336949     -0.00159282164606
C   3.70680153420475      4.94121020833308      0.00349873852374
H   -3.65852113775815      8.89082741913536      0.00358502958574
H   -1.18921332975660      8.87412108735996      0.00753844057883
H   1.28429423888630      8.86083343548850      0.00693053253426
H   3.75354208679975      8.85103527897216      0.00214659618464
H   5.86995870320703      7.61379483465560     -0.00235777588134
H   -5.78823170750226      7.67630221293400     -0.00202638095293
C   -6.09197395869619      4.99326001364347     -0.00291168518608
C   -6.12866148031747      3.58258016879823     -0.00171050815740
C   -3.66457974004527      3.56418217974434     -0.00463560277484
C   -4.89429820469869      2.86108077590057      0.00453338221034
C   -2.43733499489796      2.84761165708481      0.00719617576166
C   -1.20922785759670      3.54788693497833     -0.00648285103018
C   1.24714157216223      3.53468075142962     -0.00729145743546
C   0.01517603956900      2.83311183930540      0.00439272578912
C   2.46764517244071      2.82128997725533      0.00449278391269
C   3.70254947457969      3.52466015442405     -0.00899517692985
C   6.14498038638375      4.92757236613191     -0.00282626685777
C   6.16658835886151      3.51658447594213     -0.00065971342101
C   4.92460995845939      2.80840792535402      0.00587903281610
H   7.08990550964105      5.46688776622306     -0.00658814770723
H   -7.03104175110130      5.54268795285765     -0.00714490013730
C   -7.33969804112295      2.85841153457957     -0.00333767559888
C   -7.36488195805880      1.47032337158330     -0.00157213747140
C   -4.90350460894690      1.44442681216000     -0.00628840166334
C   -6.13225715261081      0.73993935705394      0.00600164231964
C   -3.67687480051673      0.72669714267312      0.00433931473643
C   -2.44565658606518      1.42964113326212     -0.00597039546461
C   -1.22360068130162      0.71532450163492      0.00545886906656
C   0.00763786931376      1.41738314923765      0.00392452278437
C   1.23121980774686      0.70211669058719     -0.01490206287210
C   2.46082110053113      1.40329203612573      0.00460244601878
C   3.68443025419614      0.68719842821222      0.00377365974158
C   4.91870890153864      1.39173456118907     -0.00862816189375
C   7.36980207796101      2.77948220318441     -0.00242013321349
C   7.38016266612146      1.39121750785509     -0.00087345036788
C   6.13979953912259      0.67411862320065      0.00545489144369
H   -8.27919079934664      3.40711804112415     -0.00763522772059
H   8.31511347147953      3.31811809662368     -0.00663070901292
C   -8.59175593758115      0.72483255304480     -0.00123170985383
C   -8.59902460370342     -0.63263980622873      0.00089141472904
C   -6.13981313911873     -0.67413663715361     -0.00609792660607
C   -7.38018411213749     -1.39126618958160      0.00131813493501
C   -4.91868448025621     -1.39175501803000      0.00624257154343
C   -3.68443829568458     -0.68723731573599     -0.00478966852105
C   -2.46081704024768     -1.40334517882457      0.00575341766833
C   -1.23116201232071     -0.70217386488055     -0.00636696112346
C   -0.00756962538737     -1.41741884941102      0.00108956317991
C   1.22364771588843     -0.71527537726392      0.01109518512883
C   2.44567064933149     -1.42964328900682     -0.00065482763106
C   3.67686670284649     -0.72670743155550     -0.00479541202602
C   6.13224884641929     -0.73997883984993     -0.00632338623858
C   4.90351914550401     -1.44445752054090      0.00751768830159
C   8.59901484869081      0.63260386666793     -0.00101133422380
C   8.59174548810050     -0.72485086719319      0.00072504603735
C   7.36486276438985     -1.47033266560598      0.00049486934466
H   -9.52830597181814      1.27684744919284     -0.00270163681798
H   9.54141097460619      1.17457248844457     -0.00206336648518
C   -7.36983790976868     -2.77954514593389      0.00312634335708
C   -4.92459910905015     -2.80843725734101     -0.00460528907921
C   -6.16662249566744     -3.51665219282533      0.00169655107992
C   -3.70251035970491     -3.52468154912026      0.00571878010666
C   -2.46764698511392     -2.82132596280400     -0.00632585824990
C   -0.01513347410770     -2.83314164539971     -0.00604426974092
C   -1.24712184122656     -3.53473217556300      0.00551968366725
C   1.20924506964357     -3.54791467864352      0.00805871345849
C   2.43733602215464     -2.84764173817541     -0.00608104485234
C   4.89430234377080     -2.86112296828604     -0.00526030478103
C   3.66461525504104     -3.56421984553201      0.00761911515957
C   6.12863901474565     -3.58258405771778      0.00096495711699
C   7.33967266469532     -2.85841330737039      0.00248018319869
H   -9.54144911125902     -1.17456346666430      0.00226083090216
H   9.52826186807155     -1.27691907390448      0.00197485379837
H   -8.31516504384864     -3.31814985321231      0.00729857188773
H   8.27915514249207     -3.40714078989363      0.00681973918158
C   -6.14499418870218     -4.92764727278338      0.00302254913999
C   -3.70678334799751     -4.94126171411716     -0.00679841894792
C   -4.95559005800169     -5.64349397349412      0.00116871569699
C   -2.48612132622665     -5.65478557440947      0.00614125209662
C   -1.25405833548005     -4.95612205000132     -0.00503435388927
C   1.20101257386816     -4.96928038819302     -0.00385322963129
C   -0.03033667441341     -5.66952030313900      0.00398997003238
C   3.65375010132847     -4.98074377541453     -0.00309522988330
C   2.42549269587528     -5.68117463552727      0.00628170066869
C   6.09196561781097     -4.99325796338655      0.00325918379042
C   4.89497644461045     -5.69634842095790      0.00202298796027
H   -7.08989238804069     -5.46699984223871      0.00742531082125
H   7.03105520920009     -5.54265853633254      0.00683896355417
C   -4.92354532219813     -7.07882109967734      0.00061394679214
C   -2.48534208823777     -7.08772807792913     -0.00189594564379
C   -3.75168589177895     -7.76394715763627     -0.00170126671874
C   -0.03794895698805     -7.09946487446944     -0.00168022049625
C   -1.27795610040136     -7.77290438466689     -0.00366491325785
C   2.40944432072629     -7.11402201200282     -0.00081701968533
C   1.19474993715296     -7.78618536556242     -0.00296931056689
C   4.84762105249800     -7.13126211057943      0.00168979497423
C   3.66847160587561     -7.80378799294376     -0.00065863938960
H   -5.86994035041618     -7.61383059804164      0.00215798365757
H   5.78824962538815     -7.67633218931421      0.00281691445618
H   -3.75352693944918     -8.85107156923607     -0.00353718114765
H   -1.28430440589466     -8.86087539249706     -0.00809229711623
H   1.18922157469537     -8.87416062058945     -0.00706194725726
H   3.65854661482387     -8.89086063405326     -0.00231318081200

    units angstrom      # Angstroms are the default
    no_reorient         # Geometry fixed, default
    symmetry c1         # C1 symmetry, default
}

set {
    scf_type DF         # Density fitting, faster than exact integrals
    freeze_core True    # Freeze core electrons
    basis jun-cc-pVDZ   # Jun-cc-pVDZ basis set, recommended for sSAPT0 in https://doi.org/10.1063/1.4867135
}

energy('ssapt0')        # Compute sSAPT0 energy, includes also SAPT0
--------------------------------------------------------------------------

  //              Dimer HF             //
    Molecular point group: c1
  Charge       = -1
  Multiplicity = 1
  Basis Set: JUN-CC-PVDZ
    Blend: JUN-CC-PVDZ
  Basis Set: (JUN-CC-PVDZ AUX)
    Blend: JUN-CC-PVDZ-JKFIT
  @DF-RHF Final Energy: -4073.10378965385462
    Total Energy =                      -4073.1037896538546192
 Dipole X            :         -0.0007255           -0.0000548           -0.0007802
 Dipole Y            :          0.0010273           -0.0002464            0.0007809
 Dipole Z            :         31.1181535          -42.8486264          -11.7304729
 Magnitude           :                                                   11.7304729
  //            Monomer A HF           //
    Molecular point group: c1
  Multiplicity = 1
  Basis Set: JUN-CC-PVDZ
    Blend: JUN-CC-PVDZ
  Basis Set: (JUN-CC-PVDZ AUX)
    Blend: JUN-CC-PVDZ-JKFIT
  @DF-RHF Final Energy:  -422.77142889569211
    Total Energy =                       -422.7714288956921109
  //            Monomer B HF           //
    Molecular point group: c1

    Geometry (in Angstrom), charge = 0, multiplicity = 1:

       Center              X                  Y                   Z               Mass
    ------------   -----------------  -----------------  -----------------  -----------------
      Gh(B)          -0.000201921932     0.000288800891     6.704127119334    11.009305360000
      Gh(F)          -0.000004162732     0.000014527991     8.116912119334    18.998403162730
      Gh(F)           1.147855837268     0.675795727991     6.232986119334    18.998403162730
      Gh(F)           0.011913897268    -1.331996472009     6.233188119334    18.998403162730
      Gh(F)          -1.159670162732     0.656088027991     6.233267119334    18.998403162730
         C           -3.668445426752     7.803766698073    -0.494006839331    12.000000000000
         C           -4.847602882078     7.131256359331    -0.496373414263    12.000000000000
         C           -4.894963461907     5.696344931522    -0.496946325362    12.000000000000
         C           -3.653744841505     4.980744868950    -0.489285883632    12.000000000000
         C           -2.409429284226     7.113995564665    -0.493812497071    12.000000000000
         C           -2.425481506836     5.681136478894    -0.500817385941    12.000000000000
         C           -1.194748179167     7.786158722300    -0.492340316529    12.000000000000
         C            0.037954866205     7.099436173748    -0.494511020834    12.000000000000
         C            0.030328424687     5.669504087695    -0.499994405750    12.000000000000
         C           -1.200988670637     4.969284875906    -0.491024671816    12.000000000000
         C            1.277953663083     7.772873971185    -0.493135172273    12.000000000000
         C            2.485353921992     7.087711413228    -0.495409660178    12.000000000000
         C            2.486124522185     5.654785338231    -0.502347409166    12.000000000000
         C            1.254078756912     4.956092641655    -0.490719467578    12.000000000000
         C            3.751710428674     7.763926678971    -0.495282808798    12.000000000000
         C            4.923561893453     7.078795304981    -0.497339289505    12.000000000000
         C            4.955603108594     5.643461991360    -0.497499702313    12.000000000000
         C            3.706797371473     4.941224736324    -0.492408142143    12.000000000000
         H           -3.658525300490     8.890841947126    -0.492321851081     1.007825032230
         H           -1.189217492488     8.874135615351    -0.488368440088     1.007825032230
         H            1.284290076155     8.860847963479    -0.488976348132     1.007825032230
         H            3.753537924068     8.851049806963    -0.493760284482     1.007825032230
         H            5.869954540475     7.613809362646    -0.498264656548     1.007825032230
         H           -5.788235870234     7.676316740925    -0.497933261619     1.007825032230
         C           -6.091978121428     4.993274541634    -0.498818565853    12.000000000000
         C           -6.128665643049     3.582594696789    -0.497617388824    12.000000000000
         C           -3.664583902777     3.564196707735    -0.500542483441    12.000000000000
         C           -4.894302367430     2.861095303891    -0.491373498456    12.000000000000
         C           -2.437339157630     2.847626185075    -0.488710704905    12.000000000000
         C           -1.209232020328     3.547901462969    -0.502389731697    12.000000000000
         C            1.247137409430     3.534695279420    -0.503198338102    12.000000000000
         C            0.015171876837     2.833126367296    -0.491514154877    12.000000000000
         C            2.467641009709     2.821304505246    -0.491414096754    12.000000000000
         C            3.702545311848     3.524674682415    -0.504902057596    12.000000000000
         C            6.144976223652     4.927586894122    -0.498733147524    12.000000000000
         C            6.166584196130     3.516599003933    -0.496566594087    12.000000000000
         C            4.924605795728     2.808422453345    -0.490027847850    12.000000000000
         H            7.089901346909     5.466902294214    -0.502495028374     1.007825032230
         H           -7.031045913833     5.542702480848    -0.503051780804     1.007825032230
         C           -7.339702203855     2.858426062570    -0.499244556265    12.000000000000
         C           -7.364886120791     1.470337899574    -0.497479018138    12.000000000000
         C           -4.903508771679     1.444441340151    -0.502195282330    12.000000000000
         C           -6.132261315343     0.739953885044    -0.489905238347    12.000000000000
         C           -3.676878963248     0.726711670664    -0.491567565930    12.000000000000
         C           -2.445660748797     1.429655661253    -0.501877276131    12.000000000000
         C           -1.223604844033     0.715339029625    -0.490448011600    12.000000000000
         C            0.007633706582     1.417397677228    -0.491982357882    12.000000000000
         C            1.231215645015     0.702131218578    -0.510808943539    12.000000000000
         C            2.460816937799     1.403306564116    -0.491304434648    12.000000000000
         C            3.684426091464     0.687212956203    -0.492133220925    12.000000000000
         C            4.918704738807     1.391749089180    -0.504535042560    12.000000000000
         C            7.369797915229     2.779496731175    -0.498327013880    12.000000000000
         C            7.380158503390     1.391232035846    -0.496780331034    12.000000000000
         C            6.139795376391     0.674133151191    -0.490451989223    12.000000000000
         H           -8.279194962078     3.407132569115    -0.503542108387     1.007825032230
         H            8.315109308748     3.318132624614    -0.502537589679     1.007825032230
         C           -8.591760100313     0.724847081035    -0.497138590520    12.000000000000
         C           -8.599028766435    -0.632625278238    -0.495015465937    12.000000000000
         C           -6.139817301850    -0.674122109163    -0.502004807273    12.000000000000
         C           -7.380188274869    -1.391251661591    -0.494588745731    12.000000000000
         C           -4.918688642988    -1.391740490039    -0.489664309123    12.000000000000
         C           -3.684442458416    -0.687222787745    -0.500696549188    12.000000000000
         C           -2.460821202979    -1.403330650834    -0.490153462998    12.000000000000
         C           -1.231166175052    -0.702159336890    -0.502273841790    12.000000000000
         C           -0.007573788119    -1.417404321420    -0.494817317487    12.000000000000
         C            1.223643553157    -0.715260849273    -0.484811695538    12.000000000000
         C            2.445666486600    -1.429628761016    -0.496561708298    12.000000000000
         C            3.676862540115    -0.726692903565    -0.500702292693    12.000000000000
         C            6.132244683688    -0.739964311859    -0.502230266905    12.000000000000
         C            4.903514982772    -1.444442992550    -0.488389192365    12.000000000000
         C            8.599010685959     0.632618394658    -0.496918214890    12.000000000000
         C            8.591741325369    -0.724836339203    -0.495181834629    12.000000000000
         C            7.364858601658    -1.470318137615    -0.495412011322    12.000000000000
         H           -9.528310134550     1.276861977183    -0.498608517484     1.007825032230
         H            9.541406811874     1.174587016435    -0.497970247152     1.007825032230
         C           -7.369842072500    -2.779530617943    -0.492780537309    12.000000000000
         C           -4.924603271782    -2.808422729350    -0.500512169746    12.000000000000
         C           -6.166626658399    -3.516637664835    -0.494210329587    12.000000000000
         C           -3.702514522437    -3.524667021130    -0.490188100560    12.000000000000
         C           -2.467651147846    -2.821311434813    -0.502232738916    12.000000000000
         C           -0.015137636839    -2.833127117409    -0.501951150407    12.000000000000
         C           -1.247126003958    -3.534717647572    -0.490387196999    12.000000000000
         C            1.209240906912    -3.547900150653    -0.487848167208    12.000000000000
         C            2.437331859423    -2.847627210185    -0.501987925519    12.000000000000
         C            4.894298181039    -2.861108440295    -0.501167185448    12.000000000000
         C            3.664611092309    -3.564205317541    -0.488287765507    12.000000000000
         C            6.128634852014    -3.582569529727    -0.494941923550    12.000000000000
         C            7.339668501964    -2.858398779380    -0.493426697468    12.000000000000
         H           -9.541453273991    -1.174548938674    -0.493646049764     1.007825032230
         H            9.528257705340    -1.276904545914    -0.493932026868     1.007825032230
         H           -8.315169206580    -3.318135325222    -0.488608308779     1.007825032230
         H            8.279150979760    -3.407126261903    -0.489087141485     1.007825032230
         C           -6.144998351434    -4.927632744793    -0.492884331527    12.000000000000
         C           -3.706787510729    -4.941247186127    -0.502705299614    12.000000000000
         C           -4.955594220733    -5.643479445504    -0.494738164969    12.000000000000
         C           -2.486125488958    -5.654771046419    -0.489765628570    12.000000000000
         C           -1.254062498212    -4.956107522011    -0.500941234556    12.000000000000
         C            1.201008411136    -4.969265860202    -0.499760110298    12.000000000000
         C           -0.030340837145    -5.669505775148    -0.491916910634    12.000000000000
         C            3.653745938597    -4.980729247424    -0.499002110550    12.000000000000
         C            2.425488533144    -5.681160107537    -0.489625179998    12.000000000000
         C            6.091961455079    -4.993243435396    -0.492647696876    12.000000000000
         C            4.894972281879    -5.696333892967    -0.493883892706    12.000000000000
         H           -7.089896550772    -5.466985314248    -0.488481569845     1.007825032230
         H            7.031051046468    -5.542644008342    -0.489067917112     1.007825032230
         C           -4.923549484930    -7.078806571687    -0.495292933874    12.000000000000
         C           -2.485346250970    -7.087713549939    -0.497802826310    12.000000000000
         C           -3.751690054511    -7.763932629646    -0.497608147385    12.000000000000
         C           -0.037953119720    -7.099450346479    -0.497587101163    12.000000000000
         C           -1.277960263133    -7.772889856676    -0.499571793924    12.000000000000
         C            2.409440157995    -7.114007484012    -0.496723900352    12.000000000000
         C            1.194745774421    -7.786170837572    -0.498876191233    12.000000000000
         C            4.847616889766    -7.131247582589    -0.494217085692    12.000000000000
         C            3.668467443144    -7.803773464953    -0.496565520056    12.000000000000
         H           -5.869944513148    -7.613816070051    -0.493748897009     1.007825032230
         H            5.788245462656    -7.676317661324    -0.493089966210     1.007825032230
         H           -3.753531102181    -8.851057041246    -0.499444061814     1.007825032230
         H           -1.284308568626    -8.860860864507    -0.503999177783     1.007825032230
         H            1.189217411964    -8.874146092599    -0.502968827924     1.007825032230
         H            3.658542452092    -8.890846106063    -0.498220061478     1.007825032230

  Charge       = 0
  Multiplicity = 1
  Basis Set: JUN-CC-PVDZ
    Blend: JUN-CC-PVDZ
  Basis Set: (JUN-CC-PVDZ AUX)
    Blend: JUN-CC-PVDZ-JKFIT

    Orbital Energies [Eh]
    ---------------------

    Doubly Occupied:

       1A    -11.264062     2A    -11.263747     3A    -11.263747
       4A    -11.263405     5A    -11.263403     6A    -11.263367
       7A    -11.263211     8A    -11.263184     9A    -11.263181
      10A    -11.263024    11A    -11.262864    12A    -11.262860
      13A    -11.262381    14A    -11.262378    15A    -11.262304
      16A    -11.262303    17A    -11.262253    18A    -11.262217
      19A    -11.262172    20A    -11.262133    21A    -11.262132
      22A    -11.261978    23A    -11.261974    24A    -11.261854
      25A    -11.261838    26A    -11.261825    27A    -11.261821
      28A    -11.261774    29A    -11.261766    30A    -11.261693
      31A    -11.261667    32A    -11.261664    33A    -11.261638
      34A    -11.261637    35A    -11.261616    36A    -11.261570
      37A    -11.261427    38A    -11.261416    39A    -11.261410
      40A    -11.261402    41A    -11.261398    42A    -11.261389
      43A    -11.261386    44A    -11.261371    45A    -11.261366
      46A    -11.261344    47A    -11.261340    48A    -11.261335
      49A    -11.261184    50A    -11.261153    51A    -11.261151
      52A    -11.261071    53A    -11.261070    54A    -11.260999
      55A    -11.260029    56A    -11.260016    57A    -11.260013
      58A    -11.259984    59A    -11.259982    60A    -11.259966
      61A    -11.259407    62A    -11.259382    63A    -11.259379
      64A    -11.259327    65A    -11.259325    66A    -11.259296
      67A    -11.259034    68A    -11.259016    69A    -11.259014
      70A    -11.258987    71A    -11.258984    72A    -11.258973
      73A    -11.254600    74A    -11.254598    75A    -11.254597
      76A    -11.254594    77A    -11.254589    78A    -11.254587
      79A    -11.253753    80A    -11.253751    81A    -11.253748
      82A    -11.253747    83A    -11.253744    84A    -11.253739
      85A    -11.253668    86A    -11.253666    87A    -11.253663
      88A    -11.253662    89A    -11.253660    90A    -11.253654
      91A    -11.253127    92A    -11.253126    93A    -11.253125
      94A    -11.253122    95A    -11.253116    96A    -11.253115
      97A     -1.254159    98A     -1.239160    99A     -1.239159
     100A     -1.220600   101A     -1.220596   102A     -1.215631
     103A     -1.201160   104A     -1.195731   105A     -1.188320
     106A     -1.188319   107A     -1.173880   108A     -1.173877
     109A     -1.155793   110A     -1.155789   111A     -1.152900
     112A     -1.144833   113A     -1.144830   114A     -1.128715
     115A     -1.114874   116A     -1.113275   117A     -1.112660
     118A     -1.112647   119A     -1.111723   120A     -1.088576
     121A     -1.088561   122A     -1.077071   123A     -1.077069
     124A     -1.067771   125A     -1.067742   126A     -1.065143
     127A     -1.046935   128A     -1.046927   129A     -1.040624
     130A     -1.038843   131A     -1.038842   132A     -1.025411
     133A     -1.021585   134A     -1.021535   135A     -1.007305
     136A     -1.006951   137A     -1.003925   138A     -1.000652
     139A     -1.000605   140A     -0.991178   141A     -0.971140
     142A     -0.971092   143A     -0.956005   144A     -0.955949
     145A     -0.905783   146A     -0.905741   147A     -0.905650
     148A     -0.905610   149A     -0.904541   150A     -0.892553
     151A     -0.892494   152A     -0.890537   153A     -0.890480
     154A     -0.889610   155A     -0.872334   156A     -0.869145
     157A     -0.851664   158A     -0.848032   159A     -0.848010
     160A     -0.845768   161A     -0.843171   162A     -0.834699
     163A     -0.834687   164A     -0.828225   165A     -0.828222
     166A     -0.784690   167A     -0.784679   168A     -0.783818
     169A     -0.783791   170A     -0.782437   171A     -0.782416
     172A     -0.782202   173A     -0.767124   174A     -0.760975
     175A     -0.750750   176A     -0.733599   177A     -0.727206
     178A     -0.727193   179A     -0.725232   180A     -0.724673
     181A     -0.724655   182A     -0.718679   183A     -0.713940
     184A     -0.713934   185A     -0.699709   186A     -0.699697
     187A     -0.686312   188A     -0.686073   189A     -0.686071
     190A     -0.682297   191A     -0.682286   192A     -0.678934
     193A     -0.653762   194A     -0.651010   195A     -0.650981
     196A     -0.649988   197A     -0.649972   198A     -0.649681
     199A     -0.641107   200A     -0.641080   201A     -0.640206
     202A     -0.639269   203A     -0.636178   204A     -0.636152
     205A     -0.629278   206A     -0.617667   207A     -0.615414
     208A     -0.615395   209A     -0.608928   210A     -0.608921
     211A     -0.599192   212A     -0.599153   213A     -0.598887
     214A     -0.598763   215A     -0.598736   216A     -0.598217
     217A     -0.595182   218A     -0.595169   219A     -0.594856
     220A     -0.594422   221A     -0.592104   222A     -0.592101
     223A     -0.587578   224A     -0.577886   225A     -0.577877
     226A     -0.575739   227A     -0.575736   228A     -0.573503
     229A     -0.569572   230A     -0.568315   231A     -0.568290
     232A     -0.566893   233A     -0.566883   234A     -0.561006
     235A     -0.558872   236A     -0.558854   237A     -0.558523
     238A     -0.554504   239A     -0.550636   240A     -0.547565
     241A     -0.544346   242A     -0.535042   243A     -0.535003
     244A     -0.533666   245A     -0.533643   246A     -0.528192
     247A     -0.528177   248A     -0.527974   249A     -0.517333
     250A     -0.517299   251A     -0.515431   252A     -0.515426
     253A     -0.509754   254A     -0.509738   255A     -0.498150
     256A     -0.496582   257A     -0.496557   258A     -0.493850
     259A     -0.493839   260A     -0.489483   261A     -0.481563
     262A     -0.477494   263A     -0.477491   264A     -0.474116
     265A     -0.469587   266A     -0.466664   267A     -0.466659
     268A     -0.458883   269A     -0.446879   270A     -0.446818
     271A     -0.441108   272A     -0.440833   273A     -0.440808
     274A     -0.434762   275A     -0.433979   276A     -0.407456
     277A     -0.407432   278A     -0.386493   279A     -0.386445
     280A     -0.385804   281A     -0.385802   282A     -0.383837
     283A     -0.354407   284A     -0.354391   285A     -0.350745
     286A     -0.338178   287A     -0.335679   288A     -0.335610
     289A     -0.332786   290A     -0.332780   291A     -0.307173
     292A     -0.302036   293A     -0.301973   294A     -0.300920
     295A     -0.286249   296A     -0.256533   297A     -0.253587
     298A     -0.253534   299A     -0.204344   300A     -0.204254

  @DF-RHF Final Energy: -3650.33753089322545

   => Energetics <=

    Nuclear Repulsion Energy =          15611.4211649754324753
    One-Electron Energy =              -36072.0718188169557834
    Two-Electron Energy =               16810.3131229482969502
    Total Energy =                      -3650.3375308932263579
 Dipole X            :         -0.0009540            0.0002304           -0.0007236
 Dipole Y            :          0.0010732           -0.0013052           -0.0002320
 Dipole Z            :        562.2721427         -562.2735210           -0.0013783
 Magnitude           :                                                    0.0015739

    SAPT Results
  --------------------------------------------------------------------------------------------------------
    Electrostatics                  8.09025404 [mEh]       5.07671106 [kcal/mol]      21.24095905 [kJ/mol]
      Elst10,r                      8.09025404 [mEh]       5.07671106 [kcal/mol]      21.24095905 [kJ/mol]

    Exchange                       -0.00016501 [mEh]      -0.00010355 [kcal/mol]      -0.00043324 [kJ/mol]
      Exch10                       -0.00016501 [mEh]      -0.00010355 [kcal/mol]      -0.00043324 [kJ/mol]
      Exch10(S^2)                  -0.00016501 [mEh]      -0.00010355 [kcal/mol]      -0.00043324 [kJ/mol]

    Induction                      -2.91995397 [mEh]      -1.83229878 [kcal/mol]      -7.66633808 [kJ/mol]
      Ind20,r                      -2.93370766 [mEh]      -1.84092935 [kcal/mol]      -7.70244839 [kJ/mol]
      Exch-Ind20,r                  0.00008846 [mEh]       0.00005551 [kcal/mol]       0.00023225 [kJ/mol]
      delta HF,r (2)                0.01366523 [mEh]       0.00857506 [kcal/mol]       0.03587806 [kJ/mol]

    Dispersion                     -0.39387600 [mEh]      -0.24716092 [kcal/mol]      -1.03412129 [kJ/mol]
      Disp20                       -0.39392514 [mEh]      -0.24719176 [kcal/mol]      -1.03425032 [kJ/mol]
      Exch-Disp20                   0.00004915 [mEh]       0.00003084 [kcal/mol]       0.00012904 [kJ/mol]
      Disp20 (SS)                  -0.19696257 [mEh]      -0.12359588 [kcal/mol]      -0.51712516 [kJ/mol]
      Disp20 (OS)                  -0.19696257 [mEh]      -0.12359588 [kcal/mol]      -0.51712516 [kJ/mol]
      Exch-Disp20 (SS)              0.00003808 [mEh]       0.00002389 [kcal/mol]       0.00009997 [kJ/mol]
      Exch-Disp20 (OS)              0.00001107 [mEh]       0.00000695 [kcal/mol]       0.00002907 [kJ/mol]

  Total HF                          5.17013506 [mEh]       3.24430873 [kcal/mol]      13.57418774 [kJ/mol]
  Total SAPT0                       4.77625907 [mEh]       2.99714781 [kcal/mol]      12.54006645 [kJ/mol]

  Special recipe for scaled SAPT0 (see Manual):
    Electrostatics sSAPT0           8.09025404 [mEh]       5.07671106 [kcal/mol]      21.24095905 [kJ/mol]
    Exchange sSAPT0                -0.00016501 [mEh]      -0.00010355 [kcal/mol]      -0.00043324 [kJ/mol]
    Induction sSAPT0               -2.91995397 [mEh]      -1.83229878 [kcal/mol]      -7.66633808 [kJ/mol]
    Dispersion sSAPT0              -0.39387600 [mEh]      -0.24716092 [kcal/mol]      -1.03412129 [kJ/mol]
  Total sSAPT0                      4.77625907 [mEh]       2.99714781 [kcal/mol]      12.54006645 [kJ/mol]
  --------------------------------------------------------------------------------------------------------

*** Psi4 exiting successfully. Buy a developer a beer!
