                               Psi4 1.9 release

  ==> Input File <==

--------------------------------------------------------------------------
memory 64 GB # how much memory is available ! Depends on the nodes/cores !

molecule dimer {
# monomer A
+1 1    # Charge and multiplicity
C  0.680067 1.417258 -7.015929
C -0.680504 1.419286 -7.015545
N -1.085635 1.420284 -5.697221
C  0.000108 1.423560 -4.915820
C -2.477365 1.469690 -5.229242
N  1.085222 1.420284 -5.697221
H  1.385146 1.409430 -7.833368
H -1.385302 1.419096 -7.833214
H -0.000009 1.425307 -3.834731
C  2.478117 1.403392 -5.232123
H  2.490592 1.430737 -4.141870
H  2.967028 0.489946 -5.579299
H  3.001428 2.278875 -5.623595
H -2.857359 2.491761 -5.309201
H -3.082679 0.799606 -5.842306
H -2.518128 1.142706 -4.189294
--
# monomer B
0 1     # Charge and multiplicity
C   -3.66844126402057      7.80375217008252      0.00190004133558
C   -4.84759871934653      7.13124183134024     -0.00046653359696
C   -4.89495929917518      5.69633040353158     -0.00103944469517
C   -3.65374067877320      4.98073034095895      0.00662099703436
C   -2.40942512149445      7.11398103667468      0.00209438359570
C   -2.42547734410473      5.68112195090346     -0.00491050527438
C   -1.19474401643570      7.78614419430947      0.00356656413763
C   0.03795902893699      7.09942164575698      0.00139585983271
C   0.03033258741920      5.66948955970466     -0.00408752508301
C   -1.20098450790502      4.96927034791531      0.00488220885047
C   1.27795782581485      7.77285944319479      0.00277170839332
C   2.48535808472416      7.08769688523756      0.00049722048857
C   2.48612868491717      5.65477081024076     -0.00644052849921
C   1.25408291964399      4.95607811366431      0.00518741308898
C   3.75171459140595      7.76391215098033      0.00062407186893
C   4.92356605618520      7.07878077698995     -0.00143240883900
C   4.95560727132542      5.64344746336949     -0.00159282164606
C   3.70680153420475      4.94121020833308      0.00349873852374
H   -3.65852113775815      8.89082741913536      0.00358502958574
H   -1.18921332975660      8.87412108735996      0.00753844057883
H   1.28429423888630      8.86083343548850      0.00693053253426
H   3.75354208679975      8.85103527897216      0.00214659618464
H   5.86995870320703      7.61379483465560     -0.00235777588134
H   -5.78823170750226      7.67630221293400     -0.00202638095293
C   -6.09197395869619      4.99326001364347     -0.00291168518608
C   -6.12866148031747      3.58258016879823     -0.00171050815740
C   -3.66457974004527      3.56418217974434     -0.00463560277484
C   -4.89429820469869      2.86108077590057      0.00453338221034
C   -2.43733499489796      2.84761165708481      0.00719617576166
C   -1.20922785759670      3.54788693497833     -0.00648285103018
C   1.24714157216223      3.53468075142962     -0.00729145743546
C   0.01517603956900      2.83311183930540      0.00439272578912
C   2.46764517244071      2.82128997725533      0.00449278391269
C   3.70254947457969      3.52466015442405     -0.00899517692985
C   6.14498038638375      4.92757236613191     -0.00282626685777
C   6.16658835886151      3.51658447594213     -0.00065971342101
C   4.92460995845939      2.80840792535402      0.00587903281610
H   7.08990550964105      5.46688776622306     -0.00658814770723
H   -7.03104175110130      5.54268795285765     -0.00714490013730
C   -7.33969804112295      2.85841153457957     -0.00333767559888
C   -7.36488195805880      1.47032337158330     -0.00157213747140
C   -4.90350460894690      1.44442681216000     -0.00628840166334
C   -6.13225715261081      0.73993935705394      0.00600164231964
C   -3.67687480051673      0.72669714267312      0.00433931473643
C   -2.44565658606518      1.42964113326212     -0.00597039546461
C   -1.22360068130162      0.71532450163492      0.00545886906656
C   0.00763786931376      1.41738314923765      0.00392452278437
C   1.23121980774686      0.70211669058719     -0.01490206287210
C   2.46082110053113      1.40329203612573      0.00460244601878
C   3.68443025419614      0.68719842821222      0.00377365974158
C   4.91870890153864      1.39173456118907     -0.00862816189375
C   7.36980207796101      2.77948220318441     -0.00242013321349
C   7.38016266612146      1.39121750785509     -0.00087345036788
C   6.13979953912259      0.67411862320065      0.00545489144369
H   -8.27919079934664      3.40711804112415     -0.00763522772059
H   8.31511347147953      3.31811809662368     -0.00663070901292
C   -8.59175593758115      0.72483255304480     -0.00123170985383
C   -8.59902460370342     -0.63263980622873      0.00089141472904
C   -6.13981313911873     -0.67413663715361     -0.00609792660607
C   -7.38018411213749     -1.39126618958160      0.00131813493501
C   -4.91868448025621     -1.39175501803000      0.00624257154343
C   -3.68443829568458     -0.68723731573599     -0.00478966852105
C   -2.46081704024768     -1.40334517882457      0.00575341766833
C   -1.23116201232071     -0.70217386488055     -0.00636696112346
C   -0.00756962538737     -1.41741884941102      0.00108956317991
C   1.22364771588843     -0.71527537726392      0.01109518512883
C   2.44567064933149     -1.42964328900682     -0.00065482763106
C   3.67686670284649     -0.72670743155550     -0.00479541202602
C   6.13224884641929     -0.73997883984993     -0.00632338623858
C   4.90351914550401     -1.44445752054090      0.00751768830159
C   8.59901484869081      0.63260386666793     -0.00101133422380
C   8.59174548810050     -0.72485086719319      0.00072504603735
C   7.36486276438985     -1.47033266560598      0.00049486934466
H   -9.52830597181814      1.27684744919284     -0.00270163681798
H   9.54141097460619      1.17457248844457     -0.00206336648518
C   -7.36983790976868     -2.77954514593389      0.00312634335708
C   -4.92459910905015     -2.80843725734101     -0.00460528907921
C   -6.16662249566744     -3.51665219282533      0.00169655107992
C   -3.70251035970491     -3.52468154912026      0.00571878010666
C   -2.46764698511392     -2.82132596280400     -0.00632585824990
C   -0.01513347410770     -2.83314164539971     -0.00604426974092
C   -1.24712184122656     -3.53473217556300      0.00551968366725
C   1.20924506964357     -3.54791467864352      0.00805871345849
C   2.43733602215464     -2.84764173817541     -0.00608104485234
C   4.89430234377080     -2.86112296828604     -0.00526030478103
C   3.66461525504104     -3.56421984553201      0.00761911515957
C   6.12863901474565     -3.58258405771778      0.00096495711699
C   7.33967266469532     -2.85841330737039      0.00248018319869
H   -9.54144911125902     -1.17456346666430      0.00226083090216
H   9.52826186807155     -1.27691907390448      0.00197485379837
H   -8.31516504384864     -3.31814985321231      0.00729857188773
H   8.27915514249207     -3.40714078989363      0.00681973918158
C   -6.14499418870218     -4.92764727278338      0.00302254913999
C   -3.70678334799751     -4.94126171411716     -0.00679841894792
C   -4.95559005800169     -5.64349397349412      0.00116871569699
C   -2.48612132622665     -5.65478557440947      0.00614125209662
C   -1.25405833548005     -4.95612205000132     -0.00503435388927
C   1.20101257386816     -4.96928038819302     -0.00385322963129
C   -0.03033667441341     -5.66952030313900      0.00398997003238
C   3.65375010132847     -4.98074377541453     -0.00309522988330
C   2.42549269587528     -5.68117463552727      0.00628170066869
C   6.09196561781097     -4.99325796338655      0.00325918379042
C   4.89497644461045     -5.69634842095790      0.00202298796027
H   -7.08989238804069     -5.46699984223871      0.00742531082125
H   7.03105520920009     -5.54265853633254      0.00683896355417
C   -4.92354532219813     -7.07882109967734      0.00061394679214
C   -2.48534208823777     -7.08772807792913     -0.00189594564379
C   -3.75168589177895     -7.76394715763627     -0.00170126671874
C   -0.03794895698805     -7.09946487446944     -0.00168022049625
C   -1.27795610040136     -7.77290438466689     -0.00366491325785
C   2.40944432072629     -7.11402201200282     -0.00081701968533
C   1.19474993715296     -7.78618536556242     -0.00296931056689
C   4.84762105249800     -7.13126211057943      0.00168979497423
C   3.66847160587561     -7.80378799294376     -0.00065863938960
H   -5.86994035041618     -7.61383059804164      0.00215798365757
H   5.78824962538815     -7.67633218931421      0.00281691445618
H   -3.75352693944918     -8.85107156923607     -0.00353718114765
H   -1.28430440589466     -8.86087539249706     -0.00809229711623
H   1.18922157469537     -8.87416062058945     -0.00706194725726
H   3.65854661482387     -8.89086063405326     -0.00231318081200

    units angstrom      # Angstroms are the default
    no_reorient         # Geometry fixed, default
    symmetry c1         # C1 symmetry, default
}

set {
    scf_type DF         # Density fitting, faster than exact integrals
    freeze_core True    # Freeze core electrons
    basis jun-cc-pVDZ   # Jun-cc-pVDZ basis set, recommended for sSAPT0 in https://doi.org/10.1063/1.4867135
}

energy('ssapt0')        # Compute sSAPT0 energy, includes also SAPT0
--------------------------------------------------------------------------

  //              Dimer HF             //
    Molecular point group: c1
  Charge       = 1
  Multiplicity = 1
  Basis Set: JUN-CC-PVDZ
    Blend: JUN-CC-PVDZ
  Basis Set: (JUN-CC-PVDZ AUX)
    Blend: JUN-CC-PVDZ-JKFIT
  @DF-RHF Final Energy: -3953.65379116147915
    Total Energy =                      -3953.6537911614796030
 Dipole X            :         -0.0029302            0.0004804           -0.0024498
 Dipole Y            :         -7.0460723            8.7122315            1.6661592
 Dipole Z            :         25.0123250          -33.3383771           -8.3260521
 Magnitude           :                                                    8.4911269
  //            Monomer A HF           //
    Molecular point group: c1
  Multiplicity = 1
  Basis Set: JUN-CC-PVDZ
    Blend: JUN-CC-PVDZ
  Basis Set: (JUN-CC-PVDZ AUX)
    Blend: JUN-CC-PVDZ-JKFIT
  @DF-RHF Final Energy:  -303.29752252363642
    Total Energy =                       -303.2975225236364167
  //            Monomer B HF           //
    Molecular point group: c1

    Geometry (in Angstrom), charge = 0, multiplicity = 1:

       Center              X                  Y                   Z               Mass
    ------------   -----------------  -----------------  -----------------  -----------------
      Gh(C)           0.680062820275     1.308604348936    -6.573729579397    12.000000000000
      Gh(C)          -0.680508179725     1.310632348936    -6.573345579397    12.000000000000
      Gh(N)          -1.085639179725     1.311630348936    -5.255021579397    14.003074004430
      Gh(C)           0.000103820275     1.314906348936    -4.473620579397    12.000000000000
      Gh(C)          -2.477369179725     1.361036348936    -4.787042579397    12.000000000000
      Gh(N)           1.085217820275     1.311630348936    -5.255021579397    14.003074004430
      Gh(H)           1.385141820275     1.300776348936    -7.391168579397     1.007825032230
      Gh(H)          -1.385306179725     1.310442348936    -7.391014579397     1.007825032230
      Gh(H)          -0.000013179725     1.316653348936    -3.392531579397     1.007825032230
      Gh(C)           2.478112820275     1.294738348936    -4.789923579397    12.000000000000
      Gh(H)           2.490587820275     1.322083348936    -3.699670579397     1.007825032230
      Gh(H)           2.967023820275     0.381292348936    -5.137099579397     1.007825032230
      Gh(H)           3.001423820275     2.170221348936    -5.181395579397     1.007825032230
      Gh(H)          -2.857363179725     2.383107348936    -4.867001579397     1.007825032230
      Gh(H)          -3.082683179725     0.690952348936    -5.400106579397     1.007825032230
      Gh(H)          -2.518132179725     1.034052348936    -3.747094579397     1.007825032230
         C           -3.668445443746     7.695098519018     0.444099461938    12.000000000000
         C           -4.847602899072     7.022588180276     0.441732887006    12.000000000000
         C           -4.894963478901     5.587676752467     0.441159975908    12.000000000000
         C           -3.653744858499     4.872076689895     0.448820417637    12.000000000000
         C           -2.409429301220     7.005327385610     0.444293804199    12.000000000000
         C           -2.425481523830     5.572468299839     0.437288915329    12.000000000000
         C           -1.194748196161     7.677490543245     0.445765984741    12.000000000000
         C            0.037954849212     6.990767994693     0.443595280436    12.000000000000
         C            0.030328407694     5.560835908640     0.438111895520    12.000000000000
         C           -1.200988687630     4.860616696851     0.447081629453    12.000000000000
         C            1.277953646089     7.664205792130     0.444971128996    12.000000000000
         C            2.485353904999     6.979043234173     0.442696641091    12.000000000000
         C            2.486124505192     5.546117159176     0.435758892104    12.000000000000
         C            1.254078739919     4.847424462600     0.447386833692    12.000000000000
         C            3.751710411681     7.655258499916     0.442823492472    12.000000000000
         C            4.923561876460     6.970127125926     0.440767011764    12.000000000000
         C            4.955603091600     5.534793812305     0.440606598957    12.000000000000
         C            3.706797354479     4.832556557269     0.445698159127    12.000000000000
         H           -3.658525317484     8.782173768071     0.445784450189     1.007825032230
         H           -1.189217509482     8.765467436296     0.449737861182     1.007825032230
         H            1.284290059161     8.752179784424     0.449129953137     1.007825032230
         H            3.753537907074     8.742381627908     0.444346016788     1.007825032230
         H            5.869954523482     7.505141183591     0.439841644722     1.007825032230
         H           -5.788235887228     7.567648561870     0.440173039650     1.007825032230
         C           -6.091978138422     4.884606362579     0.439287735417    12.000000000000
         C           -6.128665660043     3.473926517734     0.440488912445    12.000000000000
         C           -3.664583919771     3.455528528680     0.437563817828    12.000000000000
         C           -4.894302384424     2.752427124836     0.446732802813    12.000000000000
         C           -2.437339174623     2.738958006020     0.449395596365    12.000000000000
         C           -1.209232037322     3.439233283914     0.435716569573    12.000000000000
         C            1.247137392437     3.426027100365     0.434907963167    12.000000000000
         C            0.015171859844     2.724458188241     0.446592146392    12.000000000000
         C            2.467640992715     2.712636326191     0.446692204516    12.000000000000
         C            3.702545294854     3.416006503360     0.433204243673    12.000000000000
         C            6.144976206658     4.818918715067     0.439373153745    12.000000000000
         C            6.166584179136     3.407930824878     0.441539707182    12.000000000000
         C            4.924605778734     2.699754274290     0.448078453419    12.000000000000
         H            7.089901329916     5.358234115159     0.435611272896     1.007825032230
         H           -7.031045930827     5.434034301793     0.435054520466     1.007825032230
         C           -7.339702220848     2.749757883515     0.438861745004    12.000000000000
         C           -7.364886137784     1.361669720519     0.440627283131    12.000000000000
         C           -4.903508788672     1.335773161096     0.435911018940    12.000000000000
         C           -6.132261332336     0.631285705989     0.448201062923    12.000000000000
         C           -3.676878980242     0.618043491609     0.446538735339    12.000000000000
         C           -2.445660765791     1.320987482198     0.436229025138    12.000000000000
         C           -1.223604861027     0.606670850570     0.447658289669    12.000000000000
         C            0.007633689588     1.308729498173     0.446123943387    12.000000000000
         C            1.231215628021     0.593463039523     0.427297357731    12.000000000000
         C            2.460816920806     1.294638385061     0.446801866622    12.000000000000
         C            3.684426074471     0.578544777148     0.445973080344    12.000000000000
         C            4.918704721813     1.283080910125     0.433571258709    12.000000000000
         C            7.369797898236     2.670828552120     0.439779287389    12.000000000000
         C            7.380158486396     1.282563856791     0.441325970235    12.000000000000
         C            6.139795359397     0.565464972136     0.447654312047    12.000000000000
         H           -8.279194979072     3.298464390060     0.434564192882     1.007825032230
         H            8.315109291754     3.209464445559     0.435568711590     1.007825032230
         C           -8.591760117307     0.616178901980     0.440967710749    12.000000000000
         C           -8.599028783429    -0.741293457293     0.443090835332    12.000000000000
         C           -6.139817318844    -0.782790288218     0.436101493997    12.000000000000
         C           -7.380188291863    -1.499919840646     0.443517555538    12.000000000000
         C           -4.918688659982    -1.500408669094     0.448441992146    12.000000000000
         C           -3.684442475410    -0.795890966800     0.437409752082    12.000000000000
         C           -2.460821219973    -1.511998829889     0.447952838271    12.000000000000
         C           -1.231166192046    -0.810827515945     0.435832459479    12.000000000000
         C           -0.007573805113    -1.526072500475     0.443288983783    12.000000000000
         C            1.223643536163    -0.823929028328     0.453294605732    12.000000000000
         C            2.445666469606    -1.538296940071     0.441544592972    12.000000000000
         C            3.676862523121    -0.835361082620     0.437404008577    12.000000000000
         C            6.132244666694    -0.848632490914     0.435876034364    12.000000000000
         C            4.903514965779    -1.553111171605     0.449717108904    12.000000000000
         C            8.599010668965     0.523950215603     0.441188086379    12.000000000000
         C            8.591741308375    -0.833504518258     0.442924466640    12.000000000000
         C            7.364858584664    -1.578986316670     0.442694289948    12.000000000000
         H           -9.528310151544     1.168193798128     0.439497783785     1.007825032230
         H            9.541406794881     1.065918837380     0.440136054118     1.007825032230
         C           -7.369842089494    -2.888198796998     0.445325763960    12.000000000000
         C           -4.924603288776    -2.917090908405     0.437594131524    12.000000000000
         C           -6.166626675393    -3.625305843890     0.443895971683    12.000000000000
         C           -3.702514539430    -3.633335200185     0.447918200710    12.000000000000
         C           -2.467651164839    -2.929979613868     0.435873562353    12.000000000000
         C           -0.015137653833    -2.941795296464     0.436155150862    12.000000000000
         C           -1.247126020952    -3.643385826627     0.447719104270    12.000000000000
         C            1.209240889918    -3.656568329708     0.450258134061    12.000000000000
         C            2.437331842429    -2.956295389240     0.436118375751    12.000000000000
         C            4.894298164045    -2.969776619350     0.436939115822    12.000000000000
         C            3.664611075316    -3.672873496596     0.449818535762    12.000000000000
         C            6.128634835020    -3.691237708782     0.443164377720    12.000000000000
         C            7.339668484970    -2.967066958435     0.444679603802    12.000000000000
         H           -9.541453290984    -1.283217117729     0.444460251505     1.007825032230
         H            9.528257688346    -1.385572724969     0.444174274401     1.007825032230
         H           -8.315169223574    -3.426803504277     0.449497992491     1.007825032230
         H            8.279150962767    -3.515794440958     0.449019159784     1.007825032230
         C           -6.144998368428    -5.036300923848     0.445221969743    12.000000000000
         C           -3.706787527723    -5.049915365182     0.435401001655    12.000000000000
         C           -4.955594237727    -5.752147624559     0.443368136300    12.000000000000
         C           -2.486125505952    -5.763439225474     0.448340672700    12.000000000000
         C           -1.254062515205    -5.064775701066     0.437165066714    12.000000000000
         C            1.201008394143    -5.077934039257     0.438346190972    12.000000000000
         C           -0.030340854139    -5.778173954203     0.446189390635    12.000000000000
         C            3.653745921603    -5.089397426479     0.439104190720    12.000000000000
         C            2.425488516150    -5.789828286592     0.448481121272    12.000000000000
         C            6.091961438086    -5.101911614451     0.445458604393    12.000000000000
         C            4.894972264885    -5.805002072022     0.444222408563    12.000000000000
         H           -7.089896567766    -5.575653493303     0.449624731424     1.007825032230
         H            7.031051029475    -5.651312187397     0.449038384157     1.007825032230
         C           -4.923549501924    -7.187474750742     0.442813367395    12.000000000000
         C           -2.485346267963    -7.196381728994     0.440303474959    12.000000000000
         C           -3.751690071504    -7.872600808701     0.440498153884    12.000000000000
         C           -0.037953136713    -7.208118525534     0.440519200107    12.000000000000
         C           -1.277960280127    -7.881558035731     0.438534507345    12.000000000000
         C            2.409440141001    -7.222675663067     0.441382400918    12.000000000000
         C            1.194745757428    -7.894839016627     0.439230110036    12.000000000000
         C            4.847616872773    -7.239915761644     0.443889215577    12.000000000000
         C            3.668467426150    -7.912441644008     0.441540781213    12.000000000000
         H           -5.869944530142    -7.722484249106     0.444357404260     1.007825032230
         H            5.788245445663    -7.784985840379     0.445016335059     1.007825032230
         H           -3.753531119175    -8.959725220301     0.438662239455     1.007825032230
         H           -1.284308585620    -8.969529043562     0.434107123487     1.007825032230
         H            1.189217394970    -8.982814271654     0.435137473346     1.007825032230
         H            3.658542435098    -8.999514285118     0.439886239791     1.007825032230

  Charge       = 0
  Multiplicity = 1
  Basis Set: JUN-CC-PVDZ
    Blend: JUN-CC-PVDZ
  Basis Set: (JUN-CC-PVDZ AUX)
    Blend: JUN-CC-PVDZ-JKFIT

    Orbital Energies [Eh]
    ---------------------

    Doubly Occupied:

       1A    -11.263999     2A    -11.263681     3A    -11.263660
       4A    -11.263323     5A    -11.263313     6A    -11.263281
       7A    -11.263125     8A    -11.263112     9A    -11.263089
      10A    -11.262928    11A    -11.262775    12A    -11.262771
      13A    -11.262293    14A    -11.262288    15A    -11.262230
      16A    -11.262213    17A    -11.262161    18A    -11.262133
      19A    -11.262089    20A    -11.262052    21A    -11.262047
      22A    -11.261910    23A    -11.261890    24A    -11.261777
      25A    -11.261765    26A    -11.261747    27A    -11.261740
      28A    -11.261698    29A    -11.261685    30A    -11.261613
      31A    -11.261584    32A    -11.261582    33A    -11.261555
      34A    -11.261553    35A    -11.261532    36A    -11.261496
      37A    -11.261357    38A    -11.261349    39A    -11.261338
      40A    -11.261330    41A    -11.261323    42A    -11.261315
      43A    -11.261310    44A    -11.261294    45A    -11.261291
      46A    -11.261273    47A    -11.261261    48A    -11.261254
      49A    -11.261096    50A    -11.261063    51A    -11.261059
      52A    -11.260983    53A    -11.260977    54A    -11.260910
      55A    -11.259954    56A    -11.259931    57A    -11.259926
      58A    -11.259903    59A    -11.259894    60A    -11.259876
      61A    -11.259326    62A    -11.259294    63A    -11.259293
      64A    -11.259243    65A    -11.259238    66A    -11.259207
      67A    -11.258955    68A    -11.258931    69A    -11.258925
      70A    -11.258905    71A    -11.258895    72A    -11.258879
      73A    -11.254548    74A    -11.254544    75A    -11.254537
      76A    -11.254535    77A    -11.254528    78A    -11.254526
      79A    -11.253688    80A    -11.253680    81A    -11.253676
      82A    -11.253668    83A    -11.253665    84A    -11.253659
      85A    -11.253604    86A    -11.253595    87A    -11.253591
      88A    -11.253584    89A    -11.253581    90A    -11.253574
      91A    -11.253076    92A    -11.253072    93A    -11.253064
      94A    -11.253063    95A    -11.253056    96A    -11.253054
      97A     -1.253990    98A     -1.239037    99A     -1.239023
     100A     -1.220493   101A     -1.220485   102A     -1.215481
     103A     -1.201065   104A     -1.195629   105A     -1.188183
     106A     -1.188172   107A     -1.173787   108A     -1.173785
     109A     -1.155662   110A     -1.155658   111A     -1.152755
     112A     -1.144744   113A     -1.144740   114A     -1.128597
     115A     -1.114747   116A     -1.113184   117A     -1.112523
     118A     -1.112502   119A     -1.111638   120A     -1.088459
     121A     -1.088443   122A     -1.076982   123A     -1.076981
     124A     -1.067646   125A     -1.067615   126A     -1.065005
     127A     -1.046827   128A     -1.046818   129A     -1.040508
     130A     -1.038756   131A     -1.038754   132A     -1.025274
     133A     -1.021429   134A     -1.021372   135A     -1.007202
     136A     -1.006835   137A     -1.003819   138A     -1.000523
     139A     -1.000471   140A     -0.991095   141A     -0.971018
     142A     -0.970969   143A     -0.955907   144A     -0.955850
     145A     -0.905627   146A     -0.905589   147A     -0.905567
     148A     -0.905527   149A     -0.904373   150A     -0.892402
     151A     -0.892344   152A     -0.890395   153A     -0.890340
     154A     -0.889481   155A     -0.872239   156A     -0.869073
     157A     -0.851561   158A     -0.847895   159A     -0.847877
     160A     -0.845629   161A     -0.843044   162A     -0.834587
     163A     -0.834576   164A     -0.828138   165A     -0.828132
     166A     -0.784575   167A     -0.784566   168A     -0.783690
     169A     -0.783669   170A     -0.782315   171A     -0.782294
     172A     -0.782062   173A     -0.767011   174A     -0.760826
     175A     -0.750606   176A     -0.733505   177A     -0.727097
     178A     -0.727074   179A     -0.725108   180A     -0.724564
     181A     -0.724540   182A     -0.718527   183A     -0.713802
     184A     -0.713797   185A     -0.699601   186A     -0.699584
     187A     -0.686160   188A     -0.685976   189A     -0.685970
     190A     -0.682191   191A     -0.682182   192A     -0.678806
     193A     -0.653650   194A     -0.650896   195A     -0.650865
     196A     -0.649842   197A     -0.649832   198A     -0.649583
     199A     -0.640966   200A     -0.640932   201A     -0.640104
     202A     -0.639176   203A     -0.636050   204A     -0.636020
     205A     -0.629161   206A     -0.617756   207A     -0.615321
     208A     -0.615298   209A     -0.608820   210A     -0.608813
     211A     -0.599145   212A     -0.599133   213A     -0.598767
     214A     -0.598626   215A     -0.598612   216A     -0.598071
     217A     -0.595084   218A     -0.595071   219A     -0.594743
     220A     -0.594265   221A     -0.591980   222A     -0.591977
     223A     -0.587423   224A     -0.577809   225A     -0.577796
     226A     -0.575700   227A     -0.575697   228A     -0.573397
     229A     -0.569567   230A     -0.568172   231A     -0.568149
     232A     -0.566774   233A     -0.566766   234A     -0.560926
     235A     -0.558747   236A     -0.558718   237A     -0.558440
     238A     -0.554388   239A     -0.550579   240A     -0.547486
     241A     -0.544291   242A     -0.535005   243A     -0.534976
     244A     -0.533556   245A     -0.533536   246A     -0.528093
     247A     -0.528077   248A     -0.527823   249A     -0.517194
     250A     -0.517163   251A     -0.515369   252A     -0.515365
     253A     -0.509656   254A     -0.509642   255A     -0.498041
     256A     -0.496471   257A     -0.496438   258A     -0.493791
     259A     -0.493781   260A     -0.489432   261A     -0.481465
     262A     -0.477428   263A     -0.477427   264A     -0.474009
     265A     -0.469458   266A     -0.466541   267A     -0.466538
     268A     -0.458816   269A     -0.446715   270A     -0.446658
     271A     -0.441042   272A     -0.440766   273A     -0.440750
     274A     -0.434696   275A     -0.433913   276A     -0.407385
     277A     -0.407360   278A     -0.386414   279A     -0.386370
     280A     -0.385737   281A     -0.385736   282A     -0.383755
     283A     -0.354333   284A     -0.354312   285A     -0.350667
     286A     -0.338099   287A     -0.335600   288A     -0.335512
     289A     -0.332718   290A     -0.332713   291A     -0.307084
     292A     -0.301952   293A     -0.301885   294A     -0.300845
     295A     -0.286176   296A     -0.256472   297A     -0.253503
     298A     -0.253447   299A     -0.204264   300A     -0.204176

  @DF-RHF Final Energy: -3650.33934028410431

   => Energetics <=

    Nuclear Repulsion Energy =          15611.4211649754306563
    One-Electron Energy =              -36072.1334615888335975
    Two-Electron Energy =               16810.3729563293018145
    Total Energy =                      -3650.3393402841029456
 Dipole X            :         -0.0007192            0.0002112           -0.0005080
 Dipole Y            :        123.2161473         -123.2131634            0.0029839
 Dipole Z            :       -501.3747195          501.3848706            0.0101511
 Magnitude           :                                                    0.0105927

    SAPT Results
  --------------------------------------------------------------------------------------------------------
    Electrostatics                -10.27102447 [mEh]      -6.44516516 [kcal/mol]     -26.96657102 [kJ/mol]
      Elst10,r                    -10.27102447 [mEh]      -6.44516516 [kcal/mol]     -26.96657102 [kJ/mol]

    Exchange                        0.09343199 [mEh]       0.05862946 [kcal/mol]       0.24530567 [kJ/mol]
      Exch10                        0.09343199 [mEh]       0.05862946 [kcal/mol]       0.24530567 [kJ/mol]
      Exch10(S^2)                   0.09342820 [mEh]       0.05862708 [kcal/mol]       0.24529571 [kJ/mol]

    Induction                      -6.75076127 [mEh]      -4.23616665 [kcal/mol]     -17.72412126 [kJ/mol]
      Ind20,r                      -6.51463037 [mEh]      -4.08799228 [kcal/mol]     -17.10415969 [kJ/mol]
      Exch-Ind20,r                  0.02063949 [mEh]       0.01295147 [kcal/mol]       0.05418896 [kJ/mol]
      delta HF,r (2)               -0.25677038 [mEh]      -0.16112584 [kcal/mol]      -0.67415053 [kJ/mol]

    Dispersion                     -4.74125612 [mEh]      -2.97518313 [kcal/mol]     -12.44816623 [kJ/mol]
      Disp20                       -4.75451957 [mEh]      -2.98350607 [kcal/mol]     -12.48298941 [kJ/mol]
      Exch-Disp20                   0.01326345 [mEh]       0.00832294 [kcal/mol]       0.03482318 [kJ/mol]
      Disp20 (SS)                  -2.37725979 [mEh]      -1.49175304 [kcal/mol]      -6.24149471 [kJ/mol]
      Disp20 (OS)                  -2.37725979 [mEh]      -1.49175304 [kcal/mol]      -6.24149471 [kJ/mol]
      Exch-Disp20 (SS)              0.00902166 [mEh]       0.00566118 [kcal/mol]       0.02368637 [kJ/mol]
      Exch-Disp20 (OS)              0.00424179 [mEh]       0.00266176 [kcal/mol]       0.01113681 [kJ/mol]

  Total HF                        -16.92835374 [mEh]     -10.62270235 [kcal/mol]     -44.44538662 [kJ/mol]
  Total SAPT0                     -21.66960986 [mEh]     -13.59788548 [kcal/mol]     -56.89355285 [kJ/mol]

  Special recipe for scaled SAPT0 (see Manual):
    Electrostatics sSAPT0         -10.27102447 [mEh]      -6.44516516 [kcal/mol]     -26.96657102 [kJ/mol]
    Exchange sSAPT0                 0.09343199 [mEh]       0.05862946 [kcal/mol]       0.24530567 [kJ/mol]
    Induction sSAPT0               -6.75075875 [mEh]      -4.23616507 [kcal/mol]     -17.72411467 [kJ/mol]
    Dispersion sSAPT0              -4.74125451 [mEh]      -2.97518212 [kcal/mol]     -12.44816200 [kJ/mol]
  Total sSAPT0                    -21.66960574 [mEh]     -13.59788289 [kcal/mol]     -56.89354202 [kJ/mol]
  --------------------------------------------------------------------------------------------------------

*** Psi4 exiting successfully. Buy a developer a beer!
