                               Psi4 1.9 release

  ==> Input File <==

--------------------------------------------------------------------------
memory 47 GB # how much memory is available ! Depends on the nodes/cores !

molecule dimer {
# monomer A
-1 1    # Charge and multiplicity
B -1.977592e-04  2.742729e-04 4.600034
F  1.123153e-16  1.430594e-17 6.012819
F  1.147860e+00  6.757812e-01 4.128893
F  1.191806e-02 -1.332011e+00 4.129095
F -1.159666e+00  6.560735e-01 4.129174
--
# monomer B
0 1     # Charge and multiplicity
C   -3.66844126402057      7.80375217008252      0.00190004133558
C   -4.84759871934653      7.13124183134024     -0.00046653359696
C   -4.89495929917518      5.69633040353158     -0.00103944469517
C   -3.65374067877320      4.98073034095895      0.00662099703436
C   -2.40942512149445      7.11398103667468      0.00209438359570
C   -2.42547734410473      5.68112195090346     -0.00491050527438
C   -1.19474401643570      7.78614419430947      0.00356656413763
C   0.03795902893699      7.09942164575698      0.00139585983271
C   0.03033258741920      5.66948955970466     -0.00408752508301
C   -1.20098450790502      4.96927034791531      0.00488220885047
C   1.27795782581485      7.77285944319479      0.00277170839332
C   2.48535808472416      7.08769688523756      0.00049722048857
C   2.48612868491717      5.65477081024076     -0.00644052849921
C   1.25408291964399      4.95607811366431      0.00518741308898
C   3.75171459140595      7.76391215098033      0.00062407186893
C   4.92356605618520      7.07878077698995     -0.00143240883900
C   4.95560727132542      5.64344746336949     -0.00159282164606
C   3.70680153420475      4.94121020833308      0.00349873852374
H   -3.65852113775815      8.89082741913536      0.00358502958574
H   -1.18921332975660      8.87412108735996      0.00753844057883
H   1.28429423888630      8.86083343548850      0.00693053253426
H   3.75354208679975      8.85103527897216      0.00214659618464
H   5.86995870320703      7.61379483465560     -0.00235777588134
H   -5.78823170750226      7.67630221293400     -0.00202638095293
C   -6.09197395869619      4.99326001364347     -0.00291168518608
C   -6.12866148031747      3.58258016879823     -0.00171050815740
C   -3.66457974004527      3.56418217974434     -0.00463560277484
C   -4.89429820469869      2.86108077590057      0.00453338221034
C   -2.43733499489796      2.84761165708481      0.00719617576166
C   -1.20922785759670      3.54788693497833     -0.00648285103018
C   1.24714157216223      3.53468075142962     -0.00729145743546
C   0.01517603956900      2.83311183930540      0.00439272578912
C   2.46764517244071      2.82128997725533      0.00449278391269
C   3.70254947457969      3.52466015442405     -0.00899517692985
C   6.14498038638375      4.92757236613191     -0.00282626685777
C   6.16658835886151      3.51658447594213     -0.00065971342101
C   4.92460995845939      2.80840792535402      0.00587903281610
H   7.08990550964105      5.46688776622306     -0.00658814770723
H   -7.03104175110130      5.54268795285765     -0.00714490013730
C   -7.33969804112295      2.85841153457957     -0.00333767559888
C   -7.36488195805880      1.47032337158330     -0.00157213747140
C   -4.90350460894690      1.44442681216000     -0.00628840166334
C   -6.13225715261081      0.73993935705394      0.00600164231964
C   -3.67687480051673      0.72669714267312      0.00433931473643
C   -2.44565658606518      1.42964113326212     -0.00597039546461
C   -1.22360068130162      0.71532450163492      0.00545886906656
C   0.00763786931376      1.41738314923765      0.00392452278437
C   1.23121980774686      0.70211669058719     -0.01490206287210
C   2.46082110053113      1.40329203612573      0.00460244601878
C   3.68443025419614      0.68719842821222      0.00377365974158
C   4.91870890153864      1.39173456118907     -0.00862816189375
C   7.36980207796101      2.77948220318441     -0.00242013321349
C   7.38016266612146      1.39121750785509     -0.00087345036788
C   6.13979953912259      0.67411862320065      0.00545489144369
H   -8.27919079934664      3.40711804112415     -0.00763522772059
H   8.31511347147953      3.31811809662368     -0.00663070901292
C   -8.59175593758115      0.72483255304480     -0.00123170985383
C   -8.59902460370342     -0.63263980622873      0.00089141472904
C   -6.13981313911873     -0.67413663715361     -0.00609792660607
C   -7.38018411213749     -1.39126618958160      0.00131813493501
C   -4.91868448025621     -1.39175501803000      0.00624257154343
C   -3.68443829568458     -0.68723731573599     -0.00478966852105
C   -2.46081704024768     -1.40334517882457      0.00575341766833
C   -1.23116201232071     -0.70217386488055     -0.00636696112346
C   -0.00756962538737     -1.41741884941102      0.00108956317991
C   1.22364771588843     -0.71527537726392      0.01109518512883
C   2.44567064933149     -1.42964328900682     -0.00065482763106
C   3.67686670284649     -0.72670743155550     -0.00479541202602
C   6.13224884641929     -0.73997883984993     -0.00632338623858
C   4.90351914550401     -1.44445752054090      0.00751768830159
C   8.59901484869081      0.63260386666793     -0.00101133422380
C   8.59174548810050     -0.72485086719319      0.00072504603735
C   7.36486276438985     -1.47033266560598      0.00049486934466
H   -9.52830597181814      1.27684744919284     -0.00270163681798
H   9.54141097460619      1.17457248844457     -0.00206336648518
C   -7.36983790976868     -2.77954514593389      0.00312634335708
C   -4.92459910905015     -2.80843725734101     -0.00460528907921
C   -6.16662249566744     -3.51665219282533      0.00169655107992
C   -3.70251035970491     -3.52468154912026      0.00571878010666
C   -2.46764698511392     -2.82132596280400     -0.00632585824990
C   -0.01513347410770     -2.83314164539971     -0.00604426974092
C   -1.24712184122656     -3.53473217556300      0.00551968366725
C   1.20924506964357     -3.54791467864352      0.00805871345849
C   2.43733602215464     -2.84764173817541     -0.00608104485234
C   4.89430234377080     -2.86112296828604     -0.00526030478103
C   3.66461525504104     -3.56421984553201      0.00761911515957
C   6.12863901474565     -3.58258405771778      0.00096495711699
C   7.33967266469532     -2.85841330737039      0.00248018319869
H   -9.54144911125902     -1.17456346666430      0.00226083090216
H   9.52826186807155     -1.27691907390448      0.00197485379837
H   -8.31516504384864     -3.31814985321231      0.00729857188773
H   8.27915514249207     -3.40714078989363      0.00681973918158
C   -6.14499418870218     -4.92764727278338      0.00302254913999
C   -3.70678334799751     -4.94126171411716     -0.00679841894792
C   -4.95559005800169     -5.64349397349412      0.00116871569699
C   -2.48612132622665     -5.65478557440947      0.00614125209662
C   -1.25405833548005     -4.95612205000132     -0.00503435388927
C   1.20101257386816     -4.96928038819302     -0.00385322963129
C   -0.03033667441341     -5.66952030313900      0.00398997003238
C   3.65375010132847     -4.98074377541453     -0.00309522988330
C   2.42549269587528     -5.68117463552727      0.00628170066869
C   6.09196561781097     -4.99325796338655      0.00325918379042
C   4.89497644461045     -5.69634842095790      0.00202298796027
H   -7.08989238804069     -5.46699984223871      0.00742531082125
H   7.03105520920009     -5.54265853633254      0.00683896355417
C   -4.92354532219813     -7.07882109967734      0.00061394679214
C   -2.48534208823777     -7.08772807792913     -0.00189594564379
C   -3.75168589177895     -7.76394715763627     -0.00170126671874
C   -0.03794895698805     -7.09946487446944     -0.00168022049625
C   -1.27795610040136     -7.77290438466689     -0.00366491325785
C   2.40944432072629     -7.11402201200282     -0.00081701968533
C   1.19474993715296     -7.78618536556242     -0.00296931056689
C   4.84762105249800     -7.13126211057943      0.00168979497423
C   3.66847160587561     -7.80378799294376     -0.00065863938960
H   -5.86994035041618     -7.61383059804164      0.00215798365757
H   5.78824962538815     -7.67633218931421      0.00281691445618
H   -3.75352693944918     -8.85107156923607     -0.00353718114765
H   -1.28430440589466     -8.86087539249706     -0.00809229711623
H   1.18922157469537     -8.87416062058945     -0.00706194725726
H   3.65854661482387     -8.89086063405326     -0.00231318081200

    units angstrom      # Angstroms are the default
    no_reorient         # Geometry fixed, default
    symmetry c1         # C1 symmetry, default
}

set {
    scf_type DF         # Density fitting, faster than exact integrals
    freeze_core True    # Freeze core electrons
    basis jun-cc-pVDZ   # Jun-cc-pVDZ basis set, recommended for sSAPT0 in https://doi.org/10.1063/1.4867135
}

energy('ssapt0')        # Compute sSAPT0 energy, includes also SAPT0
--------------------------------------------------------------------------

  //              Dimer HF             //
    Molecular point group: c1
  Charge       = -1
  Multiplicity = 1
  Basis Set: JUN-CC-PVDZ
    Blend: JUN-CC-PVDZ
  Basis Set: (JUN-CC-PVDZ AUX)
    Blend: JUN-CC-PVDZ-JKFIT
  @DF-RHF Final Energy: -4073.10983265727691
    Total Energy =                      -4073.1098326572755468
 Dipole X            :          0.0003261           -0.0000548            0.0002713
 Dipole Y            :          0.0011969           -0.0002464            0.0009505
 Dipole Z            :         20.6247369          -27.3756582           -6.7509213
 Magnitude           :                                                    6.7509213
  //            Monomer A HF           //
    Molecular point group: c1
  Multiplicity = 1
  Basis Set: JUN-CC-PVDZ
    Blend: JUN-CC-PVDZ
  Basis Set: (JUN-CC-PVDZ AUX)
    Blend: JUN-CC-PVDZ-JKFIT
  @DF-RHF Final Energy:  -422.77232594105254
    Total Energy =                       -422.7723259410525429
  //            Monomer B HF           //
    Molecular point group: c1

    Geometry (in Angstrom), charge = 0, multiplicity = 1:

       Center              X                  Y                   Z               Mass
    ------------   -----------------  -----------------  -----------------  -----------------
      Gh(B)          -0.000201921932     0.000288800891     4.283203472147    11.009305360000
      Gh(F)          -0.000004162732     0.000014527991     5.695988472147    18.998403162730
      Gh(F)           1.147855837268     0.675795727991     3.812062472147    18.998403162730
      Gh(F)           0.011913897268    -1.331996472009     3.812264472147    18.998403162730
      Gh(F)          -1.159670162732     0.656088027991     3.812343472147    18.998403162730
         C           -3.668445426752     7.803766698073    -0.314930486517    12.000000000000
         C           -4.847602882078     7.131256359331    -0.317297061449    12.000000000000
         C           -4.894963461907     5.696344931522    -0.317869972548    12.000000000000
         C           -3.653744841505     4.980744868950    -0.310209530818    12.000000000000
         C           -2.409429284226     7.113995564665    -0.314736144257    12.000000000000
         C           -2.425481506836     5.681136478894    -0.321741033127    12.000000000000
         C           -1.194748179167     7.786158722300    -0.313263963715    12.000000000000
         C            0.037954866205     7.099436173748    -0.315434668020    12.000000000000
         C            0.030328424687     5.669504087695    -0.320918052936    12.000000000000
         C           -1.200988670637     4.969284875906    -0.311948319002    12.000000000000
         C            1.277953663083     7.772873971185    -0.314058819459    12.000000000000
         C            2.485353921992     7.087711413228    -0.316333307364    12.000000000000
         C            2.486124522185     5.654785338231    -0.323271056352    12.000000000000
         C            1.254078756912     4.956092641655    -0.311643114764    12.000000000000
         C            3.751710428674     7.763926678971    -0.316206455984    12.000000000000
         C            4.923561893453     7.078795304981    -0.318262936692    12.000000000000
         C            4.955603108594     5.643461991360    -0.318423349499    12.000000000000
         C            3.706797371473     4.941224736324    -0.313331789329    12.000000000000
         H           -3.658525300490     8.890841947126    -0.313245498267     1.007825032230
         H           -1.189217492488     8.874135615351    -0.309292087274     1.007825032230
         H            1.284290076155     8.860847963479    -0.309899995318     1.007825032230
         H            3.753537924068     8.851049806963    -0.314683931668     1.007825032230
         H            5.869954540475     7.613809362646    -0.319188303734     1.007825032230
         H           -5.788235870234     7.676316740925    -0.318856908805     1.007825032230
         C           -6.091978121428     4.993274541634    -0.319742213039    12.000000000000
         C           -6.128665643049     3.582594696789    -0.318541036010    12.000000000000
         C           -3.664583902777     3.564196707735    -0.321466130627    12.000000000000
         C           -4.894302367430     2.861095303891    -0.312297145642    12.000000000000
         C           -2.437339157630     2.847626185075    -0.309634352091    12.000000000000
         C           -1.209232020328     3.547901462969    -0.323313378883    12.000000000000
         C            1.247137409430     3.534695279420    -0.324121985288    12.000000000000
         C            0.015171876837     2.833126367296    -0.312437802063    12.000000000000
         C            2.467641009709     2.821304505246    -0.312337743940    12.000000000000
         C            3.702545311848     3.524674682415    -0.325825704782    12.000000000000
         C            6.144976223652     4.927586894122    -0.319656794710    12.000000000000
         C            6.166584196130     3.516599003933    -0.317490241274    12.000000000000
         C            4.924605795728     2.808422453345    -0.310951495036    12.000000000000
         H            7.089901346909     5.466902294214    -0.323418675560     1.007825032230
         H           -7.031045913833     5.542702480848    -0.323975427990     1.007825032230
         C           -7.339702203855     2.858426062570    -0.320168203451    12.000000000000
         C           -7.364886120791     1.470337899574    -0.318402665324    12.000000000000
         C           -4.903508771679     1.444441340151    -0.323118929516    12.000000000000
         C           -6.132261315343     0.739953885044    -0.310828885533    12.000000000000
         C           -3.676878963248     0.726711670664    -0.312491213116    12.000000000000
         C           -2.445660748797     1.429655661253    -0.322800923317    12.000000000000
         C           -1.223604844033     0.715339029625    -0.311371658786    12.000000000000
         C            0.007633706582     1.417397677228    -0.312906005068    12.000000000000
         C            1.231215645015     0.702131218578    -0.331732590725    12.000000000000
         C            2.460816937799     1.403306564116    -0.312228081834    12.000000000000
         C            3.684426091464     0.687212956203    -0.313056868111    12.000000000000
         C            4.918704738807     1.391749089180    -0.325458689746    12.000000000000
         C            7.369797915229     2.779496731175    -0.319250661066    12.000000000000
         C            7.380158503390     1.391232035846    -0.317703978220    12.000000000000
         C            6.139795376391     0.674133151191    -0.311375636409    12.000000000000
         H           -8.279194962078     3.407132569115    -0.324465755573     1.007825032230
         H            8.315109308748     3.318132624614    -0.323461236865     1.007825032230
         C           -8.591760100313     0.724847081035    -0.318062237706    12.000000000000
         C           -8.599028766435    -0.632625278238    -0.315939113123    12.000000000000
         C           -6.139817301850    -0.674122109163    -0.322928454459    12.000000000000
         C           -7.380188274869    -1.391251661591    -0.315512392917    12.000000000000
         C           -4.918688642988    -1.391740490039    -0.310587956309    12.000000000000
         C           -3.684442458416    -0.687222787745    -0.321620196374    12.000000000000
         C           -2.460821202979    -1.403330650834    -0.311077110184    12.000000000000
         C           -1.231166175052    -0.702159336890    -0.323197488976    12.000000000000
         C           -0.007573788119    -1.417404321420    -0.315740964673    12.000000000000
         C            1.223643553157    -0.715260849273    -0.305735342724    12.000000000000
         C            2.445666486600    -1.429628761016    -0.317485355484    12.000000000000
         C            3.676862540115    -0.726692903565    -0.321625939879    12.000000000000
         C            6.132244683688    -0.739964311859    -0.323153914091    12.000000000000
         C            4.903514982772    -1.444442992550    -0.309312839551    12.000000000000
         C            8.599010685959     0.632618394658    -0.317841862076    12.000000000000
         C            8.591741325369    -0.724836339203    -0.316105481815    12.000000000000
         C            7.364858601658    -1.470318137615    -0.316335658508    12.000000000000
         H           -9.528310134550     1.276861977183    -0.319532164670     1.007825032230
         H            9.541406811874     1.174587016435    -0.318893894338     1.007825032230
         C           -7.369842072500    -2.779530617943    -0.313704184495    12.000000000000
         C           -4.924603271782    -2.808422729350    -0.321435816932    12.000000000000
         C           -6.166626658399    -3.516637664835    -0.315133976773    12.000000000000
         C           -3.702514522437    -3.524667021130    -0.311111747746    12.000000000000
         C           -2.467651147846    -2.821311434813    -0.323156386102    12.000000000000
         C           -0.015137636839    -2.833127117409    -0.322874797593    12.000000000000
         C           -1.247126003958    -3.534717647572    -0.311310844185    12.000000000000
         C            1.209240906912    -3.547900150653    -0.308771814394    12.000000000000
         C            2.437331859423    -2.847627210185    -0.322911572705    12.000000000000
         C            4.894298181039    -2.861108440295    -0.322090832634    12.000000000000
         C            3.664611092309    -3.564205317541    -0.309211412693    12.000000000000
         C            6.128634852014    -3.582569529727    -0.315865570736    12.000000000000
         C            7.339668501964    -2.858398779380    -0.314350344654    12.000000000000
         H           -9.541453273991    -1.174548938674    -0.314569696950     1.007825032230
         H            9.528257705340    -1.276904545914    -0.314855674054     1.007825032230
         H           -8.315169206580    -3.318135325222    -0.309531955965     1.007825032230
         H            8.279150979760    -3.407126261903    -0.310010788671     1.007825032230
         C           -6.144998351434    -4.927632744793    -0.313807978713    12.000000000000
         C           -3.706787510729    -4.941247186127    -0.323628946800    12.000000000000
         C           -4.955594220733    -5.643479445504    -0.315661812156    12.000000000000
         C           -2.486125488958    -5.654771046419    -0.310689275756    12.000000000000
         C           -1.254062498212    -4.956107522011    -0.321864881742    12.000000000000
         C            1.201008411136    -4.969265860202    -0.320683757484    12.000000000000
         C           -0.030340837145    -5.669505775148    -0.312840557820    12.000000000000
         C            3.653745938597    -4.980729247424    -0.319925757736    12.000000000000
         C            2.425488533144    -5.681160107537    -0.310548827184    12.000000000000
         C            6.091961455079    -4.993243435396    -0.313571344062    12.000000000000
         C            4.894972281879    -5.696333892967    -0.314807539892    12.000000000000
         H           -7.089896550772    -5.466985314248    -0.309405217031     1.007825032230
         H            7.031051046468    -5.542644008342    -0.309991564298     1.007825032230
         C           -4.923549484930    -7.078806571687    -0.316216581060    12.000000000000
         C           -2.485346250970    -7.087713549939    -0.318726473496    12.000000000000
         C           -3.751690054511    -7.763932629646    -0.318531794571    12.000000000000
         C           -0.037953119720    -7.099450346479    -0.318510748349    12.000000000000
         C           -1.277960263133    -7.772889856676    -0.320495441110    12.000000000000
         C            2.409440157995    -7.114007484012    -0.317647547538    12.000000000000
         C            1.194745774421    -7.786170837572    -0.319799838419    12.000000000000
         C            4.847616889766    -7.131247582589    -0.315140732878    12.000000000000
         C            3.668467443144    -7.803773464953    -0.317489167242    12.000000000000
         H           -5.869944513148    -7.613816070051    -0.314672544195     1.007825032230
         H            5.788245462656    -7.676317661324    -0.314013613396     1.007825032230
         H           -3.753531102181    -8.851057041246    -0.320367709000     1.007825032230
         H           -1.284308568626    -8.860860864507    -0.324922824969     1.007825032230
         H            1.189217411964    -8.874146092599    -0.323892475110     1.007825032230
         H            3.658542452092    -8.890846106063    -0.319143708665     1.007825032230

  Charge       = 0
  Multiplicity = 1
  Basis Set: JUN-CC-PVDZ
    Blend: JUN-CC-PVDZ
  Basis Set: (JUN-CC-PVDZ AUX)
    Blend: JUN-CC-PVDZ-JKFIT

    Orbital Energies [Eh]
    ---------------------

    Doubly Occupied:

       1A    -11.264039     2A    -11.263705     3A    -11.263702
       4A    -11.263328     5A    -11.263327     6A    -11.263289
       7A    -11.263140     8A    -11.263121     9A    -11.263118
      10A    -11.262922    11A    -11.262780    12A    -11.262775
      13A    -11.262293    14A    -11.262290    15A    -11.262236
      16A    -11.262235    17A    -11.262157    18A    -11.262138
      19A    -11.262097    20A    -11.262057    21A    -11.262055
      22A    -11.261923    23A    -11.261919    24A    -11.261785
      25A    -11.261773    26A    -11.261757    27A    -11.261752
      28A    -11.261709    29A    -11.261701    30A    -11.261614
      31A    -11.261591    32A    -11.261587    33A    -11.261561
      34A    -11.261559    35A    -11.261542    36A    -11.261529
      37A    -11.261362    38A    -11.261353    39A    -11.261347
      40A    -11.261341    41A    -11.261336    42A    -11.261329
      43A    -11.261317    44A    -11.261301    45A    -11.261297
      46A    -11.261273    47A    -11.261270    48A    -11.261265
      49A    -11.261094    50A    -11.261062    51A    -11.261058
      52A    -11.260982    53A    -11.260979    54A    -11.260915
      55A    -11.259952    56A    -11.259938    57A    -11.259936
      58A    -11.259907    59A    -11.259905    60A    -11.259889
      61A    -11.259324    62A    -11.259299    63A    -11.259296
      64A    -11.259244    65A    -11.259241    66A    -11.259212
      67A    -11.258955    68A    -11.258937    69A    -11.258935
      70A    -11.258907    71A    -11.258905    72A    -11.258893
      73A    -11.254550    74A    -11.254548    75A    -11.254546
      76A    -11.254543    77A    -11.254539    78A    -11.254537
      79A    -11.253686    80A    -11.253684    81A    -11.253680
      82A    -11.253678    83A    -11.253677    84A    -11.253673
      85A    -11.253601    86A    -11.253600    87A    -11.253596
      88A    -11.253594    89A    -11.253593    90A    -11.253589
      91A    -11.253077    92A    -11.253076    93A    -11.253074
      94A    -11.253071    95A    -11.253067    96A    -11.253065
      97A     -1.253983    98A     -1.239039    99A     -1.239038
     100A     -1.220503   101A     -1.220498   102A     -1.215474
     103A     -1.201077   104A     -1.195644   105A     -1.188177
     106A     -1.188175   107A     -1.173800   108A     -1.173797
     109A     -1.155667   110A     -1.155664   111A     -1.152749
     112A     -1.144757   113A     -1.144754   114A     -1.128606
     115A     -1.114753   116A     -1.113196   117A     -1.112517
     118A     -1.112502   119A     -1.111652   120A     -1.088466
     121A     -1.088451   122A     -1.076994   123A     -1.076993
     124A     -1.067653   125A     -1.067623   126A     -1.065006
     127A     -1.046838   128A     -1.046831   129A     -1.040517
     130A     -1.038768   131A     -1.038767   132A     -1.025278
     133A     -1.021423   134A     -1.021372   135A     -1.007216
     136A     -1.006851   137A     -1.003830   138A     -1.000526
     139A     -1.000478   140A     -0.991106   141A     -0.971026
     142A     -0.970977   143A     -0.955916   144A     -0.955860
     145A     -0.905631   146A     -0.905589   147A     -0.905581
     148A     -0.905540   149A     -0.904371   150A     -0.892408
     151A     -0.892349   152A     -0.890402   153A     -0.890344
     154A     -0.889494   155A     -0.872250   156A     -0.869084
     157A     -0.851574   158A     -0.847904   159A     -0.847882
     160A     -0.845635   161A     -0.843056   162A     -0.834600
     163A     -0.834588   164A     -0.828147   165A     -0.828143
     166A     -0.784583   167A     -0.784572   168A     -0.783695
     169A     -0.783668   170A     -0.782323   171A     -0.782303
     172A     -0.782069   173A     -0.767028   174A     -0.760831
     175A     -0.750607   176A     -0.733517   177A     -0.727106
     178A     -0.727092   179A     -0.725119   180A     -0.724577
     181A     -0.724558   182A     -0.718525   183A     -0.713806
     184A     -0.713800   185A     -0.699608   186A     -0.699595
     187A     -0.686155   188A     -0.685990   189A     -0.685986
     190A     -0.682207   191A     -0.682197   192A     -0.678803
     193A     -0.653655   194A     -0.650903   195A     -0.650873
     196A     -0.649847   197A     -0.649831   198A     -0.649597
     199A     -0.640961   200A     -0.640934   201A     -0.640120
     202A     -0.639193   203A     -0.636052   204A     -0.636025
     205A     -0.629175   206A     -0.617760   207A     -0.615334
     208A     -0.615313   209A     -0.608834   210A     -0.608827
     211A     -0.599138   212A     -0.599101   213A     -0.598773
     214A     -0.598643   215A     -0.598619   216A     -0.598067
     217A     -0.595097   218A     -0.595085   219A     -0.594752
     220A     -0.594269   221A     -0.591985   222A     -0.591982
     223A     -0.587424   224A     -0.577821   225A     -0.577811
     226A     -0.575683   227A     -0.575680   228A     -0.573413
     229A     -0.569591   230A     -0.568171   231A     -0.568147
     232A     -0.566783   233A     -0.566773   234A     -0.560938
     235A     -0.558748   236A     -0.558729   237A     -0.558453
     238A     -0.554398   239A     -0.550571   240A     -0.547499
     241A     -0.544282   242A     -0.535029   243A     -0.534991
     244A     -0.533564   245A     -0.533542   246A     -0.528105
     247A     -0.528090   248A     -0.527824   249A     -0.517191
     250A     -0.517157   251A     -0.515369   252A     -0.515364
     253A     -0.509670   254A     -0.509654   255A     -0.498057
     256A     -0.496479   257A     -0.496453   258A     -0.493803
     259A     -0.493792   260A     -0.489448   261A     -0.481479
     262A     -0.477435   263A     -0.477432   264A     -0.474023
     265A     -0.469472   266A     -0.466555   267A     -0.466550
     268A     -0.458814   269A     -0.446718   270A     -0.446658
     271A     -0.441044   272A     -0.440781   273A     -0.440758
     274A     -0.434702   275A     -0.433923   276A     -0.407387
     277A     -0.407363   278A     -0.386420   279A     -0.386372
     280A     -0.385745   281A     -0.385744   282A     -0.383766
     283A     -0.354333   284A     -0.354316   285A     -0.350672
     286A     -0.338107   287A     -0.335606   288A     -0.335535
     289A     -0.332727   290A     -0.332720   291A     -0.307081
     292A     -0.301952   293A     -0.301890   294A     -0.300859
     295A     -0.286186   296A     -0.256480   297A     -0.253511
     298A     -0.253458   299A     -0.204274   300A     -0.204185

  @DF-RHF Final Energy: -3650.33927533830183

   => Energetics <=

    Nuclear Repulsion Energy =          15611.4211649754324753
    One-Electron Energy =              -36072.1287723757995991
    Two-Electron Energy =               16810.3683320620657469
    Total Energy =                      -3650.3392753383013769
 Dipole X            :         -0.0006510            0.0002304           -0.0004206
 Dipole Y            :          0.0011872           -0.0013052           -0.0001180
 Dipole Z            :        359.2235026         -359.2303636           -0.0068610
 Magnitude           :                                                    0.0068749

    SAPT Results
  --------------------------------------------------------------------------------------------------------
    Electrostatics                 11.67521395 [mEh]       7.32630736 [kcal/mol]      30.65327000 [kJ/mol]
      Elst10,r                     11.67521395 [mEh]       7.32630736 [kcal/mol]      30.65327000 [kJ/mol]

    Exchange                        0.23984466 [mEh]       0.15050480 [kcal/mol]       0.62971207 [kJ/mol]
      Exch10                        0.23984466 [mEh]       0.15050480 [kcal/mol]       0.62971207 [kJ/mol]
      Exch10(S^2)                   0.23985596 [mEh]       0.15051188 [kcal/mol]       0.62974172 [kJ/mol]

    Induction                     -10.14643653 [mEh]      -6.36698505 [kcal/mol]     -26.63946544 [kJ/mol]
      Ind20,r                     -10.24089142 [mEh]      -6.42625639 [kcal/mol]     -26.88745672 [kJ/mol]
      Exch-Ind20,r                  0.04859986 [mEh]       0.03049687 [kcal/mol]       0.12759891 [kJ/mol]
      delta HF,r (2)                0.04585503 [mEh]       0.02877447 [kcal/mol]       0.12039237 [kJ/mol]

    Dispersion                     -3.37216497 [mEh]      -2.11606547 [kcal/mol]      -8.85361791 [kJ/mol]
      Disp20                       -3.43844092 [mEh]      -2.15765426 [kcal/mol]      -9.02762540 [kJ/mol]
      Exch-Disp20                   0.06627596 [mEh]       0.04158879 [kcal/mol]       0.17400750 [kJ/mol]
      Disp20 (SS)                  -1.71922046 [mEh]      -1.07882713 [kcal/mol]      -4.51381270 [kJ/mol]
      Disp20 (OS)                  -1.71922046 [mEh]      -1.07882713 [kcal/mol]      -4.51381270 [kJ/mol]
      Exch-Disp20 (SS)              0.04526460 [mEh]       0.02840396 [kcal/mol]       0.11884219 [kJ/mol]
      Exch-Disp20 (OS)              0.02101136 [mEh]       0.01318483 [kcal/mol]       0.05516531 [kJ/mol]

  Total HF                          1.76862208 [mEh]       1.10982711 [kcal/mol]       4.64351663 [kJ/mol]
  Total SAPT0                      -1.60354289 [mEh]      -1.00623836 [kcal/mol]      -4.21010128 [kJ/mol]

  Special recipe for scaled SAPT0 (see Manual):
    Electrostatics sSAPT0          11.67521395 [mEh]       7.32630736 [kcal/mol]      30.65327000 [kJ/mol]
    Exchange sSAPT0                 0.23984466 [mEh]       0.15050480 [kcal/mol]       0.62971207 [kJ/mol]
    Induction sSAPT0              -10.14644340 [mEh]      -6.36698936 [kcal/mol]     -26.63948347 [kJ/mol]
    Dispersion sSAPT0              -3.37217433 [mEh]      -2.11607134 [kcal/mol]      -8.85364249 [kJ/mol]
  Total sSAPT0                     -1.60355912 [mEh]      -1.00624854 [kcal/mol]      -4.21014389 [kJ/mol]
  --------------------------------------------------------------------------------------------------------

*** Psi4 exiting successfully. Buy a developer a beer!
