                               Psi4 1.9 release

  ==> Input File <==

--------------------------------------------------------------------------
memory 80 GB # how much memory is available ! Depends on the nodes/cores !

molecule dimer {
# monomer A
+1 1    # Charge and multiplicity
C  0.680067 -0.008042 -5.715929
C -0.680504 -0.006014 -5.715545
N -1.085635 -0.005016 -4.397221
C  0.000108 -0.001740 -3.615820
C -2.477365  0.044390 -3.929242
N  1.085222 -0.005016 -4.397221
H  1.385146 -0.015870 -6.533368
H -1.385302 -0.006204 -6.533214
H -0.000009  0.000007 -2.534731
C  2.478117 -0.021908 -3.932123
H  2.490592  0.005437 -2.841870
H  2.967028 -0.935354 -4.279299
H  3.001428  0.853575 -4.323595
H -2.857359  1.066461 -4.009201
H -3.082679 -0.625694 -4.542306
H -2.518128 -0.282594 -2.889294
--
# monomer B
0 1     # Charge and multiplicity
C   -3.66844126402057      7.80375217008252      0.00190004133558
C   -4.84759871934653      7.13124183134024     -0.00046653359696
C   -4.89495929917518      5.69633040353158     -0.00103944469517
C   -3.65374067877320      4.98073034095895      0.00662099703436
C   -2.40942512149445      7.11398103667468      0.00209438359570
C   -2.42547734410473      5.68112195090346     -0.00491050527438
C   -1.19474401643570      7.78614419430947      0.00356656413763
C   0.03795902893699      7.09942164575698      0.00139585983271
C   0.03033258741920      5.66948955970466     -0.00408752508301
C   -1.20098450790502      4.96927034791531      0.00488220885047
C   1.27795782581485      7.77285944319479      0.00277170839332
C   2.48535808472416      7.08769688523756      0.00049722048857
C   2.48612868491717      5.65477081024076     -0.00644052849921
C   1.25408291964399      4.95607811366431      0.00518741308898
C   3.75171459140595      7.76391215098033      0.00062407186893
C   4.92356605618520      7.07878077698995     -0.00143240883900
C   4.95560727132542      5.64344746336949     -0.00159282164606
C   3.70680153420475      4.94121020833308      0.00349873852374
H   -3.65852113775815      8.89082741913536      0.00358502958574
H   -1.18921332975660      8.87412108735996      0.00753844057883
H   1.28429423888630      8.86083343548850      0.00693053253426
H   3.75354208679975      8.85103527897216      0.00214659618464
H   5.86995870320703      7.61379483465560     -0.00235777588134
H   -5.78823170750226      7.67630221293400     -0.00202638095293
C   -6.09197395869619      4.99326001364347     -0.00291168518608
C   -6.12866148031747      3.58258016879823     -0.00171050815740
C   -3.66457974004527      3.56418217974434     -0.00463560277484
C   -4.89429820469869      2.86108077590057      0.00453338221034
C   -2.43733499489796      2.84761165708481      0.00719617576166
C   -1.20922785759670      3.54788693497833     -0.00648285103018
C   1.24714157216223      3.53468075142962     -0.00729145743546
C   0.01517603956900      2.83311183930540      0.00439272578912
C   2.46764517244071      2.82128997725533      0.00449278391269
C   3.70254947457969      3.52466015442405     -0.00899517692985
C   6.14498038638375      4.92757236613191     -0.00282626685777
C   6.16658835886151      3.51658447594213     -0.00065971342101
C   4.92460995845939      2.80840792535402      0.00587903281610
H   7.08990550964105      5.46688776622306     -0.00658814770723
H   -7.03104175110130      5.54268795285765     -0.00714490013730
C   -7.33969804112295      2.85841153457957     -0.00333767559888
C   -7.36488195805880      1.47032337158330     -0.00157213747140
C   -4.90350460894690      1.44442681216000     -0.00628840166334
C   -6.13225715261081      0.73993935705394      0.00600164231964
C   -3.67687480051673      0.72669714267312      0.00433931473643
C   -2.44565658606518      1.42964113326212     -0.00597039546461
C   -1.22360068130162      0.71532450163492      0.00545886906656
C   0.00763786931376      1.41738314923765      0.00392452278437
C   1.23121980774686      0.70211669058719     -0.01490206287210
C   2.46082110053113      1.40329203612573      0.00460244601878
C   3.68443025419614      0.68719842821222      0.00377365974158
C   4.91870890153864      1.39173456118907     -0.00862816189375
C   7.36980207796101      2.77948220318441     -0.00242013321349
C   7.38016266612146      1.39121750785509     -0.00087345036788
C   6.13979953912259      0.67411862320065      0.00545489144369
H   -8.27919079934664      3.40711804112415     -0.00763522772059
H   8.31511347147953      3.31811809662368     -0.00663070901292
C   -8.59175593758115      0.72483255304480     -0.00123170985383
C   -8.59902460370342     -0.63263980622873      0.00089141472904
C   -6.13981313911873     -0.67413663715361     -0.00609792660607
C   -7.38018411213749     -1.39126618958160      0.00131813493501
C   -4.91868448025621     -1.39175501803000      0.00624257154343
C   -3.68443829568458     -0.68723731573599     -0.00478966852105
C   -2.46081704024768     -1.40334517882457      0.00575341766833
C   -1.23116201232071     -0.70217386488055     -0.00636696112346
C   -0.00756962538737     -1.41741884941102      0.00108956317991
C   1.22364771588843     -0.71527537726392      0.01109518512883
C   2.44567064933149     -1.42964328900682     -0.00065482763106
C   3.67686670284649     -0.72670743155550     -0.00479541202602
C   6.13224884641929     -0.73997883984993     -0.00632338623858
C   4.90351914550401     -1.44445752054090      0.00751768830159
C   8.59901484869081      0.63260386666793     -0.00101133422380
C   8.59174548810050     -0.72485086719319      0.00072504603735
C   7.36486276438985     -1.47033266560598      0.00049486934466
H   -9.52830597181814      1.27684744919284     -0.00270163681798
H   9.54141097460619      1.17457248844457     -0.00206336648518
C   -7.36983790976868     -2.77954514593389      0.00312634335708
C   -4.92459910905015     -2.80843725734101     -0.00460528907921
C   -6.16662249566744     -3.51665219282533      0.00169655107992
C   -3.70251035970491     -3.52468154912026      0.00571878010666
C   -2.46764698511392     -2.82132596280400     -0.00632585824990
C   -0.01513347410770     -2.83314164539971     -0.00604426974092
C   -1.24712184122656     -3.53473217556300      0.00551968366725
C   1.20924506964357     -3.54791467864352      0.00805871345849
C   2.43733602215464     -2.84764173817541     -0.00608104485234
C   4.89430234377080     -2.86112296828604     -0.00526030478103
C   3.66461525504104     -3.56421984553201      0.00761911515957
C   6.12863901474565     -3.58258405771778      0.00096495711699
C   7.33967266469532     -2.85841330737039      0.00248018319869
H   -9.54144911125902     -1.17456346666430      0.00226083090216
H   9.52826186807155     -1.27691907390448      0.00197485379837
H   -8.31516504384864     -3.31814985321231      0.00729857188773
H   8.27915514249207     -3.40714078989363      0.00681973918158
C   -6.14499418870218     -4.92764727278338      0.00302254913999
C   -3.70678334799751     -4.94126171411716     -0.00679841894792
C   -4.95559005800169     -5.64349397349412      0.00116871569699
C   -2.48612132622665     -5.65478557440947      0.00614125209662
C   -1.25405833548005     -4.95612205000132     -0.00503435388927
C   1.20101257386816     -4.96928038819302     -0.00385322963129
C   -0.03033667441341     -5.66952030313900      0.00398997003238
C   3.65375010132847     -4.98074377541453     -0.00309522988330
C   2.42549269587528     -5.68117463552727      0.00628170066869
C   6.09196561781097     -4.99325796338655      0.00325918379042
C   4.89497644461045     -5.69634842095790      0.00202298796027
H   -7.08989238804069     -5.46699984223871      0.00742531082125
H   7.03105520920009     -5.54265853633254      0.00683896355417
C   -4.92354532219813     -7.07882109967734      0.00061394679214
C   -2.48534208823777     -7.08772807792913     -0.00189594564379
C   -3.75168589177895     -7.76394715763627     -0.00170126671874
C   -0.03794895698805     -7.09946487446944     -0.00168022049625
C   -1.27795610040136     -7.77290438466689     -0.00366491325785
C   2.40944432072629     -7.11402201200282     -0.00081701968533
C   1.19474993715296     -7.78618536556242     -0.00296931056689
C   4.84762105249800     -7.13126211057943      0.00168979497423
C   3.66847160587561     -7.80378799294376     -0.00065863938960
H   -5.86994035041618     -7.61383059804164      0.00215798365757
H   5.78824962538815     -7.67633218931421      0.00281691445618
H   -3.75352693944918     -8.85107156923607     -0.00353718114765
H   -1.28430440589466     -8.86087539249706     -0.00809229711623
H   1.18922157469537     -8.87416062058945     -0.00706194725726
H   3.65854661482387     -8.89086063405326     -0.00231318081200

    units angstrom      # Angstroms are the default
    no_reorient         # Geometry fixed, default
    symmetry c1         # C1 symmetry, default
}

set {
    scf_type DF         # Density fitting, faster than exact integrals
    freeze_core True    # Freeze core electrons
    basis jun-cc-pVDZ   # Jun-cc-pVDZ basis set, recommended for sSAPT0 in https://doi.org/10.1063/1.4867135
}

energy('ssapt0')        # Compute sSAPT0 energy, includes also SAPT0
--------------------------------------------------------------------------

  //              Dimer HF             //
    Molecular point group: c1
  Charge       = 1
  Multiplicity = 1
  Basis Set: JUN-CC-PVDZ
    Blend: JUN-CC-PVDZ
  Basis Set: (JUN-CC-PVDZ AUX)
    Blend: JUN-CC-PVDZ-JKFIT
  @DF-RHF Final Energy: -3953.66150847297695
    Total Energy =                      -3953.6615084729783121
 Dipole X            :         -0.0023557            0.0004804           -0.0018753
 Dipole Y            :         -0.0516433            0.0561130            0.0044697
 Dipole Z            :         19.7753882          -25.4432294           -5.6678412
 Magnitude           :                                                    5.6678432
  //            Monomer A HF           //
    Molecular point group: c1
  Multiplicity = 1
  Basis Set: JUN-CC-PVDZ
    Blend: JUN-CC-PVDZ
  Basis Set: (JUN-CC-PVDZ AUX)
    Blend: JUN-CC-PVDZ-JKFIT
  @DF-RHF Final Energy:  -303.29816409325861
    Total Energy =                       -303.2981640932586060
  //            Monomer B HF           //
    Molecular point group: c1

    Geometry (in Angstrom), charge = 0, multiplicity = 1:

       Center              X                  Y                   Z               Mass
    ------------   -----------------  -----------------  -----------------  -----------------
      Gh(C)           0.680062820275    -0.008027535675    -5.372844537656    12.000000000000
      Gh(C)          -0.680508179725    -0.005999535675    -5.372460537656    12.000000000000
      Gh(N)          -1.085639179725    -0.005001535675    -4.054136537656    14.003074004430
      Gh(C)           0.000103820275    -0.001725535675    -3.272735537656    12.000000000000
      Gh(C)          -2.477369179725     0.044404464325    -3.586157537656    12.000000000000
      Gh(N)           1.085217820275    -0.005001535675    -4.054136537656    14.003074004430
      Gh(H)           1.385141820275    -0.015855535675    -6.190283537656     1.007825032230
      Gh(H)          -1.385306179725    -0.006189535675    -6.190129537656     1.007825032230
      Gh(H)          -0.000013179725     0.000021464325    -2.191646537656     1.007825032230
      Gh(C)           2.478112820275    -0.021893535675    -3.589038537656    12.000000000000
      Gh(H)           2.490587820275     0.005451464325    -2.498785537656     1.007825032230
      Gh(H)           2.967023820275    -0.935339535675    -3.936214537656     1.007825032230
      Gh(H)           3.001423820275     0.853589464325    -3.980510537656     1.007825032230
      Gh(H)          -2.857363179725     1.066475464325    -3.666116537656     1.007825032230
      Gh(H)          -3.082683179725    -0.625679535675    -4.199221537656     1.007825032230
      Gh(H)          -2.518132179725    -0.282579535675    -2.546209537656     1.007825032230
         C           -3.668445443746     7.803766634408     0.344984503680    12.000000000000
         C           -4.847602899072     7.131256295665     0.342617928747    12.000000000000
         C           -4.894963478901     5.696344867857     0.342045017649    12.000000000000
         C           -3.653744858499     4.980744805284     0.349705459378    12.000000000000
         C           -2.409429301220     7.113995501000     0.345178845940    12.000000000000
         C           -2.425481523830     5.681136415228     0.338173957070    12.000000000000
         C           -1.194748196161     7.786158658634     0.346651026482    12.000000000000
         C            0.037954849212     7.099436110082     0.344480322177    12.000000000000
         C            0.030328407694     5.669504024030     0.338996937261    12.000000000000
         C           -1.200988687630     4.969284812240     0.347966671195    12.000000000000
         C            1.277953646089     7.772873907520     0.345856170737    12.000000000000
         C            2.485353904999     7.087711349563     0.343581682833    12.000000000000
         C            2.486124505192     5.654785274566     0.336643933845    12.000000000000
         C            1.254078739919     4.956092577989     0.348271875433    12.000000000000
         C            3.751710411681     7.763926615305     0.343708534213    12.000000000000
         C            4.923561876460     7.078795241315     0.341652053505    12.000000000000
         C            4.955603091600     5.643461927694     0.341491640698    12.000000000000
         C            3.706797354479     4.941224672658     0.346583200868    12.000000000000
         H           -3.658525317484     8.890841883460     0.346669491930     1.007825032230
         H           -1.189217509482     8.874135551685     0.350622902923     1.007825032230
         H            1.284290059161     8.860847899813     0.350014994878     1.007825032230
         H            3.753537907074     8.851049743297     0.345231058529     1.007825032230
         H            5.869954523482     7.613809298981     0.340726686463     1.007825032230
         H           -5.788235887228     7.676316677259     0.341058081391     1.007825032230
         C           -6.091978138422     4.993274477968     0.340172777158    12.000000000000
         C           -6.128665660043     3.582594633123     0.341373954187    12.000000000000
         C           -3.664583919771     3.564196644069     0.338448859569    12.000000000000
         C           -4.894302384424     2.861095240226     0.347617844554    12.000000000000
         C           -2.437339174623     2.847626121410     0.350280638106    12.000000000000
         C           -1.209232037322     3.547901399303     0.336601611314    12.000000000000
         C            1.247137392437     3.534695215755     0.335793004909    12.000000000000
         C            0.015171859844     2.833126303630     0.347477188133    12.000000000000
         C            2.467640992715     2.821304441580     0.347577246257    12.000000000000
         C            3.702545294854     3.524674618749     0.334089285414    12.000000000000
         C            6.144976206658     4.927586830457     0.340258195486    12.000000000000
         C            6.166584179136     3.516598940267     0.342424748923    12.000000000000
         C            4.924605778734     2.808422389679     0.348963495160    12.000000000000
         H            7.089901329916     5.466902230548     0.336496314637     1.007825032230
         H           -7.031045930827     5.542702417183     0.335939562207     1.007825032230
         C           -7.339702220848     2.858425998905     0.339746786745    12.000000000000
         C           -7.364886137784     1.470337835908     0.341512324873    12.000000000000
         C           -4.903508788672     1.444441276485     0.336796060681    12.000000000000
         C           -6.132261332336     0.739953821379     0.349086104664    12.000000000000
         C           -3.676878980242     0.726711606998     0.347423777081    12.000000000000
         C           -2.445660765791     1.429655597587     0.337114066879    12.000000000000
         C           -1.223604861027     0.715338965960     0.348543331411    12.000000000000
         C            0.007633689588     1.417397613563     0.347008985128    12.000000000000
         C            1.231215628021     0.702131154912     0.328182399472    12.000000000000
         C            2.460816920806     1.403306500451     0.347686908363    12.000000000000
         C            3.684426074471     0.687212892537     0.346858122086    12.000000000000
         C            4.918704721813     1.391749025514     0.334456300450    12.000000000000
         C            7.369797898236     2.779496667509     0.340664329131    12.000000000000
         C            7.380158486396     1.391231972180     0.342211011976    12.000000000000
         C            6.139795359397     0.674133087526     0.348539353788    12.000000000000
         H           -8.279194979072     3.407132505449     0.335449234624     1.007825032230
         H            8.315109291754     3.318132560949     0.336453753331     1.007825032230
         C           -8.591760117307     0.724847017370     0.341852752490    12.000000000000
         C           -8.599028783429    -0.632625341904     0.343975877073    12.000000000000
         C           -6.139817318844    -0.674122172829     0.336986535738    12.000000000000
         C           -7.380188291863    -1.391251725257     0.344402597279    12.000000000000
         C           -4.918688659982    -1.391740553705     0.349327033888    12.000000000000
         C           -3.684442475410    -0.687222851411     0.338294793823    12.000000000000
         C           -2.460821219973    -1.403330714500     0.348837880012    12.000000000000
         C           -1.231166192046    -0.702159400556     0.336717501221    12.000000000000
         C           -0.007573805113    -1.417404385086     0.344174025524    12.000000000000
         C            1.223643536163    -0.715260912939     0.354179647473    12.000000000000
         C            2.445666469606    -1.429628824682     0.342429634713    12.000000000000
         C            3.676862523121    -0.726692967231     0.338289050318    12.000000000000
         C            6.132244666694    -0.739964375525     0.336761076106    12.000000000000
         C            4.903514965779    -1.444443056216     0.350602150646    12.000000000000
         C            8.599010668965     0.632618330993     0.342073128120    12.000000000000
         C            8.591741308375    -0.724836402868     0.343809508381    12.000000000000
         C            7.364858584664    -1.470318201281     0.343579331689    12.000000000000
         H           -9.528310151544     1.276861913518     0.340382825526     1.007825032230
         H            9.541406794881     1.174586952770     0.341021095859     1.007825032230
         C           -7.369842089494    -2.779530681609     0.346210805701    12.000000000000
         C           -4.924603288776    -2.808422793016     0.338479173265    12.000000000000
         C           -6.166626675393    -3.516637728500     0.344781013424    12.000000000000
         C           -3.702514539430    -3.524667084795     0.348803242451    12.000000000000
         C           -2.467651164839    -2.821311498479     0.336758604094    12.000000000000
         C           -0.015137653833    -2.833127181075     0.337040192603    12.000000000000
         C           -1.247126020952    -3.534717711238     0.348604146011    12.000000000000
         C            1.209240889918    -3.547900214319     0.351143175803    12.000000000000
         C            2.437331842429    -2.847627273850     0.337003417492    12.000000000000
         C            4.894298164045    -2.861108503961     0.337824157563    12.000000000000
         C            3.664611075316    -3.564205381207     0.350703577504    12.000000000000
         C            6.128634835020    -3.582569593393     0.344049419461    12.000000000000
         C            7.339668484970    -2.858398843045     0.345564645543    12.000000000000
         H           -9.541453290984    -1.174549002339     0.345345293246     1.007825032230
         H            9.528257688346    -1.276904609579     0.345059316142     1.007825032230
         H           -8.315169223574    -3.318135388887     0.350383034232     1.007825032230
         H            8.279150962767    -3.407126325569     0.349904201526     1.007825032230
         C           -6.144998368428    -4.927632808458     0.346107011484    12.000000000000
         C           -3.706787527723    -4.941247249792     0.336286043396    12.000000000000
         C           -4.955594237727    -5.643479509169     0.344253178041    12.000000000000
         C           -2.486125505952    -5.654771110084     0.349225714441    12.000000000000
         C           -1.254062515205    -4.956107585676     0.338050108455    12.000000000000
         C            1.201008394143    -4.969265923868     0.339231232713    12.000000000000
         C           -0.030340854139    -5.669505838814     0.347074432376    12.000000000000
         C            3.653745921603    -4.980729311090     0.339989232461    12.000000000000
         C            2.425488516150    -5.681160171202     0.349366163013    12.000000000000
         C            6.091961438086    -4.993243499062     0.346343646135    12.000000000000
         C            4.894972264885    -5.696333956633     0.345107450304    12.000000000000
         H           -7.089896567766    -5.466985377914     0.350509773165     1.007825032230
         H            7.031051029475    -5.542644072008     0.349923425898     1.007825032230
         C           -4.923549501924    -7.078806635352     0.343698409136    12.000000000000
         C           -2.485346267963    -7.087713613604     0.341188516700    12.000000000000
         C           -3.751690071504    -7.763932693311     0.341383195625    12.000000000000
         C           -0.037953136713    -7.099450410144     0.341404241848    12.000000000000
         C           -1.277960280127    -7.772889920342     0.339419549086    12.000000000000
         C            2.409440141001    -7.114007547678     0.342267442659    12.000000000000
         C            1.194745757428    -7.786170901237     0.340115151777    12.000000000000
         C            4.847616872773    -7.131247646254     0.344774257318    12.000000000000
         C            3.668467426150    -7.803773528619     0.342425822954    12.000000000000
         H           -5.869944530142    -7.613816133717     0.345242446002     1.007825032230
         H            5.788245445663    -7.676317724989     0.345901376800     1.007825032230
         H           -3.753531119175    -8.851057104911     0.339547281196     1.007825032230
         H           -1.284308585620    -8.860860928172     0.334992165228     1.007825032230
         H            1.189217394970    -8.874146156264     0.336022515087     1.007825032230
         H            3.658542435098    -8.890846169728     0.340771281532     1.007825032230

  Charge       = 0
  Multiplicity = 1
  Basis Set: JUN-CC-PVDZ
    Blend: JUN-CC-PVDZ
  Basis Set: (JUN-CC-PVDZ AUX)
    Blend: JUN-CC-PVDZ-JKFIT

    Orbital Energies [Eh]
    ---------------------

    Doubly Occupied:

       1A    -11.264034     2A    -11.263719     3A    -11.263651
       4A    -11.263311     5A    -11.263297     6A    -11.263245
       7A    -11.263135     8A    -11.263104     9A    -11.263061
      10A    -11.262880    11A    -11.262751    12A    -11.262735
      13A    -11.262260    14A    -11.262246    15A    -11.262231
      16A    -11.262175    17A    -11.262106    18A    -11.262085
      19A    -11.262045    20A    -11.262001    21A    -11.261996
      22A    -11.261888    23A    -11.261866    24A    -11.261724
      25A    -11.261720    26A    -11.261693    27A    -11.261690
      28A    -11.261649    29A    -11.261644    30A    -11.261555
      31A    -11.261536    32A    -11.261529    33A    -11.261512
      34A    -11.261510    35A    -11.261488    36A    -11.261481
      37A    -11.261302    38A    -11.261294    39A    -11.261287
      40A    -11.261284    41A    -11.261270    42A    -11.261266
      43A    -11.261256    44A    -11.261244    45A    -11.261235
      46A    -11.261213    47A    -11.261209    48A    -11.261204
      49A    -11.261054    50A    -11.261035    51A    -11.260995
      52A    -11.260956    53A    -11.260912    54A    -11.260871
      55A    -11.259884    56A    -11.259871    57A    -11.259869
      58A    -11.259840    59A    -11.259837    60A    -11.259822
      61A    -11.259255    62A    -11.259232    63A    -11.259224
      64A    -11.259176    65A    -11.259169    66A    -11.259142
      67A    -11.258887    68A    -11.258870    69A    -11.258866
      70A    -11.258839    71A    -11.258837    72A    -11.258825
      73A    -11.254502    74A    -11.254502    75A    -11.254496
      76A    -11.254494    77A    -11.254484    78A    -11.254476
      79A    -11.253627    80A    -11.253626    81A    -11.253614
      82A    -11.253611    83A    -11.253610    84A    -11.253603
      85A    -11.253542    86A    -11.253542    87A    -11.253529
      88A    -11.253526    89A    -11.253525    90A    -11.253518
      91A    -11.253030    92A    -11.253029    93A    -11.253024
      94A    -11.253021    95A    -11.253012    96A    -11.253004
      97A     -1.253866    98A     -1.238941    99A     -1.238911
     100A     -1.220408   101A     -1.220394   102A     -1.215370
     103A     -1.200987   104A     -1.195549   105A     -1.188078
     106A     -1.188058   107A     -1.173712   108A     -1.173711
     109A     -1.155559   110A     -1.155555   111A     -1.152646
     112A     -1.144674   113A     -1.144671   114A     -1.128502
     115A     -1.114645   116A     -1.113115   117A     -1.112421
     118A     -1.112390   119A     -1.111572   120A     -1.088367
     121A     -1.088346   122A     -1.076915   123A     -1.076913
     124A     -1.067554   125A     -1.067514   126A     -1.064901
     127A     -1.046742   128A     -1.046732   129A     -1.040416
     130A     -1.038691   131A     -1.038684   132A     -1.025168
     133A     -1.021312   134A     -1.021245   135A     -1.007124
     136A     -1.006742   137A     -1.003738   138A     -1.000423
     139A     -1.000365   140A     -0.991031   141A     -0.970926
     142A     -0.970872   143A     -0.955833   144A     -0.955773
     145A     -0.905506   146A     -0.905505   147A     -0.905471
     148A     -0.905462   149A     -0.904245   150A     -0.892278
     151A     -0.892226   152A     -0.890288   153A     -0.890233
     154A     -0.889381   155A     -0.872167   156A     -0.869017
     157A     -0.851481   158A     -0.847786   159A     -0.847777
     160A     -0.845522   161A     -0.842943   162A     -0.834500
     163A     -0.834490   164A     -0.828072   165A     -0.828062
     166A     -0.784490   167A     -0.784480   168A     -0.783592
     169A     -0.783575   170A     -0.782216   171A     -0.782199
     172A     -0.781958   173A     -0.766926   174A     -0.760713
     175A     -0.750500   176A     -0.733434   177A     -0.727018
     178A     -0.726977   179A     -0.725012   180A     -0.724483
     181A     -0.724449   182A     -0.718413   183A     -0.713696
     184A     -0.713689   185A     -0.699519   186A     -0.699494
     187A     -0.686045   188A     -0.685901   189A     -0.685889
     190A     -0.682110   191A     -0.682101   192A     -0.678711
     193A     -0.653564   194A     -0.650809   195A     -0.650773
     196A     -0.649730   197A     -0.649725   198A     -0.649508
     199A     -0.640860   200A     -0.640811   201A     -0.640026
     202A     -0.639104   203A     -0.635952   204A     -0.635919
     205A     -0.629070   206A     -0.617737   207A     -0.615250
     208A     -0.615222   209A     -0.608737   210A     -0.608731
     211A     -0.599168   212A     -0.599079   213A     -0.598676
     214A     -0.598521   215A     -0.598506   216A     -0.597959
     217A     -0.595008   218A     -0.594995   219A     -0.594656
     220A     -0.594143   221A     -0.591884   222A     -0.591880
     223A     -0.587305   224A     -0.577753   225A     -0.577732
     226A     -0.575688   227A     -0.575645   228A     -0.573316
     229A     -0.569558   230A     -0.568067   231A     -0.568040
     232A     -0.566681   233A     -0.566675   234A     -0.560864
     235A     -0.558653   236A     -0.558607   237A     -0.558377
     238A     -0.554298   239A     -0.550546   240A     -0.547426
     241A     -0.544232   242A     -0.534989   243A     -0.534940
     244A     -0.533474   245A     -0.533456   246A     -0.528019
     247A     -0.527999   248A     -0.527704   249A     -0.517086
     250A     -0.517061   251A     -0.515316   252A     -0.515311
     253A     -0.509580   254A     -0.509568   255A     -0.497958
     256A     -0.496391   257A     -0.496342   258A     -0.493782
     259A     -0.493713   260A     -0.489413   261A     -0.481388
     262A     -0.477376   263A     -0.477374   264A     -0.473927
     265A     -0.469356   266A     -0.466447   267A     -0.466444
     268A     -0.458774   269A     -0.446587   270A     -0.446536
     271A     -0.440981   272A     -0.440744   273A     -0.440678
     274A     -0.434645   275A     -0.433865   276A     -0.407319
     277A     -0.407308   278A     -0.386362   279A     -0.386296
     280A     -0.385690   281A     -0.385684   282A     -0.383703
     283A     -0.354270   284A     -0.354251   285A     -0.350614
     286A     -0.338029   287A     -0.335516   288A     -0.335491
     289A     -0.332672   290A     -0.332660   291A     -0.307006
     292A     -0.301876   293A     -0.301817   294A     -0.300803
     295A     -0.286117   296A     -0.256437   297A     -0.253424
     298A     -0.253388   299A     -0.204204   300A     -0.204125

  @DF-RHF Final Energy: -3650.34105310960604

   => Energetics <=

    Nuclear Repulsion Energy =          15611.4211649754306563
    One-Electron Energy =              -36072.1789406807947671
    Two-Electron Energy =               16810.4167225957608025
    Total Energy =                      -3650.3410531096051272
 Dipole X            :         -0.0005861            0.0002112           -0.0003749
 Dipole Y            :          0.0012220           -0.0013774           -0.0001554
 Dipole Z            :       -388.9984125          389.0047949            0.0063824
 Magnitude           :                                                    0.0063953

    SAPT Results
  --------------------------------------------------------------------------------------------------------
    Electrostatics                -13.47726155 [mEh]      -8.45710930 [kcal/mol]     -35.38454531 [kJ/mol]
      Elst10,r                    -13.47726155 [mEh]      -8.45710930 [kcal/mol]     -35.38454531 [kJ/mol]

    Exchange                        6.56967289 [mEh]       4.12253198 [kcal/mol]      17.24867379 [kJ/mol]
      Exch10                        6.56967289 [mEh]       4.12253198 [kcal/mol]      17.24867379 [kJ/mol]
      Exch10(S^2)                   6.55538957 [mEh]       4.11356906 [kcal/mol]      17.21117296 [kJ/mol]

    Induction                     -15.38368146 [mEh]      -9.65340586 [kcal/mol]     -40.38985010 [kJ/mol]
      Ind20,r                     -14.96790154 [mEh]      -9.39250002 [kcal/mol]     -39.29822007 [kJ/mol]
      Exch-Ind20,r                  1.41451054 [mEh]       0.88761876 [kcal/mol]       3.71379690 [kJ/mol]
      delta HF,r (2)               -1.83029046 [mEh]      -1.14852460 [kcal/mol]      -4.80542693 [kJ/mol]

    Dispersion                    -17.62486831 [mEh]     -11.05977184 [kcal/mol]     -46.27408538 [kJ/mol]
      Disp20                      -18.28821648 [mEh]     -11.47602910 [kcal/mol]     -48.01570575 [kJ/mol]
      Exch-Disp20                   0.66334817 [mEh]       0.41625726 [kcal/mol]       1.74162037 [kJ/mol]
      Disp20 (SS)                  -9.14410824 [mEh]      -5.73801455 [kcal/mol]     -24.00785288 [kJ/mol]
      Disp20 (OS)                  -9.14410824 [mEh]      -5.73801455 [kcal/mol]     -24.00785288 [kJ/mol]
      Exch-Disp20 (SS)              0.40714956 [mEh]       0.25549020 [kcal/mol]       1.06897101 [kJ/mol]
      Exch-Disp20 (OS)              0.25619861 [mEh]       0.16076706 [kcal/mol]       0.67264936 [kJ/mol]

  Total HF                        -22.29127011 [mEh]     -13.98798318 [kcal/mol]     -58.52572162 [kJ/mol]
  Total SAPT0                     -39.91613842 [mEh]     -25.04775502 [kcal/mol]    -104.79980699 [kJ/mol]

  Special recipe for scaled SAPT0 (see Manual):
    Electrostatics sSAPT0         -13.47726155 [mEh]      -8.45710930 [kcal/mol]     -35.38454531 [kJ/mol]
    Exchange sSAPT0                 6.56967289 [mEh]       4.12253198 [kcal/mol]      17.24867379 [kJ/mol]
    Induction sSAPT0              -15.37441521 [mEh]      -9.64759120 [kcal/mol]     -40.36552157 [kJ/mol]
    Dispersion sSAPT0             -17.62052282 [mEh]     -11.05704500 [kcal/mol]     -46.26267628 [kJ/mol]
  Total sSAPT0                    -39.90252668 [mEh]     -25.03921352 [kcal/mol]    -104.76406937 [kJ/mol]
  --------------------------------------------------------------------------------------------------------

*** Psi4 exiting successfully. Buy a developer a beer!
