                               Psi4 1.9 release

  ==> Input File <==

--------------------------------------------------------------------------
memory 64 GB # how much memory is available ! Depends on the nodes/cores !

molecule dimer {
# monomer A
+1 1    # Charge and multiplicity
C  0.680067 1.417258 -10.015929
C -0.680504 1.419286 -10.015545
N -1.085635 1.420284  -8.697221
C  0.000108 1.423560  -7.915820
C -2.477365 1.469690  -8.229242
N  1.085222 1.420284  -8.697221
H  1.385146 1.409430 -10.833368
H -1.385302 1.419096 -10.833214
H -0.000009 1.425307  -6.834731
C  2.478117 1.403392  -8.232123
H  2.490592 1.430737  -7.141870
H  2.967028 0.489946  -8.579299
H  3.001428 2.278875  -8.623595
H -2.857359 2.491761  -8.309201
H -3.082679 0.799606  -8.842306
H -2.518128 1.142706  -7.189294
--
# monomer B
0 1     # Charge and multiplicity
C   -3.66844126402057      7.80375217008252      0.00190004133558
C   -4.84759871934653      7.13124183134024     -0.00046653359696
C   -4.89495929917518      5.69633040353158     -0.00103944469517
C   -3.65374067877320      4.98073034095895      0.00662099703436
C   -2.40942512149445      7.11398103667468      0.00209438359570
C   -2.42547734410473      5.68112195090346     -0.00491050527438
C   -1.19474401643570      7.78614419430947      0.00356656413763
C   0.03795902893699      7.09942164575698      0.00139585983271
C   0.03033258741920      5.66948955970466     -0.00408752508301
C   -1.20098450790502      4.96927034791531      0.00488220885047
C   1.27795782581485      7.77285944319479      0.00277170839332
C   2.48535808472416      7.08769688523756      0.00049722048857
C   2.48612868491717      5.65477081024076     -0.00644052849921
C   1.25408291964399      4.95607811366431      0.00518741308898
C   3.75171459140595      7.76391215098033      0.00062407186893
C   4.92356605618520      7.07878077698995     -0.00143240883900
C   4.95560727132542      5.64344746336949     -0.00159282164606
C   3.70680153420475      4.94121020833308      0.00349873852374
H   -3.65852113775815      8.89082741913536      0.00358502958574
H   -1.18921332975660      8.87412108735996      0.00753844057883
H   1.28429423888630      8.86083343548850      0.00693053253426
H   3.75354208679975      8.85103527897216      0.00214659618464
H   5.86995870320703      7.61379483465560     -0.00235777588134
H   -5.78823170750226      7.67630221293400     -0.00202638095293
C   -6.09197395869619      4.99326001364347     -0.00291168518608
C   -6.12866148031747      3.58258016879823     -0.00171050815740
C   -3.66457974004527      3.56418217974434     -0.00463560277484
C   -4.89429820469869      2.86108077590057      0.00453338221034
C   -2.43733499489796      2.84761165708481      0.00719617576166
C   -1.20922785759670      3.54788693497833     -0.00648285103018
C   1.24714157216223      3.53468075142962     -0.00729145743546
C   0.01517603956900      2.83311183930540      0.00439272578912
C   2.46764517244071      2.82128997725533      0.00449278391269
C   3.70254947457969      3.52466015442405     -0.00899517692985
C   6.14498038638375      4.92757236613191     -0.00282626685777
C   6.16658835886151      3.51658447594213     -0.00065971342101
C   4.92460995845939      2.80840792535402      0.00587903281610
H   7.08990550964105      5.46688776622306     -0.00658814770723
H   -7.03104175110130      5.54268795285765     -0.00714490013730
C   -7.33969804112295      2.85841153457957     -0.00333767559888
C   -7.36488195805880      1.47032337158330     -0.00157213747140
C   -4.90350460894690      1.44442681216000     -0.00628840166334
C   -6.13225715261081      0.73993935705394      0.00600164231964
C   -3.67687480051673      0.72669714267312      0.00433931473643
C   -2.44565658606518      1.42964113326212     -0.00597039546461
C   -1.22360068130162      0.71532450163492      0.00545886906656
C   0.00763786931376      1.41738314923765      0.00392452278437
C   1.23121980774686      0.70211669058719     -0.01490206287210
C   2.46082110053113      1.40329203612573      0.00460244601878
C   3.68443025419614      0.68719842821222      0.00377365974158
C   4.91870890153864      1.39173456118907     -0.00862816189375
C   7.36980207796101      2.77948220318441     -0.00242013321349
C   7.38016266612146      1.39121750785509     -0.00087345036788
C   6.13979953912259      0.67411862320065      0.00545489144369
H   -8.27919079934664      3.40711804112415     -0.00763522772059
H   8.31511347147953      3.31811809662368     -0.00663070901292
C   -8.59175593758115      0.72483255304480     -0.00123170985383
C   -8.59902460370342     -0.63263980622873      0.00089141472904
C   -6.13981313911873     -0.67413663715361     -0.00609792660607
C   -7.38018411213749     -1.39126618958160      0.00131813493501
C   -4.91868448025621     -1.39175501803000      0.00624257154343
C   -3.68443829568458     -0.68723731573599     -0.00478966852105
C   -2.46081704024768     -1.40334517882457      0.00575341766833
C   -1.23116201232071     -0.70217386488055     -0.00636696112346
C   -0.00756962538737     -1.41741884941102      0.00108956317991
C   1.22364771588843     -0.71527537726392      0.01109518512883
C   2.44567064933149     -1.42964328900682     -0.00065482763106
C   3.67686670284649     -0.72670743155550     -0.00479541202602
C   6.13224884641929     -0.73997883984993     -0.00632338623858
C   4.90351914550401     -1.44445752054090      0.00751768830159
C   8.59901484869081      0.63260386666793     -0.00101133422380
C   8.59174548810050     -0.72485086719319      0.00072504603735
C   7.36486276438985     -1.47033266560598      0.00049486934466
H   -9.52830597181814      1.27684744919284     -0.00270163681798
H   9.54141097460619      1.17457248844457     -0.00206336648518
C   -7.36983790976868     -2.77954514593389      0.00312634335708
C   -4.92459910905015     -2.80843725734101     -0.00460528907921
C   -6.16662249566744     -3.51665219282533      0.00169655107992
C   -3.70251035970491     -3.52468154912026      0.00571878010666
C   -2.46764698511392     -2.82132596280400     -0.00632585824990
C   -0.01513347410770     -2.83314164539971     -0.00604426974092
C   -1.24712184122656     -3.53473217556300      0.00551968366725
C   1.20924506964357     -3.54791467864352      0.00805871345849
C   2.43733602215464     -2.84764173817541     -0.00608104485234
C   4.89430234377080     -2.86112296828604     -0.00526030478103
C   3.66461525504104     -3.56421984553201      0.00761911515957
C   6.12863901474565     -3.58258405771778      0.00096495711699
C   7.33967266469532     -2.85841330737039      0.00248018319869
H   -9.54144911125902     -1.17456346666430      0.00226083090216
H   9.52826186807155     -1.27691907390448      0.00197485379837
H   -8.31516504384864     -3.31814985321231      0.00729857188773
H   8.27915514249207     -3.40714078989363      0.00681973918158
C   -6.14499418870218     -4.92764727278338      0.00302254913999
C   -3.70678334799751     -4.94126171411716     -0.00679841894792
C   -4.95559005800169     -5.64349397349412      0.00116871569699
C   -2.48612132622665     -5.65478557440947      0.00614125209662
C   -1.25405833548005     -4.95612205000132     -0.00503435388927
C   1.20101257386816     -4.96928038819302     -0.00385322963129
C   -0.03033667441341     -5.66952030313900      0.00398997003238
C   3.65375010132847     -4.98074377541453     -0.00309522988330
C   2.42549269587528     -5.68117463552727      0.00628170066869
C   6.09196561781097     -4.99325796338655      0.00325918379042
C   4.89497644461045     -5.69634842095790      0.00202298796027
H   -7.08989238804069     -5.46699984223871      0.00742531082125
H   7.03105520920009     -5.54265853633254      0.00683896355417
C   -4.92354532219813     -7.07882109967734      0.00061394679214
C   -2.48534208823777     -7.08772807792913     -0.00189594564379
C   -3.75168589177895     -7.76394715763627     -0.00170126671874
C   -0.03794895698805     -7.09946487446944     -0.00168022049625
C   -1.27795610040136     -7.77290438466689     -0.00366491325785
C   2.40944432072629     -7.11402201200282     -0.00081701968533
C   1.19474993715296     -7.78618536556242     -0.00296931056689
C   4.84762105249800     -7.13126211057943      0.00168979497423
C   3.66847160587561     -7.80378799294376     -0.00065863938960
H   -5.86994035041618     -7.61383059804164      0.00215798365757
H   5.78824962538815     -7.67633218931421      0.00281691445618
H   -3.75352693944918     -8.85107156923607     -0.00353718114765
H   -1.28430440589466     -8.86087539249706     -0.00809229711623
H   1.18922157469537     -8.87416062058945     -0.00706194725726
H   3.65854661482387     -8.89086063405326     -0.00231318081200

    units angstrom      # Angstroms are the default
    no_reorient         # Geometry fixed, default
    symmetry c1         # C1 symmetry, default
}

set {
    scf_type DF         # Density fitting, faster than exact integrals
    freeze_core True    # Freeze core electrons
    basis jun-cc-pVDZ   # Jun-cc-pVDZ basis set, recommended for sSAPT0 in https://doi.org/10.1063/1.4867135
}

energy('ssapt0')        # Compute sSAPT0 energy, includes also SAPT0
--------------------------------------------------------------------------

  //              Dimer HF             //
    Molecular point group: c1
  Charge       = 1
  Multiplicity = 1
  Basis Set: JUN-CC-PVDZ
    Blend: JUN-CC-PVDZ
  Basis Set: (JUN-CC-PVDZ AUX)
    Blend: JUN-CC-PVDZ-JKFIT
  @DF-RHF Final Energy: -3953.64322818859910
    Total Energy =                      -3953.6432281886009150
 Dipole X            :         -0.0022173            0.0004804           -0.0017369
 Dipole Y            :         -6.6921788            8.7122315            2.0200527
 Dipole Z            :         37.4970822          -51.5579488          -14.0608666
 Magnitude           :                                                   14.2052309
  //            Monomer A HF           //
    Molecular point group: c1
  Multiplicity = 1
  Basis Set: JUN-CC-PVDZ
    Blend: JUN-CC-PVDZ
  Basis Set: (JUN-CC-PVDZ AUX)
    Blend: JUN-CC-PVDZ-JKFIT
  @DF-RHF Final Energy:  -303.29718073473964
    Total Energy =                       -303.2971807347396407
  //            Monomer B HF           //
    Molecular point group: c1

    Geometry (in Angstrom), charge = 0, multiplicity = 1:

       Center              X                  Y                   Z               Mass
    ------------   -----------------  -----------------  -----------------  -----------------
      Gh(C)           0.680062820275     1.308604348936    -9.345002752646    12.000000000000
      Gh(C)          -0.680508179725     1.310632348936    -9.344618752646    12.000000000000
      Gh(N)          -1.085639179725     1.311630348936    -8.026294752646    14.003074004430
      Gh(C)           0.000103820275     1.314906348936    -7.244893752646    12.000000000000
      Gh(C)          -2.477369179725     1.361036348936    -7.558315752646    12.000000000000
      Gh(N)           1.085217820275     1.311630348936    -8.026294752646    14.003074004430
      Gh(H)           1.385141820275     1.300776348936   -10.162441752646     1.007825032230
      Gh(H)          -1.385306179725     1.310442348936   -10.162287752646     1.007825032230
      Gh(H)          -0.000013179725     1.316653348936    -6.163804752646     1.007825032230
      Gh(C)           2.478112820275     1.294738348936    -7.561196752646    12.000000000000
      Gh(H)           2.490587820275     1.322083348936    -6.470943752646     1.007825032230
      Gh(H)           2.967023820275     0.381292348936    -7.908372752646     1.007825032230
      Gh(H)           3.001423820275     2.170221348936    -7.952668752646     1.007825032230
      Gh(H)          -2.857363179725     2.383107348936    -7.638274752646     1.007825032230
      Gh(H)          -3.082683179725     0.690952348936    -8.171379752646     1.007825032230
      Gh(H)          -2.518132179725     1.034052348936    -6.518367752646     1.007825032230
         C           -3.668445443746     7.695098519018     0.672826288690    12.000000000000
         C           -4.847602899072     7.022588180276     0.670459713757    12.000000000000
         C           -4.894963478901     5.587676752467     0.669886802659    12.000000000000
         C           -3.653744858499     4.872076689895     0.677547244388    12.000000000000
         C           -2.409429301220     7.005327385610     0.673020630950    12.000000000000
         C           -2.425481523830     5.572468299839     0.666015742080    12.000000000000
         C           -1.194748196161     7.677490543245     0.674492811492    12.000000000000
         C            0.037954849212     6.990767994693     0.672322107187    12.000000000000
         C            0.030328407694     5.560835908640     0.666838722271    12.000000000000
         C           -1.200988687630     4.860616696851     0.675808456204    12.000000000000
         C            1.277953646089     7.664205792130     0.673697955747    12.000000000000
         C            2.485353904999     6.979043234173     0.671423467843    12.000000000000
         C            2.486124505192     5.546117159176     0.664485718855    12.000000000000
         C            1.254078739919     4.847424462600     0.676113660443    12.000000000000
         C            3.751710411681     7.655258499916     0.671550319223    12.000000000000
         C            4.923561876460     6.970127125926     0.669493838515    12.000000000000
         C            4.955603091600     5.534793812305     0.669333425708    12.000000000000
         C            3.706797354479     4.832556557269     0.674424985878    12.000000000000
         H           -3.658525317484     8.782173768071     0.674511276940     1.007825032230
         H           -1.189217509482     8.765467436296     0.678464687933     1.007825032230
         H            1.284290059161     8.752179784424     0.677856779888     1.007825032230
         H            3.753537907074     8.742381627908     0.673072843539     1.007825032230
         H            5.869954523482     7.505141183591     0.668568471473     1.007825032230
         H           -5.788235887228     7.567648561870     0.668899866401     1.007825032230
         C           -6.091978138422     4.884606362579     0.668014562168    12.000000000000
         C           -6.128665660043     3.473926517734     0.669215739197    12.000000000000
         C           -3.664583919771     3.455528528680     0.666290644579    12.000000000000
         C           -4.894302384424     2.752427124836     0.675459629564    12.000000000000
         C           -2.437339174623     2.738958006020     0.678122423116    12.000000000000
         C           -1.209232037322     3.439233283914     0.664443396324    12.000000000000
         C            1.247137392437     3.426027100365     0.663634789919    12.000000000000
         C            0.015171859844     2.724458188241     0.675318973143    12.000000000000
         C            2.467640992715     2.712636326191     0.675419031267    12.000000000000
         C            3.702545294854     3.416006503360     0.661931070424    12.000000000000
         C            6.144976206658     4.818918715067     0.668099980496    12.000000000000
         C            6.166584179136     3.407930824878     0.670266533933    12.000000000000
         C            4.924605778734     2.699754274290     0.676805280170    12.000000000000
         H            7.089901329916     5.358234115159     0.664338099647     1.007825032230
         H           -7.031045930827     5.434034301793     0.663781347217     1.007825032230
         C           -7.339702220848     2.749757883515     0.667588571755    12.000000000000
         C           -7.364886137784     1.361669720519     0.669354109883    12.000000000000
         C           -4.903508788672     1.335773161096     0.664637845691    12.000000000000
         C           -6.132261332336     0.631285705989     0.676927889674    12.000000000000
         C           -3.676878980242     0.618043491609     0.675265562090    12.000000000000
         C           -2.445660765791     1.320987482198     0.664955851889    12.000000000000
         C           -1.223604861027     0.606670850570     0.676385116421    12.000000000000
         C            0.007633689588     1.308729498173     0.674850770138    12.000000000000
         C            1.231215628021     0.593463039523     0.656024184482    12.000000000000
         C            2.460816920806     1.294638385061     0.675528693373    12.000000000000
         C            3.684426074471     0.578544777148     0.674699907096    12.000000000000
         C            4.918704721813     1.283080910125     0.662298085460    12.000000000000
         C            7.369797898236     2.670828552120     0.668506114140    12.000000000000
         C            7.380158486396     1.282563856791     0.670052796986    12.000000000000
         C            6.139795359397     0.565464972136     0.676381138798    12.000000000000
         H           -8.279194979072     3.298464390060     0.663291019633     1.007825032230
         H            8.315109291754     3.209464445559     0.664295538341     1.007825032230
         C           -8.591760117307     0.616178901980     0.669694537500    12.000000000000
         C           -8.599028783429    -0.741293457293     0.671817662083    12.000000000000
         C           -6.139817318844    -0.782790288218     0.664828320748    12.000000000000
         C           -7.380188291863    -1.499919840646     0.672244382289    12.000000000000
         C           -4.918688659982    -1.500408669094     0.677168818897    12.000000000000
         C           -3.684442475410    -0.795890966800     0.666136578833    12.000000000000
         C           -2.460821219973    -1.511998829889     0.676679665022    12.000000000000
         C           -1.231166192046    -0.810827515945     0.664559286231    12.000000000000
         C           -0.007573805113    -1.526072500475     0.672015810534    12.000000000000
         C            1.223643536163    -0.823929028328     0.682021432483    12.000000000000
         C            2.445666469606    -1.538296940071     0.670271419723    12.000000000000
         C            3.676862523121    -0.835361082620     0.666130835328    12.000000000000
         C            6.132244666694    -0.848632490914     0.664602861115    12.000000000000
         C            4.903514965779    -1.553111171605     0.678443935656    12.000000000000
         C            8.599010668965     0.523950215603     0.669914913130    12.000000000000
         C            8.591741308375    -0.833504518258     0.671651293391    12.000000000000
         C            7.364858584664    -1.578986316670     0.671421116699    12.000000000000
         H           -9.528310151544     1.168193798128     0.668224610536     1.007825032230
         H            9.541406794881     1.065918837380     0.668862880869     1.007825032230
         C           -7.369842089494    -2.888198796998     0.674052590711    12.000000000000
         C           -4.924603288776    -2.917090908405     0.666320958275    12.000000000000
         C           -6.166626675393    -3.625305843890     0.672622798434    12.000000000000
         C           -3.702514539430    -3.633335200185     0.676645027461    12.000000000000
         C           -2.467651164839    -2.929979613868     0.664600389104    12.000000000000
         C           -0.015137653833    -2.941795296464     0.664881977613    12.000000000000
         C           -1.247126020952    -3.643385826627     0.676445931021    12.000000000000
         C            1.209240889918    -3.656568329708     0.678984960812    12.000000000000
         C            2.437331842429    -2.956295389240     0.664845202502    12.000000000000
         C            4.894298164045    -2.969776619350     0.665665942573    12.000000000000
         C            3.664611075316    -3.672873496596     0.678545362514    12.000000000000
         C            6.128634835020    -3.691237708782     0.671891204471    12.000000000000
         C            7.339668484970    -2.967066958435     0.673406430553    12.000000000000
         H           -9.541453290984    -1.283217117729     0.673187078256     1.007825032230
         H            9.528257688346    -1.385572724969     0.672901101152     1.007825032230
         H           -8.315169223574    -3.426803504277     0.678224819242     1.007825032230
         H            8.279150962767    -3.515794440958     0.677745986536     1.007825032230
         C           -6.144998368428    -5.036300923848     0.673948796494    12.000000000000
         C           -3.706787527723    -5.049915365182     0.664127828406    12.000000000000
         C           -4.955594237727    -5.752147624559     0.672094963051    12.000000000000
         C           -2.486125505952    -5.763439225474     0.677067499451    12.000000000000
         C           -1.254062515205    -5.064775701066     0.665891893465    12.000000000000
         C            1.201008394143    -5.077934039257     0.667073017723    12.000000000000
         C           -0.030340854139    -5.778173954203     0.674916217386    12.000000000000
         C            3.653745921603    -5.089397426479     0.667831017471    12.000000000000
         C            2.425488516150    -5.789828286592     0.677207948023    12.000000000000
         C            6.091961438086    -5.101911614451     0.674185431144    12.000000000000
         C            4.894972264885    -5.805002072022     0.672949235314    12.000000000000
         H           -7.089896567766    -5.575653493303     0.678351558175     1.007825032230
         H            7.031051029475    -5.651312187397     0.677765210908     1.007825032230
         C           -4.923549501924    -7.187474750742     0.671540194146    12.000000000000
         C           -2.485346267963    -7.196381728994     0.669030301710    12.000000000000
         C           -3.751690071504    -7.872600808701     0.669224980635    12.000000000000
         C           -0.037953136713    -7.208118525534     0.669246026858    12.000000000000
         C           -1.277960280127    -7.881558035731     0.667261334096    12.000000000000
         C            2.409440141001    -7.222675663067     0.670109227669    12.000000000000
         C            1.194745757428    -7.894839016627     0.667956936787    12.000000000000
         C            4.847616872773    -7.239915761644     0.672616042328    12.000000000000
         C            3.668467426150    -7.912441644008     0.670267607964    12.000000000000
         H           -5.869944530142    -7.722484249106     0.673084231012     1.007825032230
         H            5.788245445663    -7.784985840379     0.673743161810     1.007825032230
         H           -3.753531119175    -8.959725220301     0.667389066206     1.007825032230
         H           -1.284308585620    -8.969529043562     0.662833950238     1.007825032230
         H            1.189217394970    -8.982814271654     0.663864300097     1.007825032230
         H            3.658542435098    -8.999514285118     0.668613066542     1.007825032230

  Charge       = 0
  Multiplicity = 1
  Basis Set: JUN-CC-PVDZ
    Blend: JUN-CC-PVDZ
  Basis Set: (JUN-CC-PVDZ AUX)
    Blend: JUN-CC-PVDZ-JKFIT

    Orbital Energies [Eh]
    ---------------------

    Doubly Occupied:

       1A    -11.264045     2A    -11.263731     3A    -11.263729
       4A    -11.263390     5A    -11.263386     6A    -11.263351
       7A    -11.263194     8A    -11.263167     9A    -11.263166
      10A    -11.263009    11A    -11.262849    12A    -11.262845
      13A    -11.262366    14A    -11.262363    15A    -11.262288
      16A    -11.262288    17A    -11.262238    18A    -11.262202
      19A    -11.262157    20A    -11.262119    21A    -11.262117
      22A    -11.261962    23A    -11.261959    24A    -11.261839
      25A    -11.261824    26A    -11.261810    27A    -11.261806
      28A    -11.261759    29A    -11.261751    30A    -11.261679
      31A    -11.261653    32A    -11.261649    33A    -11.261623
      34A    -11.261622    35A    -11.261601    36A    -11.261554
      37A    -11.261414    38A    -11.261402    39A    -11.261396
      40A    -11.261389    41A    -11.261384    42A    -11.261376
      43A    -11.261372    44A    -11.261357    45A    -11.261352
      46A    -11.261330    47A    -11.261326    48A    -11.261322
      49A    -11.261170    50A    -11.261139    51A    -11.261136
      52A    -11.261056    53A    -11.261055    54A    -11.260984
      55A    -11.260014    56A    -11.260001    57A    -11.259998
      58A    -11.259970    59A    -11.259967    60A    -11.259952
      61A    -11.259392    62A    -11.259367    63A    -11.259365
      64A    -11.259313    65A    -11.259310    66A    -11.259282
      67A    -11.259018    68A    -11.259001    69A    -11.258999
      70A    -11.258972    71A    -11.258969    72A    -11.258958
      73A    -11.254589    74A    -11.254587    75A    -11.254586
      76A    -11.254583    77A    -11.254576    78A    -11.254574
      79A    -11.253738    80A    -11.253736    81A    -11.253734
      82A    -11.253733    83A    -11.253730    84A    -11.253724
      85A    -11.253654    86A    -11.253652    87A    -11.253649
      88A    -11.253648    89A    -11.253646    90A    -11.253640
      91A    -11.253116    92A    -11.253114    93A    -11.253114
      94A    -11.253111    95A    -11.253104    96A    -11.253102
      97A     -1.254134    98A     -1.239138    99A     -1.239137
     100A     -1.220580   101A     -1.220576   102A     -1.215609
     103A     -1.201142   104A     -1.195711   105A     -1.188298
     106A     -1.188297   107A     -1.173862   108A     -1.173859
     109A     -1.155770   110A     -1.155767   111A     -1.152877
     112A     -1.144816   113A     -1.144813   114A     -1.128693
     115A     -1.114852   116A     -1.113258   117A     -1.112638
     118A     -1.112624   119A     -1.111706   120A     -1.088555
     121A     -1.088540   122A     -1.077054   123A     -1.077052
     124A     -1.067749   125A     -1.067719   126A     -1.065120
     127A     -1.046914   128A     -1.046907   129A     -1.040603
     130A     -1.038827   131A     -1.038826   132A     -1.025388
     133A     -1.021560   134A     -1.021509   135A     -1.007286
     136A     -1.006929   137A     -1.003906   138A     -1.000630
     139A     -1.000582   140A     -0.991162   141A     -0.971119
     142A     -0.971070   143A     -0.955987   144A     -0.955931
     145A     -0.905757   146A     -0.905715   147A     -0.905634
     148A     -0.905593   149A     -0.904514   150A     -0.892528
     151A     -0.892468   152A     -0.890514   153A     -0.890456
     154A     -0.889587   155A     -0.872316   156A     -0.869131
     157A     -0.851645   158A     -0.848008   159A     -0.847987
     160A     -0.845745   161A     -0.843148   162A     -0.834679
     163A     -0.834666   164A     -0.828209   165A     -0.828205
     166A     -0.784670   167A     -0.784659   168A     -0.783797
     169A     -0.783771   170A     -0.782415   171A     -0.782395
     172A     -0.782179   173A     -0.767103   174A     -0.760950
     175A     -0.750727   176A     -0.733582   177A     -0.727185
     178A     -0.727171   179A     -0.725210   180A     -0.724652
     181A     -0.724633   182A     -0.718655   183A     -0.713917
     184A     -0.713911   185A     -0.699689   186A     -0.699677
     187A     -0.686288   188A     -0.686054   189A     -0.686051
     190A     -0.682277   191A     -0.682266   192A     -0.678913
     193A     -0.653743   194A     -0.650990   195A     -0.650960
     196A     -0.649964   197A     -0.649949   198A     -0.649663
     199A     -0.641084   200A     -0.641056   201A     -0.640187
     202A     -0.639251   203A     -0.636157   204A     -0.636130
     205A     -0.629256   206A     -0.617829   207A     -0.615397
     208A     -0.615376   209A     -0.608908   210A     -0.608902
     211A     -0.599183   212A     -0.599143   213A     -0.598866
     214A     -0.598738   215A     -0.598713   216A     -0.598194
     217A     -0.595163   218A     -0.595151   219A     -0.594835
     220A     -0.594396   221A     -0.592083   222A     -0.592080
     223A     -0.587553   224A     -0.577871   225A     -0.577861
     226A     -0.575729   227A     -0.575726   228A     -0.573483
     229A     -0.569559   230A     -0.568292   231A     -0.568268
     232A     -0.566872   233A     -0.566862   234A     -0.560991
     235A     -0.558850   236A     -0.558831   237A     -0.558507
     238A     -0.554483   239A     -0.550624   240A     -0.547550
     241A     -0.544334   242A     -0.535031   243A     -0.534993
     244A     -0.533647   245A     -0.533625   246A     -0.528173
     247A     -0.528158   248A     -0.527950   249A     -0.517312
     250A     -0.517278   251A     -0.515419   252A     -0.515414
     253A     -0.509736   254A     -0.509720   255A     -0.498130
     256A     -0.496562   257A     -0.496536   258A     -0.493837
     259A     -0.493827   260A     -0.489471   261A     -0.481544
     262A     -0.477482   263A     -0.477479   264A     -0.474096
     265A     -0.469563   266A     -0.466642   267A     -0.466637
     268A     -0.458870   269A     -0.446852   270A     -0.446792
     271A     -0.441094   272A     -0.440818   273A     -0.440795
     274A     -0.434750   275A     -0.433967   276A     -0.407442
     277A     -0.407418   278A     -0.386478   279A     -0.386430
     280A     -0.385791   281A     -0.385790   282A     -0.383822
     283A     -0.354392   284A     -0.354376   285A     -0.350730
     286A     -0.338160   287A     -0.335659   288A     -0.335591
     289A     -0.332773   290A     -0.332767   291A     -0.307155
     292A     -0.302018   293A     -0.301956   294A     -0.300905
     295A     -0.286235   296A     -0.256521   297A     -0.253570
     298A     -0.253517   299A     -0.204328   300A     -0.204239

  @DF-RHF Final Energy: -3650.33786015994792

   => Energetics <=

    Nuclear Repulsion Energy =          15611.4211649754306563
    One-Electron Energy =              -36072.0827128629898652
    Two-Electron Energy =               16810.3236877276140149
    Total Energy =                      -3650.3378601599470130
 Dipole X            :         -0.0010752            0.0002112           -0.0008640
 Dipole Y            :        123.2129121         -123.2131634           -0.0002513
 Dipole Z            :       -760.7235331          760.7235066           -0.0000265
 Magnitude           :                                                    0.0009002

    SAPT Results
  --------------------------------------------------------------------------------------------------------
    Electrostatics                 -6.40043639 [mEh]      -4.01633447 [kcal/mol]     -16.80434343 [kJ/mol]
      Elst10,r                     -6.40043639 [mEh]      -4.01633447 [kcal/mol]     -16.80434343 [kJ/mol]

    Exchange                       -0.00007259 [mEh]      -0.00004555 [kcal/mol]      -0.00019058 [kJ/mol]
      Exch10                       -0.00007259 [mEh]      -0.00004555 [kcal/mol]      -0.00019058 [kJ/mol]
      Exch10(S^2)                  -0.00007259 [mEh]      -0.00004555 [kcal/mol]      -0.00019058 [kJ/mol]

    Induction                      -1.78678493 [mEh]      -1.12122447 [kcal/mol]      -4.69120320 [kJ/mol]
      Ind20,r                      -1.76830916 [mEh]      -1.10963075 [kcal/mol]      -4.64269505 [kJ/mol]
      Exch-Ind20,r                  0.00003923 [mEh]       0.00002461 [kcal/mol]       0.00010299 [kJ/mol]
      delta HF,r (2)               -0.01851500 [mEh]      -0.01161834 [kcal/mol]      -0.04861114 [kJ/mol]

    Dispersion                     -0.60482724 [mEh]      -0.37953482 [kcal/mol]      -1.58797370 [kJ/mol]
      Disp20                       -0.60484103 [mEh]      -0.37954348 [kcal/mol]      -1.58800991 [kJ/mol]
      Exch-Disp20                   0.00001379 [mEh]       0.00000865 [kcal/mol]       0.00003621 [kJ/mol]
      Disp20 (SS)                  -0.30242052 [mEh]      -0.18977174 [kcal/mol]      -0.79400495 [kJ/mol]
      Disp20 (OS)                  -0.30242052 [mEh]      -0.18977174 [kcal/mol]      -0.79400495 [kJ/mol]
      Exch-Disp20 (SS)              0.00001022 [mEh]       0.00000642 [kcal/mol]       0.00002684 [kJ/mol]
      Exch-Disp20 (OS)              0.00000357 [mEh]       0.00000224 [kcal/mol]       0.00000936 [kJ/mol]

  Total HF                         -8.18729391 [mEh]      -5.13760449 [kcal/mol]     -21.49573720 [kJ/mol]
  Total SAPT0                      -8.79212115 [mEh]      -5.51713932 [kcal/mol]     -23.08371091 [kJ/mol]

  Special recipe for scaled SAPT0 (see Manual):
    Electrostatics sSAPT0          -6.40043639 [mEh]      -4.01633447 [kcal/mol]     -16.80434343 [kJ/mol]
    Exchange sSAPT0                -0.00007259 [mEh]      -0.00004555 [kcal/mol]      -0.00019058 [kJ/mol]
    Induction sSAPT0               -1.78678493 [mEh]      -1.12122447 [kcal/mol]      -4.69120320 [kJ/mol]
    Dispersion sSAPT0              -0.60482724 [mEh]      -0.37953482 [kcal/mol]      -1.58797370 [kJ/mol]
  Total sSAPT0                     -8.79212115 [mEh]      -5.51713932 [kcal/mol]     -23.08371091 [kJ/mol]
  --------------------------------------------------------------------------------------------------------

*** Psi4 exiting successfully. Buy a developer a beer!
