                               Psi4 1.9 release

  ==> Input File <==

--------------------------------------------------------------------------
memory 80 GB # how much memory is available ! Depends on the nodes/cores !

molecule dimer {
# monomer A
+1 1    # Charge and multiplicity
C  0.680067 -0.008042 -4.715929
C -0.680504 -0.006014 -4.715545
N -1.085635 -0.005016 -3.397221
C  0.000108 -0.001740 -2.615820
C -2.477365  0.044390 -2.929242
N  1.085222 -0.005016 -3.397221
H  1.385146 -0.015870 -5.533368
H -1.385302 -0.006204 -5.533214
H -0.000009  0.000007 -1.534731
C  2.478117 -0.021908 -2.932123
H  2.490592  0.005437 -1.841870
H  2.967028 -0.935354 -3.279299
H  3.001428  0.853575 -3.323595
H -2.857359  1.066461 -3.009201
H -3.082679 -0.625694 -3.542306
H -2.518128 -0.282594 -1.889294
--
# monomer B
0 1     # Charge and multiplicity
C   -3.66844126402057      7.80375217008252      0.00190004133558
C   -4.84759871934653      7.13124183134024     -0.00046653359696
C   -4.89495929917518      5.69633040353158     -0.00103944469517
C   -3.65374067877320      4.98073034095895      0.00662099703436
C   -2.40942512149445      7.11398103667468      0.00209438359570
C   -2.42547734410473      5.68112195090346     -0.00491050527438
C   -1.19474401643570      7.78614419430947      0.00356656413763
C   0.03795902893699      7.09942164575698      0.00139585983271
C   0.03033258741920      5.66948955970466     -0.00408752508301
C   -1.20098450790502      4.96927034791531      0.00488220885047
C   1.27795782581485      7.77285944319479      0.00277170839332
C   2.48535808472416      7.08769688523756      0.00049722048857
C   2.48612868491717      5.65477081024076     -0.00644052849921
C   1.25408291964399      4.95607811366431      0.00518741308898
C   3.75171459140595      7.76391215098033      0.00062407186893
C   4.92356605618520      7.07878077698995     -0.00143240883900
C   4.95560727132542      5.64344746336949     -0.00159282164606
C   3.70680153420475      4.94121020833308      0.00349873852374
H   -3.65852113775815      8.89082741913536      0.00358502958574
H   -1.18921332975660      8.87412108735996      0.00753844057883
H   1.28429423888630      8.86083343548850      0.00693053253426
H   3.75354208679975      8.85103527897216      0.00214659618464
H   5.86995870320703      7.61379483465560     -0.00235777588134
H   -5.78823170750226      7.67630221293400     -0.00202638095293
C   -6.09197395869619      4.99326001364347     -0.00291168518608
C   -6.12866148031747      3.58258016879823     -0.00171050815740
C   -3.66457974004527      3.56418217974434     -0.00463560277484
C   -4.89429820469869      2.86108077590057      0.00453338221034
C   -2.43733499489796      2.84761165708481      0.00719617576166
C   -1.20922785759670      3.54788693497833     -0.00648285103018
C   1.24714157216223      3.53468075142962     -0.00729145743546
C   0.01517603956900      2.83311183930540      0.00439272578912
C   2.46764517244071      2.82128997725533      0.00449278391269
C   3.70254947457969      3.52466015442405     -0.00899517692985
C   6.14498038638375      4.92757236613191     -0.00282626685777
C   6.16658835886151      3.51658447594213     -0.00065971342101
C   4.92460995845939      2.80840792535402      0.00587903281610
H   7.08990550964105      5.46688776622306     -0.00658814770723
H   -7.03104175110130      5.54268795285765     -0.00714490013730
C   -7.33969804112295      2.85841153457957     -0.00333767559888
C   -7.36488195805880      1.47032337158330     -0.00157213747140
C   -4.90350460894690      1.44442681216000     -0.00628840166334
C   -6.13225715261081      0.73993935705394      0.00600164231964
C   -3.67687480051673      0.72669714267312      0.00433931473643
C   -2.44565658606518      1.42964113326212     -0.00597039546461
C   -1.22360068130162      0.71532450163492      0.00545886906656
C   0.00763786931376      1.41738314923765      0.00392452278437
C   1.23121980774686      0.70211669058719     -0.01490206287210
C   2.46082110053113      1.40329203612573      0.00460244601878
C   3.68443025419614      0.68719842821222      0.00377365974158
C   4.91870890153864      1.39173456118907     -0.00862816189375
C   7.36980207796101      2.77948220318441     -0.00242013321349
C   7.38016266612146      1.39121750785509     -0.00087345036788
C   6.13979953912259      0.67411862320065      0.00545489144369
H   -8.27919079934664      3.40711804112415     -0.00763522772059
H   8.31511347147953      3.31811809662368     -0.00663070901292
C   -8.59175593758115      0.72483255304480     -0.00123170985383
C   -8.59902460370342     -0.63263980622873      0.00089141472904
C   -6.13981313911873     -0.67413663715361     -0.00609792660607
C   -7.38018411213749     -1.39126618958160      0.00131813493501
C   -4.91868448025621     -1.39175501803000      0.00624257154343
C   -3.68443829568458     -0.68723731573599     -0.00478966852105
C   -2.46081704024768     -1.40334517882457      0.00575341766833
C   -1.23116201232071     -0.70217386488055     -0.00636696112346
C   -0.00756962538737     -1.41741884941102      0.00108956317991
C   1.22364771588843     -0.71527537726392      0.01109518512883
C   2.44567064933149     -1.42964328900682     -0.00065482763106
C   3.67686670284649     -0.72670743155550     -0.00479541202602
C   6.13224884641929     -0.73997883984993     -0.00632338623858
C   4.90351914550401     -1.44445752054090      0.00751768830159
C   8.59901484869081      0.63260386666793     -0.00101133422380
C   8.59174548810050     -0.72485086719319      0.00072504603735
C   7.36486276438985     -1.47033266560598      0.00049486934466
H   -9.52830597181814      1.27684744919284     -0.00270163681798
H   9.54141097460619      1.17457248844457     -0.00206336648518
C   -7.36983790976868     -2.77954514593389      0.00312634335708
C   -4.92459910905015     -2.80843725734101     -0.00460528907921
C   -6.16662249566744     -3.51665219282533      0.00169655107992
C   -3.70251035970491     -3.52468154912026      0.00571878010666
C   -2.46764698511392     -2.82132596280400     -0.00632585824990
C   -0.01513347410770     -2.83314164539971     -0.00604426974092
C   -1.24712184122656     -3.53473217556300      0.00551968366725
C   1.20924506964357     -3.54791467864352      0.00805871345849
C   2.43733602215464     -2.84764173817541     -0.00608104485234
C   4.89430234377080     -2.86112296828604     -0.00526030478103
C   3.66461525504104     -3.56421984553201      0.00761911515957
C   6.12863901474565     -3.58258405771778      0.00096495711699
C   7.33967266469532     -2.85841330737039      0.00248018319869
H   -9.54144911125902     -1.17456346666430      0.00226083090216
H   9.52826186807155     -1.27691907390448      0.00197485379837
H   -8.31516504384864     -3.31814985321231      0.00729857188773
H   8.27915514249207     -3.40714078989363      0.00681973918158
C   -6.14499418870218     -4.92764727278338      0.00302254913999
C   -3.70678334799751     -4.94126171411716     -0.00679841894792
C   -4.95559005800169     -5.64349397349412      0.00116871569699
C   -2.48612132622665     -5.65478557440947      0.00614125209662
C   -1.25405833548005     -4.95612205000132     -0.00503435388927
C   1.20101257386816     -4.96928038819302     -0.00385322963129
C   -0.03033667441341     -5.66952030313900      0.00398997003238
C   3.65375010132847     -4.98074377541453     -0.00309522988330
C   2.42549269587528     -5.68117463552727      0.00628170066869
C   6.09196561781097     -4.99325796338655      0.00325918379042
C   4.89497644461045     -5.69634842095790      0.00202298796027
H   -7.08989238804069     -5.46699984223871      0.00742531082125
H   7.03105520920009     -5.54265853633254      0.00683896355417
C   -4.92354532219813     -7.07882109967734      0.00061394679214
C   -2.48534208823777     -7.08772807792913     -0.00189594564379
C   -3.75168589177895     -7.76394715763627     -0.00170126671874
C   -0.03794895698805     -7.09946487446944     -0.00168022049625
C   -1.27795610040136     -7.77290438466689     -0.00366491325785
C   2.40944432072629     -7.11402201200282     -0.00081701968533
C   1.19474993715296     -7.78618536556242     -0.00296931056689
C   4.84762105249800     -7.13126211057943      0.00168979497423
C   3.66847160587561     -7.80378799294376     -0.00065863938960
H   -5.86994035041618     -7.61383059804164      0.00215798365757
H   5.78824962538815     -7.67633218931421      0.00281691445618
H   -3.75352693944918     -8.85107156923607     -0.00353718114765
H   -1.28430440589466     -8.86087539249706     -0.00809229711623
H   1.18922157469537     -8.87416062058945     -0.00706194725726
H   3.65854661482387     -8.89086063405326     -0.00231318081200

    units angstrom      # Angstroms are the default
    no_reorient         # Geometry fixed, default
    symmetry c1         # C1 symmetry, default
}

set {
    scf_type DF         # Density fitting, faster than exact integrals
    freeze_core True    # Freeze core electrons
    basis jun-cc-pVDZ   # Jun-cc-pVDZ basis set, recommended for sSAPT0 in https://doi.org/10.1063/1.4867135
}

energy('ssapt0')        # Compute sSAPT0 energy, includes also SAPT0
--------------------------------------------------------------------------

  //              Dimer HF             //
    Molecular point group: c1
  Charge       = 1
  Multiplicity = 1
  Basis Set: JUN-CC-PVDZ
    Blend: JUN-CC-PVDZ
  Basis Set: (JUN-CC-PVDZ AUX)
    Blend: JUN-CC-PVDZ-JKFIT
  @DF-RHF Final Energy: -3953.60178592935108
    Total Energy =                      -3953.6017859293497168
 Dipole X            :          0.0003912            0.0004804            0.0008716
 Dipole Y            :         -0.0492024            0.0561130            0.0069106
 Dipole Z            :         15.8432622          -19.3700388           -3.5267766
 Magnitude           :                                                    3.5267835
  //            Monomer A HF           //
    Molecular point group: c1
  Multiplicity = 1
  Basis Set: JUN-CC-PVDZ
    Blend: JUN-CC-PVDZ
  Basis Set: (JUN-CC-PVDZ AUX)
    Blend: JUN-CC-PVDZ-JKFIT
  @DF-RHF Final Energy:  -303.29915211926834
    Total Energy =                       -303.2991521192683422
  //            Monomer B HF           //
    Molecular point group: c1

    Geometry (in Angstrom), charge = 0, multiplicity = 1:

       Center              X                  Y                   Z               Mass
    ------------   -----------------  -----------------  -----------------  -----------------
      Gh(C)           0.680062820275    -0.008027535675    -4.449086813240    12.000000000000
      Gh(C)          -0.680508179725    -0.005999535675    -4.448702813240    12.000000000000
      Gh(N)          -1.085639179725    -0.005001535675    -3.130378813240    14.003074004430
      Gh(C)           0.000103820275    -0.001725535675    -2.348977813240    12.000000000000
      Gh(C)          -2.477369179725     0.044404464325    -2.662399813240    12.000000000000
      Gh(N)           1.085217820275    -0.005001535675    -3.130378813240    14.003074004430
      Gh(H)           1.385141820275    -0.015855535675    -5.266525813240     1.007825032230
      Gh(H)          -1.385306179725    -0.006189535675    -5.266371813240     1.007825032230
      Gh(H)          -0.000013179725     0.000021464325    -1.267888813240     1.007825032230
      Gh(C)           2.478112820275    -0.021893535675    -2.665280813240    12.000000000000
      Gh(H)           2.490587820275     0.005451464325    -1.575027813240     1.007825032230
      Gh(H)           2.967023820275    -0.935339535675    -3.012456813240     1.007825032230
      Gh(H)           3.001423820275     0.853589464325    -3.056752813240     1.007825032230
      Gh(H)          -2.857363179725     1.066475464325    -2.742358813240     1.007825032230
      Gh(H)          -3.082683179725    -0.625679535675    -3.275463813240     1.007825032230
      Gh(H)          -2.518132179725    -0.282579535675    -1.622451813240     1.007825032230
         C           -3.668445443746     7.803766634408     0.268742228096    12.000000000000
         C           -4.847602899072     7.131256295665     0.266375653163    12.000000000000
         C           -4.894963478901     5.696344867857     0.265802742065    12.000000000000
         C           -3.653744858499     4.980744805284     0.273463183795    12.000000000000
         C           -2.409429301220     7.113995501000     0.268936570356    12.000000000000
         C           -2.425481523830     5.681136415228     0.261931681486    12.000000000000
         C           -1.194748196161     7.786158658634     0.270408750898    12.000000000000
         C            0.037954849212     7.099436110082     0.268238046593    12.000000000000
         C            0.030328407694     5.669504024030     0.262754661677    12.000000000000
         C           -1.200988687630     4.969284812240     0.271724395611    12.000000000000
         C            1.277953646089     7.772873907520     0.269613895154    12.000000000000
         C            2.485353904999     7.087711349563     0.267339407249    12.000000000000
         C            2.486124505192     5.654785274566     0.260401658261    12.000000000000
         C            1.254078739919     4.956092577989     0.272029599849    12.000000000000
         C            3.751710411681     7.763926615305     0.267466258629    12.000000000000
         C            4.923561876460     7.078795241315     0.265409777921    12.000000000000
         C            4.955603091600     5.643461927694     0.265249365114    12.000000000000
         C            3.706797354479     4.941224672658     0.270340925284    12.000000000000
         H           -3.658525317484     8.890841883460     0.270427216346     1.007825032230
         H           -1.189217509482     8.874135551685     0.274380627339     1.007825032230
         H            1.284290059161     8.860847899813     0.273772719295     1.007825032230
         H            3.753537907074     8.851049743297     0.268988782945     1.007825032230
         H            5.869954523482     7.613809298981     0.264484410879     1.007825032230
         H           -5.788235887228     7.676316677259     0.264815805807     1.007825032230
         C           -6.091978138422     4.993274477968     0.263930501574    12.000000000000
         C           -6.128665660043     3.582594633123     0.265131678603    12.000000000000
         C           -3.664583919771     3.564196644069     0.262206583986    12.000000000000
         C           -4.894302384424     2.861095240226     0.271375568971    12.000000000000
         C           -2.437339174623     2.847626121410     0.274038362522    12.000000000000
         C           -1.209232037322     3.547901399303     0.260359335730    12.000000000000
         C            1.247137392437     3.534695215755     0.259550729325    12.000000000000
         C            0.015171859844     2.833126303630     0.271234912550    12.000000000000
         C            2.467640992715     2.821304441580     0.271334970673    12.000000000000
         C            3.702545294854     3.524674618749     0.257847009831    12.000000000000
         C            6.144976206658     4.927586830457     0.264015919903    12.000000000000
         C            6.166584179136     3.516598940267     0.266182473339    12.000000000000
         C            4.924605778734     2.808422389679     0.272721219577    12.000000000000
         H            7.089901329916     5.466902230548     0.260254039053     1.007825032230
         H           -7.031045930827     5.542702417183     0.259697286623     1.007825032230
         C           -7.339702220848     2.858425998905     0.263504511162    12.000000000000
         C           -7.364886137784     1.470337835908     0.265270049289    12.000000000000
         C           -4.903508788672     1.444441276485     0.260553785097    12.000000000000
         C           -6.132261332336     0.739953821379     0.272843829080    12.000000000000
         C           -3.676878980242     0.726711606998     0.271181501497    12.000000000000
         C           -2.445660765791     1.429655597587     0.260871791296    12.000000000000
         C           -1.223604861027     0.715338965960     0.272301055827    12.000000000000
         C            0.007633689588     1.417397613563     0.270766709545    12.000000000000
         C            1.231215628021     0.702131154912     0.251940123888    12.000000000000
         C            2.460816920806     1.403306500451     0.271444632779    12.000000000000
         C            3.684426074471     0.687212892537     0.270615846502    12.000000000000
         C            4.918704721813     1.391749025514     0.258214024867    12.000000000000
         C            7.369797898236     2.779496667509     0.264422053547    12.000000000000
         C            7.380158486396     1.391231972180     0.265968736393    12.000000000000
         C            6.139795359397     0.674133087526     0.272297078204    12.000000000000
         H           -8.279194979072     3.407132505449     0.259206959040     1.007825032230
         H            8.315109291754     3.318132560949     0.260211477747     1.007825032230
         C           -8.591760117307     0.724847017370     0.265610476907    12.000000000000
         C           -8.599028783429    -0.632625341904     0.267733601489    12.000000000000
         C           -6.139817318844    -0.674122172829     0.260744260154    12.000000000000
         C           -7.380188291863    -1.391251725257     0.268160321695    12.000000000000
         C           -4.918688659982    -1.391740553705     0.273084758304    12.000000000000
         C           -3.684442475410    -0.687222851411     0.262052518239    12.000000000000
         C           -2.460821219973    -1.403330714500     0.272595604429    12.000000000000
         C           -1.231166192046    -0.702159400556     0.260475225637    12.000000000000
         C           -0.007573805113    -1.417404385086     0.267931749940    12.000000000000
         C            1.223643536163    -0.715260912939     0.277937371889    12.000000000000
         C            2.445666469606    -1.429628824682     0.266187359129    12.000000000000
         C            3.676862523121    -0.726692967231     0.262046774734    12.000000000000
         C            6.132244666694    -0.739964375525     0.260518800522    12.000000000000
         C            4.903514965779    -1.444443056216     0.274359875062    12.000000000000
         C            8.599010668965     0.632618330993     0.265830852537    12.000000000000
         C            8.591741308375    -0.724836402868     0.267567232798    12.000000000000
         C            7.364858584664    -1.470318201281     0.267337056105    12.000000000000
         H           -9.528310151544     1.276861913518     0.264140549942     1.007825032230
         H            9.541406794881     1.174586952770     0.264778820275     1.007825032230
         C           -7.369842089494    -2.779530681609     0.269968530117    12.000000000000
         C           -4.924603288776    -2.808422793016     0.262236897681    12.000000000000
         C           -6.166626675393    -3.516637728500     0.268538737840    12.000000000000
         C           -3.702514539430    -3.524667084795     0.272560966867    12.000000000000
         C           -2.467651164839    -2.821311498479     0.260516328511    12.000000000000
         C           -0.015137653833    -2.833127181075     0.260797917019    12.000000000000
         C           -1.247126020952    -3.534717711238     0.272361870428    12.000000000000
         C            1.209240889918    -3.547900214319     0.274900900219    12.000000000000
         C            2.437331842429    -2.847627273850     0.260761141908    12.000000000000
         C            4.894298164045    -2.861108503961     0.261581881979    12.000000000000
         C            3.664611075316    -3.564205381207     0.274461301920    12.000000000000
         C            6.128634835020    -3.582569593393     0.267807143877    12.000000000000
         C            7.339668484970    -2.858398843045     0.269322369959    12.000000000000
         H           -9.541453290984    -1.174549002339     0.269103017663     1.007825032230
         H            9.528257688346    -1.276904609579     0.268817040559     1.007825032230
         H           -8.315169223574    -3.318135388887     0.274140758648     1.007825032230
         H            8.279150962767    -3.407126325569     0.273661925942     1.007825032230
         C           -6.144998368428    -4.927632808458     0.269864735900    12.000000000000
         C           -3.706787527723    -4.941247249792     0.260043767812    12.000000000000
         C           -4.955594237727    -5.643479509169     0.268010902457    12.000000000000
         C           -2.486125505952    -5.654771110084     0.272983438857    12.000000000000
         C           -1.254062515205    -4.956107585676     0.261807832871    12.000000000000
         C            1.201008394143    -4.969265923868     0.262988957129    12.000000000000
         C           -0.030340854139    -5.669505838814     0.270832156793    12.000000000000
         C            3.653745921603    -4.980729311090     0.263746956877    12.000000000000
         C            2.425488516150    -5.681160171202     0.273123887429    12.000000000000
         C            6.091961438086    -4.993243499062     0.270101370551    12.000000000000
         C            4.894972264885    -5.696333956633     0.268865174721    12.000000000000
         H           -7.089896567766    -5.466985377914     0.274267497582     1.007825032230
         H            7.031051029475    -5.542644072008     0.273681150315     1.007825032230
         C           -4.923549501924    -7.078806635352     0.267456133553    12.000000000000
         C           -2.485346267963    -7.087713613604     0.264946241117    12.000000000000
         C           -3.751690071504    -7.763932693311     0.265140920042    12.000000000000
         C           -0.037953136713    -7.099450410144     0.265161966264    12.000000000000
         C           -1.277960280127    -7.772889920342     0.263177273503    12.000000000000
         C            2.409440141001    -7.114007547678     0.266025167075    12.000000000000
         C            1.194745757428    -7.786170901237     0.263872876194    12.000000000000
         C            4.847616872773    -7.131247646254     0.268531981735    12.000000000000
         C            3.668467426150    -7.803773528619     0.266183547371    12.000000000000
         H           -5.869944530142    -7.613816133717     0.269000170418     1.007825032230
         H            5.788245445663    -7.676317724989     0.269659101217     1.007825032230
         H           -3.753531119175    -8.851057104911     0.263305005613     1.007825032230
         H           -1.284308585620    -8.860860928172     0.258749889644     1.007825032230
         H            1.189217394970    -8.874146156264     0.259780239503     1.007825032230
         H            3.658542435098    -8.890846169728     0.264529005948     1.007825032230

  Charge       = 0
  Multiplicity = 1
  Basis Set: JUN-CC-PVDZ
    Blend: JUN-CC-PVDZ
  Basis Set: (JUN-CC-PVDZ AUX)
    Blend: JUN-CC-PVDZ-JKFIT

    Orbital Energies [Eh]
    ---------------------

    Doubly Occupied:

       1A    -11.264014     2A    -11.263723     3A    -11.263610
       4A    -11.263306     5A    -11.263299     6A    -11.263194
       7A    -11.263143     8A    -11.263084     9A    -11.263014
      10A    -11.262848    11A    -11.262730    12A    -11.262698
      13A    -11.262238    14A    -11.262226    15A    -11.262216
      16A    -11.262127    17A    -11.262064    18A    -11.262044
      19A    -11.262012    20A    -11.261963    21A    -11.261952
      22A    -11.261859    23A    -11.261822    24A    -11.261691
      25A    -11.261685    26A    -11.261659    27A    -11.261650
      28A    -11.261610    29A    -11.261606    30A    -11.261516
      31A    -11.261500    32A    -11.261490    33A    -11.261480
      34A    -11.261471    35A    -11.261448    36A    -11.261430
      37A    -11.261272    38A    -11.261262    39A    -11.261254
      40A    -11.261247    41A    -11.261231    42A    -11.261227
      43A    -11.261219    44A    -11.261207    45A    -11.261195
      46A    -11.261178    47A    -11.261167    48A    -11.261157
      49A    -11.261032    50A    -11.261025    51A    -11.260955
      52A    -11.260922    53A    -11.260867    54A    -11.260827
      55A    -11.259842    56A    -11.259823    57A    -11.259819
      58A    -11.259795    59A    -11.259786    60A    -11.259769
      61A    -11.259211    62A    -11.259185    63A    -11.259173
      64A    -11.259132    65A    -11.259114    66A    -11.259090
      67A    -11.258842    68A    -11.258821    69A    -11.258817
      70A    -11.258795    71A    -11.258784    72A    -11.258770
      73A    -11.254483    74A    -11.254474    75A    -11.254473
      76A    -11.254461    77A    -11.254447    78A    -11.254444
      79A    -11.253601    80A    -11.253583    81A    -11.253578
      82A    -11.253568    83A    -11.253565    84A    -11.253559
      85A    -11.253516    86A    -11.253498    87A    -11.253488
      88A    -11.253480    89A    -11.253473    90A    -11.253471
      91A    -11.253010    92A    -11.253002    93A    -11.253000
      94A    -11.252988    95A    -11.252975    96A    -11.252972
      97A     -1.253784    98A     -1.238883    99A     -1.238832
     100A     -1.220352   101A     -1.220327   102A     -1.215292
     103A     -1.200932   104A     -1.195495   105A     -1.188013
     106A     -1.187983   107A     -1.173662   108A     -1.173660
     109A     -1.155492   110A     -1.155487   111A     -1.152567
     112A     -1.144625   113A     -1.144624   114A     -1.128438
     115A     -1.114578   116A     -1.113067   117A     -1.112353
     118A     -1.112313   119A     -1.111525   120A     -1.088305
     121A     -1.088282   122A     -1.076868   123A     -1.076866
     124A     -1.067496   125A     -1.067446   126A     -1.064826
     127A     -1.046684   128A     -1.046670   129A     -1.040357
     130A     -1.038647   131A     -1.038636   132A     -1.025103
     133A     -1.021228   134A     -1.021157   135A     -1.007072
     136A     -1.006676   137A     -1.003685   138A     -1.000362
     139A     -1.000294   140A     -0.990988   141A     -0.970861
     142A     -0.970805   143A     -0.955783   144A     -0.955720
     145A     -0.905464   146A     -0.905422   147A     -0.905417
     148A     -0.905400   149A     -0.904158   150A     -0.892197
     151A     -0.892144   152A     -0.890214   153A     -0.890166
     154A     -0.889317   155A     -0.872119   156A     -0.868980
     157A     -0.851428   158A     -0.847714   159A     -0.847704
     160A     -0.845454   161A     -0.842876   162A     -0.834436
     163A     -0.834428   164A     -0.828028   165A     -0.828014
     166A     -0.784432   167A     -0.784425   168A     -0.783525
     169A     -0.783517   170A     -0.782151   171A     -0.782135
     172A     -0.781888   173A     -0.766867   174A     -0.760638
     175A     -0.750437   176A     -0.733387   177A     -0.726965
     178A     -0.726907   179A     -0.724950   180A     -0.724429
     181A     -0.724385   182A     -0.718341   183A     -0.713625
     184A     -0.713617   185A     -0.699466   186A     -0.699436
     187A     -0.685972   188A     -0.685851   189A     -0.685831
     190A     -0.682055   191A     -0.682046   192A     -0.678653
     193A     -0.653510   194A     -0.650751   195A     -0.650714
     196A     -0.649661   197A     -0.649648   198A     -0.649456
     199A     -0.640792   200A     -0.640732   201A     -0.639973
     202A     -0.639055   203A     -0.635890   204A     -0.635855
     205A     -0.629012   206A     -0.617696   207A     -0.615203
     208A     -0.615171   209A     -0.608682   210A     -0.608675
     211A     -0.599150   212A     -0.599055   213A     -0.598618
     214A     -0.598456   215A     -0.598430   216A     -0.597890
     217A     -0.594959   218A     -0.594944   219A     -0.594601
     220A     -0.594067   221A     -0.591822   222A     -0.591818
     223A     -0.587230   224A     -0.577715   225A     -0.577688
     226A     -0.575667   227A     -0.575627   228A     -0.573262
     229A     -0.569529   230A     -0.567996   231A     -0.567969
     232A     -0.566621   233A     -0.566616   234A     -0.560822
     235A     -0.558596   236A     -0.558535   237A     -0.558333
     238A     -0.554240   239A     -0.550529   240A     -0.547386
     241A     -0.544206   242A     -0.534963   243A     -0.534920
     244A     -0.533419   245A     -0.533404   246A     -0.527970
     247A     -0.527945   248A     -0.527629   249A     -0.517016
     250A     -0.516998   251A     -0.515287   252A     -0.515280
     253A     -0.509529   254A     -0.509518   255A     -0.497904
     256A     -0.496337   257A     -0.496277   258A     -0.493738
     259A     -0.493700   260A     -0.489384   261A     -0.481337
     262A     -0.477342   263A     -0.477340   264A     -0.473872
     265A     -0.469290   266A     -0.466388   267A     -0.466379
     268A     -0.458743   269A     -0.446505   270A     -0.446459
     271A     -0.440958   272A     -0.440697   273A     -0.440643
     274A     -0.434611   275A     -0.433836   276A     -0.407297
     277A     -0.407272   278A     -0.386308   279A     -0.386257
     280A     -0.385660   281A     -0.385648   282A     -0.383666
     283A     -0.354235   284A     -0.354207   285A     -0.350569
     286A     -0.337995   287A     -0.335442   288A     -0.335431
     289A     -0.332641   290A     -0.332620   291A     -0.306948
     292A     -0.301844   293A     -0.301766   294A     -0.300776
     295A     -0.286071   296A     -0.256414   297A     -0.253357
     298A     -0.253316   299A     -0.204156   300A     -0.204075

  @DF-RHF Final Energy: -3650.34233538128683

   => Energetics <=

    Nuclear Repulsion Energy =          15611.4211649754306563
    One-Electron Energy =              -36072.2110167289429228
    Two-Electron Energy =               16810.4475163722272555
    Total Energy =                      -3650.3423353812868299
 Dipole X            :         -0.0003986            0.0002112           -0.0001874
 Dipole Y            :          0.0029851           -0.0013774            0.0016077
 Dipole Z            :       -302.5567327          302.5585829            0.0018502
 Magnitude           :                                                    0.0024583

    SAPT Results
  --------------------------------------------------------------------------------------------------------
    Electrostatics                -45.46494931 [mEh]     -28.52968642 [kcal/mol]    -119.36820796 [kJ/mol]
      Elst10,r                    -45.46494931 [mEh]     -28.52968642 [kcal/mol]    -119.36820796 [kJ/mol]

    Exchange                      128.89851353 [mEh]      80.88503840 [kcal/mol]     338.42300066 [kJ/mol]
      Exch10                      128.89851353 [mEh]      80.88503840 [kcal/mol]     338.42300066 [kJ/mol]
      Exch10(S^2)                 124.96593914 [mEh]      78.41731071 [kcal/mol]     328.09802801 [kJ/mol]

    Induction                     -43.73199302 [mEh]     -27.44223993 [kcal/mol]    -114.81833186 [kJ/mol]
      Ind20,r                     -68.91027910 [mEh]     -43.24185297 [kcal/mol]    -180.92391285 [kJ/mol]
      Exch-Ind20,r                 38.10865626 [mEh]      23.91354284 [kcal/mol]     100.05426323 [kJ/mol]
      delta HF,r (2)              -12.93037018 [mEh]      -8.11392979 [kcal/mol]     -33.94868224 [kJ/mol]

    Dispersion                    -62.41027925 [mEh]     -39.16304149 [kcal/mol]    -163.85816559 [kJ/mol]
      Disp20                      -71.36091696 [mEh]     -44.77965145 [kcal/mol]    -187.35806168 [kJ/mol]
      Exch-Disp20                   8.95063772 [mEh]       5.61660996 [kcal/mol]      23.49989609 [kJ/mol]
      Disp20 (SS)                 -35.68045848 [mEh]     -22.38982573 [kcal/mol]     -93.67903084 [kJ/mol]
      Disp20 (OS)                 -35.68045848 [mEh]     -22.38982573 [kcal/mol]     -93.67903084 [kJ/mol]
      Exch-Disp20 (SS)              5.28903103 [mEh]       3.31891708 [kcal/mol]      13.88634906 [kJ/mol]
      Exch-Disp20 (OS)              3.66160669 [mEh]       2.29769288 [kcal/mol]       9.61354703 [kJ/mol]

  Total HF                         39.70157120 [mEh]      24.91311205 [kcal/mol]     104.23646084 [kJ/mol]
  Total SAPT0                     -22.70870804 [mEh]     -14.24992943 [kcal/mol]     -59.62170475 [kJ/mol]

  Special recipe for scaled SAPT0 (see Manual):
    Electrostatics sSAPT0         -45.46494931 [mEh]     -28.52968642 [kcal/mol]    -119.36820796 [kJ/mol]
    Exchange sSAPT0               128.89851353 [mEh]      80.88503840 [kcal/mol]     338.42300066 [kJ/mol]
    Induction sSAPT0              -40.01984404 [mEh]     -25.11283128 [kcal/mol]    -105.07208606 [kJ/mol]
    Dispersion sSAPT0             -61.53840120 [mEh]     -38.61592976 [kcal/mol]    -161.56905010 [kJ/mol]
  Total sSAPT0                    -18.12468102 [mEh]     -11.37340905 [kcal/mol]     -47.58634346 [kJ/mol]
  --------------------------------------------------------------------------------------------------------

*** Psi4 exiting successfully. Buy a developer a beer!
