                               Psi4 1.9 release

  ==> Input File <==

--------------------------------------------------------------------------
memory 80 GB # how much memory is available ! Depends on the nodes/cores !

molecule dimer {
# monomer A
-1 1    # Charge and multiplicity
B -1.977592e-04  2.742729e-04 2.900034
F  1.123153e-16  1.430594e-17 4.312819
F  1.147860e+00  6.757812e-01 2.428893
F  1.191806e-02 -1.332011e+00 2.429095
F -1.159666e+00  6.560735e-01 2.429174
--
# monomer B
0 1     # Charge and multiplicity
C   -3.66844126402057      7.80375217008252      0.00190004133558
C   -4.84759871934653      7.13124183134024     -0.00046653359696
C   -4.89495929917518      5.69633040353158     -0.00103944469517
C   -3.65374067877320      4.98073034095895      0.00662099703436
C   -2.40942512149445      7.11398103667468      0.00209438359570
C   -2.42547734410473      5.68112195090346     -0.00491050527438
C   -1.19474401643570      7.78614419430947      0.00356656413763
C   0.03795902893699      7.09942164575698      0.00139585983271
C   0.03033258741920      5.66948955970466     -0.00408752508301
C   -1.20098450790502      4.96927034791531      0.00488220885047
C   1.27795782581485      7.77285944319479      0.00277170839332
C   2.48535808472416      7.08769688523756      0.00049722048857
C   2.48612868491717      5.65477081024076     -0.00644052849921
C   1.25408291964399      4.95607811366431      0.00518741308898
C   3.75171459140595      7.76391215098033      0.00062407186893
C   4.92356605618520      7.07878077698995     -0.00143240883900
C   4.95560727132542      5.64344746336949     -0.00159282164606
C   3.70680153420475      4.94121020833308      0.00349873852374
H   -3.65852113775815      8.89082741913536      0.00358502958574
H   -1.18921332975660      8.87412108735996      0.00753844057883
H   1.28429423888630      8.86083343548850      0.00693053253426
H   3.75354208679975      8.85103527897216      0.00214659618464
H   5.86995870320703      7.61379483465560     -0.00235777588134
H   -5.78823170750226      7.67630221293400     -0.00202638095293
C   -6.09197395869619      4.99326001364347     -0.00291168518608
C   -6.12866148031747      3.58258016879823     -0.00171050815740
C   -3.66457974004527      3.56418217974434     -0.00463560277484
C   -4.89429820469869      2.86108077590057      0.00453338221034
C   -2.43733499489796      2.84761165708481      0.00719617576166
C   -1.20922785759670      3.54788693497833     -0.00648285103018
C   1.24714157216223      3.53468075142962     -0.00729145743546
C   0.01517603956900      2.83311183930540      0.00439272578912
C   2.46764517244071      2.82128997725533      0.00449278391269
C   3.70254947457969      3.52466015442405     -0.00899517692985
C   6.14498038638375      4.92757236613191     -0.00282626685777
C   6.16658835886151      3.51658447594213     -0.00065971342101
C   4.92460995845939      2.80840792535402      0.00587903281610
H   7.08990550964105      5.46688776622306     -0.00658814770723
H   -7.03104175110130      5.54268795285765     -0.00714490013730
C   -7.33969804112295      2.85841153457957     -0.00333767559888
C   -7.36488195805880      1.47032337158330     -0.00157213747140
C   -4.90350460894690      1.44442681216000     -0.00628840166334
C   -6.13225715261081      0.73993935705394      0.00600164231964
C   -3.67687480051673      0.72669714267312      0.00433931473643
C   -2.44565658606518      1.42964113326212     -0.00597039546461
C   -1.22360068130162      0.71532450163492      0.00545886906656
C   0.00763786931376      1.41738314923765      0.00392452278437
C   1.23121980774686      0.70211669058719     -0.01490206287210
C   2.46082110053113      1.40329203612573      0.00460244601878
C   3.68443025419614      0.68719842821222      0.00377365974158
C   4.91870890153864      1.39173456118907     -0.00862816189375
C   7.36980207796101      2.77948220318441     -0.00242013321349
C   7.38016266612146      1.39121750785509     -0.00087345036788
C   6.13979953912259      0.67411862320065      0.00545489144369
H   -8.27919079934664      3.40711804112415     -0.00763522772059
H   8.31511347147953      3.31811809662368     -0.00663070901292
C   -8.59175593758115      0.72483255304480     -0.00123170985383
C   -8.59902460370342     -0.63263980622873      0.00089141472904
C   -6.13981313911873     -0.67413663715361     -0.00609792660607
C   -7.38018411213749     -1.39126618958160      0.00131813493501
C   -4.91868448025621     -1.39175501803000      0.00624257154343
C   -3.68443829568458     -0.68723731573599     -0.00478966852105
C   -2.46081704024768     -1.40334517882457      0.00575341766833
C   -1.23116201232071     -0.70217386488055     -0.00636696112346
C   -0.00756962538737     -1.41741884941102      0.00108956317991
C   1.22364771588843     -0.71527537726392      0.01109518512883
C   2.44567064933149     -1.42964328900682     -0.00065482763106
C   3.67686670284649     -0.72670743155550     -0.00479541202602
C   6.13224884641929     -0.73997883984993     -0.00632338623858
C   4.90351914550401     -1.44445752054090      0.00751768830159
C   8.59901484869081      0.63260386666793     -0.00101133422380
C   8.59174548810050     -0.72485086719319      0.00072504603735
C   7.36486276438985     -1.47033266560598      0.00049486934466
H   -9.52830597181814      1.27684744919284     -0.00270163681798
H   9.54141097460619      1.17457248844457     -0.00206336648518
C   -7.36983790976868     -2.77954514593389      0.00312634335708
C   -4.92459910905015     -2.80843725734101     -0.00460528907921
C   -6.16662249566744     -3.51665219282533      0.00169655107992
C   -3.70251035970491     -3.52468154912026      0.00571878010666
C   -2.46764698511392     -2.82132596280400     -0.00632585824990
C   -0.01513347410770     -2.83314164539971     -0.00604426974092
C   -1.24712184122656     -3.53473217556300      0.00551968366725
C   1.20924506964357     -3.54791467864352      0.00805871345849
C   2.43733602215464     -2.84764173817541     -0.00608104485234
C   4.89430234377080     -2.86112296828604     -0.00526030478103
C   3.66461525504104     -3.56421984553201      0.00761911515957
C   6.12863901474565     -3.58258405771778      0.00096495711699
C   7.33967266469532     -2.85841330737039      0.00248018319869
H   -9.54144911125902     -1.17456346666430      0.00226083090216
H   9.52826186807155     -1.27691907390448      0.00197485379837
H   -8.31516504384864     -3.31814985321231      0.00729857188773
H   8.27915514249207     -3.40714078989363      0.00681973918158
C   -6.14499418870218     -4.92764727278338      0.00302254913999
C   -3.70678334799751     -4.94126171411716     -0.00679841894792
C   -4.95559005800169     -5.64349397349412      0.00116871569699
C   -2.48612132622665     -5.65478557440947      0.00614125209662
C   -1.25405833548005     -4.95612205000132     -0.00503435388927
C   1.20101257386816     -4.96928038819302     -0.00385322963129
C   -0.03033667441341     -5.66952030313900      0.00398997003238
C   3.65375010132847     -4.98074377541453     -0.00309522988330
C   2.42549269587528     -5.68117463552727      0.00628170066869
C   6.09196561781097     -4.99325796338655      0.00325918379042
C   4.89497644461045     -5.69634842095790      0.00202298796027
H   -7.08989238804069     -5.46699984223871      0.00742531082125
H   7.03105520920009     -5.54265853633254      0.00683896355417
C   -4.92354532219813     -7.07882109967734      0.00061394679214
C   -2.48534208823777     -7.08772807792913     -0.00189594564379
C   -3.75168589177895     -7.76394715763627     -0.00170126671874
C   -0.03794895698805     -7.09946487446944     -0.00168022049625
C   -1.27795610040136     -7.77290438466689     -0.00366491325785
C   2.40944432072629     -7.11402201200282     -0.00081701968533
C   1.19474993715296     -7.78618536556242     -0.00296931056689
C   4.84762105249800     -7.13126211057943      0.00168979497423
C   3.66847160587561     -7.80378799294376     -0.00065863938960
H   -5.86994035041618     -7.61383059804164      0.00215798365757
H   5.78824962538815     -7.67633218931421      0.00281691445618
H   -3.75352693944918     -8.85107156923607     -0.00353718114765
H   -1.28430440589466     -8.86087539249706     -0.00809229711623
H   1.18922157469537     -8.87416062058945     -0.00706194725726
H   3.65854661482387     -8.89086063405326     -0.00231318081200

    units angstrom      # Angstroms are the default
    no_reorient         # Geometry fixed, default
    symmetry c1         # C1 symmetry, default
}

set {
    scf_type DF         # Density fitting, faster than exact integrals
    freeze_core True    # Freeze core electrons
    basis jun-cc-pVDZ   # Jun-cc-pVDZ basis set, recommended for sSAPT0 in https://doi.org/10.1063/1.4867135
}

energy('ssapt0')        # Compute sSAPT0 energy, includes also SAPT0
--------------------------------------------------------------------------

  //              Dimer HF             //
    Molecular point group: c1
  Charge       = -1
  Multiplicity = 1
  Basis Set: JUN-CC-PVDZ
    Blend: JUN-CC-PVDZ
  Basis Set: (JUN-CC-PVDZ AUX)
    Blend: JUN-CC-PVDZ-JKFIT
  @DF-RHF Final Energy: -4073.08275179676002
    Total Energy =                      -4073.0827517967591120
 Dipole X            :          0.0035114           -0.0000548            0.0034566
 Dipole Y            :          0.0025742           -0.0002464            0.0023278
 Dipole Z            :         13.9546152          -17.2587174           -3.3041022
 Magnitude           :                                                    3.3041049
  //            Monomer A HF           //
    Molecular point group: c1
  Multiplicity = 1
  Basis Set: JUN-CC-PVDZ
    Blend: JUN-CC-PVDZ
  Basis Set: (JUN-CC-PVDZ AUX)
    Blend: JUN-CC-PVDZ-JKFIT
  @DF-RHF Final Energy:  -422.77553892161689
    Total Energy =                       -422.7755389216168851
  //            Monomer B HF           //
    Molecular point group: c1

    Geometry (in Angstrom), charge = 0, multiplicity = 1:

       Center              X                  Y                   Z               Mass
    ------------   -----------------  -----------------  -----------------  -----------------
      Gh(B)          -0.000201921932     0.000288800891     2.700291856680    11.009305360000
      Gh(F)          -0.000004162732     0.000014527991     4.113076856680    18.998403162730
      Gh(F)           1.147855837268     0.675795727991     2.229150856680    18.998403162730
      Gh(F)           0.011913897268    -1.331996472009     2.229352856680    18.998403162730
      Gh(F)          -1.159670162732     0.656088027991     2.229431856680    18.998403162730
         C           -3.668445426752     7.803766698073    -0.197842101985    12.000000000000
         C           -4.847602882078     7.131256359331    -0.200208676917    12.000000000000
         C           -4.894963461907     5.696344931522    -0.200781588015    12.000000000000
         C           -3.653744841505     4.980744868950    -0.193121146286    12.000000000000
         C           -2.409429284226     7.113995564665    -0.197647759725    12.000000000000
         C           -2.425481506836     5.681136478894    -0.204652648595    12.000000000000
         C           -1.194748179167     7.786158722300    -0.196175579183    12.000000000000
         C            0.037954866205     7.099436173748    -0.198346283488    12.000000000000
         C            0.030328424687     5.669504087695    -0.203829668403    12.000000000000
         C           -1.200988670637     4.969284875906    -0.194859934470    12.000000000000
         C            1.277953663083     7.772873971185    -0.196970434927    12.000000000000
         C            2.485353921992     7.087711413228    -0.199244922832    12.000000000000
         C            2.486124522185     5.654785338231    -0.206182671819    12.000000000000
         C            1.254078756912     4.956092641655    -0.194554730231    12.000000000000
         C            3.751710428674     7.763926678971    -0.199118071451    12.000000000000
         C            4.923561893453     7.078795304981    -0.201174552159    12.000000000000
         C            4.955603108594     5.643461991360    -0.201334964966    12.000000000000
         C            3.706797371473     4.941224736324    -0.196243404797    12.000000000000
         H           -3.658525300490     8.890841947126    -0.196157113735     1.007825032230
         H           -1.189217492488     8.874135615351    -0.192203702741     1.007825032230
         H            1.284290076155     8.860847963479    -0.192811610786     1.007825032230
         H            3.753537924068     8.851049806963    -0.197595547136     1.007825032230
         H            5.869954540475     7.613809362646    -0.202099919202     1.007825032230
         H           -5.788235870234     7.676316740925    -0.201768524273     1.007825032230
         C           -6.091978121428     4.993274541634    -0.202653828506    12.000000000000
         C           -6.128665643049     3.582594696789    -0.201452651478    12.000000000000
         C           -3.664583902777     3.564196707735    -0.204377746095    12.000000000000
         C           -4.894302367430     2.861095303891    -0.195208761110    12.000000000000
         C           -2.437339157630     2.847626185075    -0.192545967559    12.000000000000
         C           -1.209232020328     3.547901462969    -0.206224994350    12.000000000000
         C            1.247137409430     3.534695279420    -0.207033600756    12.000000000000
         C            0.015171876837     2.833126367296    -0.195349417531    12.000000000000
         C            2.467641009709     2.821304505246    -0.195249359408    12.000000000000
         C            3.702545311848     3.524674682415    -0.208737320250    12.000000000000
         C            6.144976223652     4.927586894122    -0.202568410178    12.000000000000
         C            6.166584196130     3.516599003933    -0.200401856741    12.000000000000
         C            4.924605795728     2.808422453345    -0.193863110504    12.000000000000
         H            7.089901346909     5.466902294214    -0.206330291028     1.007825032230
         H           -7.031045913833     5.542702480848    -0.206887043458     1.007825032230
         C           -7.339702203855     2.858426062570    -0.203079818919    12.000000000000
         C           -7.364886120791     1.470337899574    -0.201314280792    12.000000000000
         C           -4.903508771679     1.444441340151    -0.206030544984    12.000000000000
         C           -6.132261315343     0.739953885044    -0.193740501001    12.000000000000
         C           -3.676878963248     0.726711670664    -0.195402828584    12.000000000000
         C           -2.445660748797     1.429655661253    -0.205712538785    12.000000000000
         C           -1.223604844033     0.715339029625    -0.194283274254    12.000000000000
         C            0.007633706582     1.417397677228    -0.195817620536    12.000000000000
         C            1.231215645015     0.702131218578    -0.214644206192    12.000000000000
         C            2.460816937799     1.403306564116    -0.195139697302    12.000000000000
         C            3.684426091464     0.687212956203    -0.195968483579    12.000000000000
         C            4.918704738807     1.391749089180    -0.208370305214    12.000000000000
         C            7.369797915229     2.779496731175    -0.202162276534    12.000000000000
         C            7.380158503390     1.391232035846    -0.200615593688    12.000000000000
         C            6.139795376391     0.674133151191    -0.194287251877    12.000000000000
         H           -8.279194962078     3.407132569115    -0.207377371041     1.007825032230
         H            8.315109308748     3.318132624614    -0.206372852333     1.007825032230
         C           -8.591760100313     0.724847081035    -0.200973853174    12.000000000000
         C           -8.599028766435    -0.632625278238    -0.198850728591    12.000000000000
         C           -6.139817301850    -0.674122109163    -0.205840069926    12.000000000000
         C           -7.380188274869    -1.391251661591    -0.198424008385    12.000000000000
         C           -4.918688642988    -1.391740490039    -0.193499571777    12.000000000000
         C           -3.684442458416    -0.687222787745    -0.204531811841    12.000000000000
         C           -2.460821202979    -1.403330650834    -0.193988725652    12.000000000000
         C           -1.231166175052    -0.702159336890    -0.206109104444    12.000000000000
         C           -0.007573788119    -1.417404321420    -0.198652580140    12.000000000000
         C            1.223643553157    -0.715260849273    -0.188646958191    12.000000000000
         C            2.445666486600    -1.429628761016    -0.200396970951    12.000000000000
         C            3.676862540115    -0.726692903565    -0.204537555346    12.000000000000
         C            6.132244683688    -0.739964311859    -0.206065529559    12.000000000000
         C            4.903514982772    -1.444442992550    -0.192224455019    12.000000000000
         C            8.599010685959     0.632618394658    -0.200753477544    12.000000000000
         C            8.591741325369    -0.724836339203    -0.199017097283    12.000000000000
         C            7.364858601658    -1.470318137615    -0.199247273976    12.000000000000
         H           -9.528310134550     1.276861977183    -0.202443780138     1.007825032230
         H            9.541406811874     1.174587016435    -0.201805509805     1.007825032230
         C           -7.369842072500    -2.779530617943    -0.196615799963    12.000000000000
         C           -4.924603271782    -2.808422729350    -0.204347432399    12.000000000000
         C           -6.166626658399    -3.516637664835    -0.198045592240    12.000000000000
         C           -3.702514522437    -3.524667021130    -0.194023363214    12.000000000000
         C           -2.467651147846    -2.821311434813    -0.206068001570    12.000000000000
         C           -0.015137636839    -2.833127117409    -0.205786413061    12.000000000000
         C           -1.247126003958    -3.534717647572    -0.194222459653    12.000000000000
         C            1.209240906912    -3.547900150653    -0.191683429862    12.000000000000
         C            2.437331859423    -2.847627210185    -0.205823188173    12.000000000000
         C            4.894298181039    -2.861108440295    -0.205002448101    12.000000000000
         C            3.664611092309    -3.564205317541    -0.192123028161    12.000000000000
         C            6.128634852014    -3.582569529727    -0.198777186203    12.000000000000
         C            7.339668501964    -2.858398779380    -0.197261960122    12.000000000000
         H           -9.541453273991    -1.174548938674    -0.197481312418     1.007825032230
         H            9.528257705340    -1.276904545914    -0.197767289522     1.007825032230
         H           -8.315169206580    -3.318135325222    -0.192443571433     1.007825032230
         H            8.279150979760    -3.407126261903    -0.192922404139     1.007825032230
         C           -6.144998351434    -4.927632744793    -0.196719594180    12.000000000000
         C           -3.706787510729    -4.941247186127    -0.206540562268    12.000000000000
         C           -4.955594220733    -5.643479445504    -0.198573427623    12.000000000000
         C           -2.486125488958    -5.654771046419    -0.193600891224    12.000000000000
         C           -1.254062498212    -4.956107522011    -0.204776497210    12.000000000000
         C            1.201008411136    -4.969265860202    -0.203595372952    12.000000000000
         C           -0.030340837145    -5.669505775148    -0.195752173288    12.000000000000
         C            3.653745938597    -4.980729247424    -0.202837373204    12.000000000000
         C            2.425488533144    -5.681160107537    -0.193460442652    12.000000000000
         C            6.091961455079    -4.993243435396    -0.196482959530    12.000000000000
         C            4.894972281879    -5.696333892967    -0.197719155360    12.000000000000
         H           -7.089896550772    -5.466985314248    -0.192316832499     1.007825032230
         H            7.031051046468    -5.542644008342    -0.192903179766     1.007825032230
         C           -4.923549484930    -7.078806571687    -0.199128196528    12.000000000000
         C           -2.485346250970    -7.087713549939    -0.201638088964    12.000000000000
         C           -3.751690054511    -7.763932629646    -0.201443410039    12.000000000000
         C           -0.037953119720    -7.099450346479    -0.201422363817    12.000000000000
         C           -1.277960263133    -7.772889856676    -0.203407056578    12.000000000000
         C            2.409440157995    -7.114007484012    -0.200559163006    12.000000000000
         C            1.194745774421    -7.786170837572    -0.202711453887    12.000000000000
         C            4.847616889766    -7.131247582589    -0.198052348346    12.000000000000
         C            3.668467443144    -7.803773464953    -0.200400782710    12.000000000000
         H           -5.869944513148    -7.613816070051    -0.197584159663     1.007825032230
         H            5.788245462656    -7.676317661324    -0.196925228864     1.007825032230
         H           -3.753531102181    -8.851057041246    -0.203279324468     1.007825032230
         H           -1.284308568626    -8.860860864507    -0.207834440437     1.007825032230
         H            1.189217411964    -8.874146092599    -0.206804090578     1.007825032230
         H            3.658542452092    -8.890846106063    -0.202055324132     1.007825032230

  Charge       = 0
  Multiplicity = 1
  Basis Set: JUN-CC-PVDZ
    Blend: JUN-CC-PVDZ
  Basis Set: (JUN-CC-PVDZ AUX)
    Blend: JUN-CC-PVDZ-JKFIT

    Orbital Energies [Eh]
    ---------------------

    Doubly Occupied:

       1A    -11.264104     2A    -11.263745     3A    -11.263738
       4A    -11.263317     5A    -11.263315     6A    -11.263274
       7A    -11.263131     8A    -11.263128     9A    -11.263119
      10A    -11.262881    11A    -11.262761    12A    -11.262757
      13A    -11.262266    14A    -11.262260    15A    -11.262240
      16A    -11.262230    17A    -11.262117    18A    -11.262115
      19A    -11.262071    20A    -11.262030    21A    -11.262027
      22A    -11.261922    23A    -11.261915    24A    -11.261764
      25A    -11.261758    26A    -11.261737    27A    -11.261730
      28A    -11.261689    29A    -11.261680    30A    -11.261580
      31A    -11.261565    32A    -11.261559    33A    -11.261558
      34A    -11.261532    35A    -11.261530    36A    -11.261511
      37A    -11.261341    38A    -11.261333    39A    -11.261327
      40A    -11.261321    41A    -11.261316    42A    -11.261313
      43A    -11.261293    44A    -11.261276    45A    -11.261272
      46A    -11.261247    47A    -11.261244    48A    -11.261238
      49A    -11.261055    50A    -11.261026    51A    -11.261021
      52A    -11.260949    53A    -11.260946    54A    -11.260892
      55A    -11.259918    56A    -11.259904    57A    -11.259902
      58A    -11.259872    59A    -11.259871    60A    -11.259854
      61A    -11.259287    62A    -11.259261    63A    -11.259260
      64A    -11.259205    65A    -11.259203    66A    -11.259174
      67A    -11.258920    68A    -11.258902    69A    -11.258900
      70A    -11.258871    71A    -11.258869    72A    -11.258857
      73A    -11.254538    74A    -11.254537    75A    -11.254533
      76A    -11.254532    77A    -11.254532    78A    -11.254530
      79A    -11.253661    80A    -11.253659    81A    -11.253658
      82A    -11.253656    83A    -11.253655    84A    -11.253653
      85A    -11.253577    86A    -11.253575    87A    -11.253574
      88A    -11.253572    89A    -11.253571    90A    -11.253569
      91A    -11.253066    92A    -11.253065    93A    -11.253061
      94A    -11.253060    95A    -11.253060    96A    -11.253058
      97A     -1.253913    98A     -1.238990    99A     -1.238988
     100A     -1.220465   101A     -1.220460   102A     -1.215404
     103A     -1.201048   104A     -1.195610   105A     -1.188120
     106A     -1.188119   107A     -1.173772   108A     -1.173769
     109A     -1.155621   110A     -1.155618   111A     -1.152682
     112A     -1.144731   113A     -1.144728   114A     -1.128567
     115A     -1.114704   116A     -1.113169   117A     -1.112457
     118A     -1.112442   119A     -1.111629   120A     -1.088423
     121A     -1.088408   122A     -1.076969   123A     -1.076967
     124A     -1.067608   125A     -1.067579   126A     -1.064950
     127A     -1.046800   128A     -1.046793   129A     -1.040481
     130A     -1.038743   131A     -1.038742   132A     -1.025225
     133A     -1.021353   134A     -1.021302   135A     -1.007182
     136A     -1.006812   137A     -1.003796   138A     -1.000477
     139A     -1.000429   140A     -0.991084   141A     -0.970979
     142A     -0.970931   143A     -0.955885   144A     -0.955830
     145A     -0.905572   146A     -0.905559   147A     -0.905529
     148A     -0.905519   149A     -0.904304   150A     -0.892351
     151A     -0.892291   152A     -0.890348   153A     -0.890290
     154A     -0.889453   155A     -0.872221   156A     -0.869067
     157A     -0.851542   158A     -0.847856   159A     -0.847834
     160A     -0.845584   161A     -0.843014   162A     -0.834562
     163A     -0.834548   164A     -0.828120   165A     -0.828117
     166A     -0.784547   167A     -0.784536   168A     -0.783647
     169A     -0.783619   170A     -0.782283   171A     -0.782262
     172A     -0.782022   173A     -0.766994   174A     -0.760776
     175A     -0.750556   176A     -0.733489   177A     -0.727069
     178A     -0.727057   179A     -0.725079   180A     -0.724544
     181A     -0.724526   182A     -0.718466   183A     -0.713756
     184A     -0.713749   185A     -0.699575   186A     -0.699563
     187A     -0.686096   188A     -0.685961   189A     -0.685958
     190A     -0.682178   191A     -0.682167   192A     -0.678755
     193A     -0.653617   194A     -0.650865   195A     -0.650835
     196A     -0.649792   197A     -0.649776   198A     -0.649570
     199A     -0.640904   200A     -0.640878   201A     -0.640093
     202A     -0.639168   203A     -0.636007   204A     -0.635981
     205A     -0.629142   206A     -0.617699   207A     -0.615309
     208A     -0.615289   209A     -0.608801   210A     -0.608795
     211A     -0.599107   212A     -0.599072   213A     -0.598734
     214A     -0.598600   215A     -0.598577   216A     -0.598006
     217A     -0.595071   218A     -0.595059   219A     -0.594717
     220A     -0.594210   221A     -0.591944   222A     -0.591941
     223A     -0.587370   224A     -0.577802   225A     -0.577793
     226A     -0.575652   227A     -0.575649   228A     -0.573384
     229A     -0.569585   230A     -0.568114   231A     -0.568091
     232A     -0.566745   233A     -0.566734   234A     -0.560919
     235A     -0.558704   236A     -0.558686   237A     -0.558432
     238A     -0.554363   239A     -0.550546   240A     -0.547481
     241A     -0.544255   242A     -0.535022   243A     -0.534986
     244A     -0.533527   245A     -0.533505   246A     -0.528076
     247A     -0.528061   248A     -0.527770   249A     -0.517137
     250A     -0.517103   251A     -0.515347   252A     -0.515341
     253A     -0.509643   254A     -0.509627   255A     -0.498027
     256A     -0.496442   257A     -0.496416   258A     -0.493769
     259A     -0.493758   260A     -0.489430   261A     -0.481452
     262A     -0.477414   263A     -0.477410   264A     -0.473993
     265A     -0.469433   266A     -0.466517   267A     -0.466512
     268A     -0.458778   269A     -0.446657   270A     -0.446597
     271A     -0.441021   272A     -0.440760   273A     -0.440737
     274A     -0.434684   275A     -0.433907   276A     -0.407363
     277A     -0.407340   278A     -0.386372   279A     -0.386324
     280A     -0.385732   281A     -0.385731   282A     -0.383725
     283A     -0.354314   284A     -0.354298   285A     -0.350640
     286A     -0.338048   287A     -0.335551   288A     -0.335478
     289A     -0.332713   290A     -0.332706   291A     -0.307023
     292A     -0.301897   293A     -0.301835   294A     -0.300840
     295A     -0.286156   296A     -0.256486   297A     -0.253450
     298A     -0.253396   299A     -0.204247   300A     -0.204159

  @DF-RHF Final Energy: -3650.34025413404925

   => Energetics <=

    Nuclear Repulsion Energy =          15611.4211649754324753
    One-Electron Energy =              -36072.1501293665278354
    Two-Electron Energy =               16810.3887102570479328
    Total Energy =                      -3650.3402541340474272
 Dipole X            :          0.0001430            0.0002304            0.0003734
 Dipole Y            :          0.0014325           -0.0013052            0.0001273
 Dipole Z            :        226.4733622         -226.4713760            0.0019861
 Magnitude           :                                                    0.0020249

    SAPT Results
  --------------------------------------------------------------------------------------------------------
    Electrostatics                -26.77498269 [mEh]     -16.80155530 [kcal/mol]     -70.29770736 [kJ/mol]
      Elst10,r                    -26.77498269 [mEh]     -16.80155530 [kcal/mol]     -70.29770736 [kJ/mol]

    Exchange                       93.49123927 [mEh]      58.66663836 [kcal/mol]     245.46121488 [kJ/mol]
      Exch10                       93.49123927 [mEh]      58.66663836 [kcal/mol]     245.46121488 [kJ/mol]
      Exch10(S^2)                  92.46697259 [mEh]      58.02390131 [kcal/mol]     242.77200309 [kJ/mol]

    Induction                     -33.67499767 [mEh]     -21.13138007 [kcal/mol]     -88.41369421 [kJ/mol]
      Ind20,r                     -67.36983814 [mEh]     -42.27521168 [kcal/mol]    -176.87948568 [kJ/mol]
      Exch-Ind20,r                 40.66420932 [mEh]      25.51717659 [kcal/mol]     106.76386687 [kJ/mol]
      delta HF,r (2)               -6.96936886 [mEh]      -4.37334498 [kcal/mol]     -18.29807541 [kJ/mol]

    Dispersion                    -27.86628904 [mEh]     -17.48636037 [kcal/mol]     -73.16293179 [kJ/mol]
      Disp20                      -36.89209731 [mEh]     -23.15014057 [kcal/mol]     -96.86018813 [kJ/mol]
      Exch-Disp20                   9.02580827 [mEh]       5.66378020 [kcal/mol]      23.69725634 [kJ/mol]
      Disp20 (SS)                 -18.44604865 [mEh]     -11.57507028 [kcal/mol]     -48.43009407 [kJ/mol]
      Disp20 (OS)                 -18.44604865 [mEh]     -11.57507028 [kcal/mol]     -48.43009407 [kJ/mol]
      Exch-Disp20 (SS)              4.93659987 [mEh]       3.09776319 [kcal/mol]      12.96104117 [kJ/mol]
      Exch-Disp20 (OS)              4.08920840 [mEh]       2.56601701 [kcal/mol]      10.73621517 [kJ/mol]

  Total HF                         33.04125891 [mEh]      20.73370299 [kcal/mol]      86.74981331 [kJ/mol]
  Total SAPT0                       5.17496987 [mEh]       3.24734262 [kcal/mol]      13.58688151 [kJ/mol]

  Special recipe for scaled SAPT0 (see Manual):
    Electrostatics sSAPT0         -26.77498269 [mEh]     -16.80155530 [kcal/mol]     -70.29770736 [kJ/mol]
    Exchange sSAPT0                93.49123927 [mEh]      58.66663836 [kcal/mol]     245.46121488 [kJ/mol]
    Induction sSAPT0              -32.30864806 [mEh]     -20.27398274 [kcal/mol]     -84.82634380 [kJ/mol]
    Dispersion sSAPT0             -27.56301474 [mEh]     -17.29605287 [kcal/mol]     -72.36668523 [kJ/mol]
  Total sSAPT0                      6.84459378 [mEh]       4.29504744 [kcal/mol]      17.97047849 [kJ/mol]
  --------------------------------------------------------------------------------------------------------

*** Psi4 exiting successfully. Buy a developer a beer!
