                               Psi4 1.9 release

  ==> Input File <==

--------------------------------------------------------------------------
memory 47 GB # how much memory is available ! Depends on the nodes/cores !

molecule dimer {
# monomer A
-1 1    # Charge and multiplicity
B -0.000046  0.000337 3.399994
F -1.153597  0.000048 4.215641
F  1.153661 -0.000581 4.215641
F -0.000019 -1.153637 2.584360
F -0.000019  1.153978 2.584360
--
# monomer B
0 1     # Charge and multiplicity
C   -3.66844126402057      7.80375217008252      0.00190004133558
C   -4.84759871934653      7.13124183134024     -0.00046653359696
C   -4.89495929917518      5.69633040353158     -0.00103944469517
C   -3.65374067877320      4.98073034095895      0.00662099703436
C   -2.40942512149445      7.11398103667468      0.00209438359570
C   -2.42547734410473      5.68112195090346     -0.00491050527438
C   -1.19474401643570      7.78614419430947      0.00356656413763
C   0.03795902893699      7.09942164575698      0.00139585983271
C   0.03033258741920      5.66948955970466     -0.00408752508301
C   -1.20098450790502      4.96927034791531      0.00488220885047
C   1.27795782581485      7.77285944319479      0.00277170839332
C   2.48535808472416      7.08769688523756      0.00049722048857
C   2.48612868491717      5.65477081024076     -0.00644052849921
C   1.25408291964399      4.95607811366431      0.00518741308898
C   3.75171459140595      7.76391215098033      0.00062407186893
C   4.92356605618520      7.07878077698995     -0.00143240883900
C   4.95560727132542      5.64344746336949     -0.00159282164606
C   3.70680153420475      4.94121020833308      0.00349873852374
H   -3.65852113775815      8.89082741913536      0.00358502958574
H   -1.18921332975660      8.87412108735996      0.00753844057883
H   1.28429423888630      8.86083343548850      0.00693053253426
H   3.75354208679975      8.85103527897216      0.00214659618464
H   5.86995870320703      7.61379483465560     -0.00235777588134
H   -5.78823170750226      7.67630221293400     -0.00202638095293
C   -6.09197395869619      4.99326001364347     -0.00291168518608
C   -6.12866148031747      3.58258016879823     -0.00171050815740
C   -3.66457974004527      3.56418217974434     -0.00463560277484
C   -4.89429820469869      2.86108077590057      0.00453338221034
C   -2.43733499489796      2.84761165708481      0.00719617576166
C   -1.20922785759670      3.54788693497833     -0.00648285103018
C   1.24714157216223      3.53468075142962     -0.00729145743546
C   0.01517603956900      2.83311183930540      0.00439272578912
C   2.46764517244071      2.82128997725533      0.00449278391269
C   3.70254947457969      3.52466015442405     -0.00899517692985
C   6.14498038638375      4.92757236613191     -0.00282626685777
C   6.16658835886151      3.51658447594213     -0.00065971342101
C   4.92460995845939      2.80840792535402      0.00587903281610
H   7.08990550964105      5.46688776622306     -0.00658814770723
H   -7.03104175110130      5.54268795285765     -0.00714490013730
C   -7.33969804112295      2.85841153457957     -0.00333767559888
C   -7.36488195805880      1.47032337158330     -0.00157213747140
C   -4.90350460894690      1.44442681216000     -0.00628840166334
C   -6.13225715261081      0.73993935705394      0.00600164231964
C   -3.67687480051673      0.72669714267312      0.00433931473643
C   -2.44565658606518      1.42964113326212     -0.00597039546461
C   -1.22360068130162      0.71532450163492      0.00545886906656
C   0.00763786931376      1.41738314923765      0.00392452278437
C   1.23121980774686      0.70211669058719     -0.01490206287210
C   2.46082110053113      1.40329203612573      0.00460244601878
C   3.68443025419614      0.68719842821222      0.00377365974158
C   4.91870890153864      1.39173456118907     -0.00862816189375
C   7.36980207796101      2.77948220318441     -0.00242013321349
C   7.38016266612146      1.39121750785509     -0.00087345036788
C   6.13979953912259      0.67411862320065      0.00545489144369
H   -8.27919079934664      3.40711804112415     -0.00763522772059
H   8.31511347147953      3.31811809662368     -0.00663070901292
C   -8.59175593758115      0.72483255304480     -0.00123170985383
C   -8.59902460370342     -0.63263980622873      0.00089141472904
C   -6.13981313911873     -0.67413663715361     -0.00609792660607
C   -7.38018411213749     -1.39126618958160      0.00131813493501
C   -4.91868448025621     -1.39175501803000      0.00624257154343
C   -3.68443829568458     -0.68723731573599     -0.00478966852105
C   -2.46081704024768     -1.40334517882457      0.00575341766833
C   -1.23116201232071     -0.70217386488055     -0.00636696112346
C   -0.00756962538737     -1.41741884941102      0.00108956317991
C   1.22364771588843     -0.71527537726392      0.01109518512883
C   2.44567064933149     -1.42964328900682     -0.00065482763106
C   3.67686670284649     -0.72670743155550     -0.00479541202602
C   6.13224884641929     -0.73997883984993     -0.00632338623858
C   4.90351914550401     -1.44445752054090      0.00751768830159
C   8.59901484869081      0.63260386666793     -0.00101133422380
C   8.59174548810050     -0.72485086719319      0.00072504603735
C   7.36486276438985     -1.47033266560598      0.00049486934466
H   -9.52830597181814      1.27684744919284     -0.00270163681798
H   9.54141097460619      1.17457248844457     -0.00206336648518
C   -7.36983790976868     -2.77954514593389      0.00312634335708
C   -4.92459910905015     -2.80843725734101     -0.00460528907921
C   -6.16662249566744     -3.51665219282533      0.00169655107992
C   -3.70251035970491     -3.52468154912026      0.00571878010666
C   -2.46764698511392     -2.82132596280400     -0.00632585824990
C   -0.01513347410770     -2.83314164539971     -0.00604426974092
C   -1.24712184122656     -3.53473217556300      0.00551968366725
C   1.20924506964357     -3.54791467864352      0.00805871345849
C   2.43733602215464     -2.84764173817541     -0.00608104485234
C   4.89430234377080     -2.86112296828604     -0.00526030478103
C   3.66461525504104     -3.56421984553201      0.00761911515957
C   6.12863901474565     -3.58258405771778      0.00096495711699
C   7.33967266469532     -2.85841330737039      0.00248018319869
H   -9.54144911125902     -1.17456346666430      0.00226083090216
H   9.52826186807155     -1.27691907390448      0.00197485379837
H   -8.31516504384864     -3.31814985321231      0.00729857188773
H   8.27915514249207     -3.40714078989363      0.00681973918158
C   -6.14499418870218     -4.92764727278338      0.00302254913999
C   -3.70678334799751     -4.94126171411716     -0.00679841894792
C   -4.95559005800169     -5.64349397349412      0.00116871569699
C   -2.48612132622665     -5.65478557440947      0.00614125209662
C   -1.25405833548005     -4.95612205000132     -0.00503435388927
C   1.20101257386816     -4.96928038819302     -0.00385322963129
C   -0.03033667441341     -5.66952030313900      0.00398997003238
C   3.65375010132847     -4.98074377541453     -0.00309522988330
C   2.42549269587528     -5.68117463552727      0.00628170066869
C   6.09196561781097     -4.99325796338655      0.00325918379042
C   4.89497644461045     -5.69634842095790      0.00202298796027
H   -7.08989238804069     -5.46699984223871      0.00742531082125
H   7.03105520920009     -5.54265853633254      0.00683896355417
C   -4.92354532219813     -7.07882109967734      0.00061394679214
C   -2.48534208823777     -7.08772807792913     -0.00189594564379
C   -3.75168589177895     -7.76394715763627     -0.00170126671874
C   -0.03794895698805     -7.09946487446944     -0.00168022049625
C   -1.27795610040136     -7.77290438466689     -0.00366491325785
C   2.40944432072629     -7.11402201200282     -0.00081701968533
C   1.19474993715296     -7.78618536556242     -0.00296931056689
C   4.84762105249800     -7.13126211057943      0.00168979497423
C   3.66847160587561     -7.80378799294376     -0.00065863938960
H   -5.86994035041618     -7.61383059804164      0.00215798365757
H   5.78824962538815     -7.67633218931421      0.00281691445618
H   -3.75352693944918     -8.85107156923607     -0.00353718114765
H   -1.28430440589466     -8.86087539249706     -0.00809229711623
H   1.18922157469537     -8.87416062058945     -0.00706194725726
H   3.65854661482387     -8.89086063405326     -0.00231318081200

    units angstrom      # Angstroms are the default
    no_reorient         # Geometry fixed, default
    symmetry c1         # C1 symmetry, default
}

set {
    scf_type DF         # Density fitting, faster than exact integrals
    freeze_core True    # Freeze core electrons
    basis jun-cc-pVDZ   # Jun-cc-pVDZ basis set, recommended for sSAPT0 in https://doi.org/10.1063/1.4867135
}

energy('ssapt0')        # Compute sSAPT0 energy, includes also SAPT0
--------------------------------------------------------------------------

  //              Dimer HF             //
    Molecular point group: c1
  Charge       = -1
  Multiplicity = 1
  Basis Set: JUN-CC-PVDZ
    Blend: JUN-CC-PVDZ
  Basis Set: (JUN-CC-PVDZ AUX)
    Blend: JUN-CC-PVDZ-JKFIT
  @DF-RHF Final Energy: -4073.10493635964121
    Total Energy =                      -4073.1049363596430339
 Dipole X            :          0.0016191           -0.0001188            0.0015003
 Dipole Y            :          0.0014728           -0.0002727            0.0012001
 Dipole Z            :         15.8927389          -20.2342693           -4.3415305
 Magnitude           :                                                    4.3415309
  //            Monomer A HF           //
    Molecular point group: c1
  Multiplicity = 1
  Basis Set: JUN-CC-PVDZ
    Blend: JUN-CC-PVDZ
  Basis Set: (JUN-CC-PVDZ AUX)
    Blend: JUN-CC-PVDZ-JKFIT
  @DF-RHF Final Energy:  -422.77427840228899
    Total Energy =                       -422.7742784022889850
  //            Monomer B HF           //
    Molecular point group: c1

    Geometry (in Angstrom), charge = 0, multiplicity = 1:

       Center              X                  Y                   Z               Mass
    ------------   -----------------  -----------------  -----------------  -----------------
      Gh(B)          -0.000050191042     0.000351518223     3.165814129302    11.009305360000
      Gh(F)          -1.153601191042     0.000062518223     3.981461129302    18.998403162730
      Gh(F)           1.153656808958    -0.000566481777     3.981461129302    18.998403162730
      Gh(F)          -0.000023191042    -1.153622481777     2.350180129302    18.998403162730
      Gh(F)          -0.000023191042     1.153992518223     2.350180129302    18.998403162730
         C           -3.668445455062     7.803766688305    -0.232279829363    12.000000000000
         C           -4.847602910388     7.131256349563    -0.234646404295    12.000000000000
         C           -4.894963490217     5.696344921754    -0.235219315393    12.000000000000
         C           -3.653744869815     4.980744859182    -0.227558873664    12.000000000000
         C           -2.409429312536     7.113995554897    -0.232085487102    12.000000000000
         C           -2.425481535146     5.681136469126    -0.239090375973    12.000000000000
         C           -1.194748207477     7.786158712532    -0.230613306560    12.000000000000
         C            0.037954837895     7.099436163980    -0.232784010865    12.000000000000
         C            0.030328396378     5.669504077927    -0.238267395781    12.000000000000
         C           -1.200988698947     4.969284866138    -0.229297661848    12.000000000000
         C            1.277953634773     7.772873961417    -0.231408162305    12.000000000000
         C            2.485353893683     7.087711403460    -0.233682650210    12.000000000000
         C            2.486124493876     5.654785328463    -0.240620399197    12.000000000000
         C            1.254078728602     4.956092631887    -0.228992457609    12.000000000000
         C            3.751710400364     7.763926669203    -0.233555798829    12.000000000000
         C            4.923561865144     7.078795295213    -0.235612279537    12.000000000000
         C            4.955603080284     5.643461981592    -0.235772692344    12.000000000000
         C            3.706797343163     4.941224726556    -0.230681132174    12.000000000000
         H           -3.658525328800     8.890841937358    -0.230594841112     1.007825032230
         H           -1.189217520798     8.874135605583    -0.226641430119     1.007825032230
         H            1.284290047845     8.860847953711    -0.227249338164     1.007825032230
         H            3.753537895758     8.851049797195    -0.232033274513     1.007825032230
         H            5.869954512165     7.613809352878    -0.236537646579     1.007825032230
         H           -5.788235898544     7.676316731157    -0.236206251651     1.007825032230
         C           -6.091978149738     4.993274531866    -0.237091555884    12.000000000000
         C           -6.128665671359     3.582594687021    -0.235890378856    12.000000000000
         C           -3.664583931087     3.564196697967    -0.238815473473    12.000000000000
         C           -4.894302395740     2.861095294123    -0.229646488488    12.000000000000
         C           -2.437339185940     2.847626175307    -0.226983694936    12.000000000000
         C           -1.209232048638     3.547901453201    -0.240662721728    12.000000000000
         C            1.247137381121     3.534695269652    -0.241471328134    12.000000000000
         C            0.015171848527     2.833126357528    -0.229787144909    12.000000000000
         C            2.467640981399     2.821304495478    -0.229687086785    12.000000000000
         C            3.702545283538     3.524674672647    -0.243175047628    12.000000000000
         C            6.144976195342     4.927586884354    -0.237006137556    12.000000000000
         C            6.166584167820     3.516598994165    -0.234839584119    12.000000000000
         C            4.924605767418     2.808422443577    -0.228300837882    12.000000000000
         H            7.089901318599     5.466902284446    -0.240768018405     1.007825032230
         H           -7.031045942143     5.542702471080    -0.241324770835     1.007825032230
         C           -7.339702232165     2.858426052802    -0.237517546297    12.000000000000
         C           -7.364886149100     1.470337889806    -0.235752008170    12.000000000000
         C           -4.903508799989     1.444441330383    -0.240468272361    12.000000000000
         C           -6.132261343652     0.739953875277    -0.228178228378    12.000000000000
         C           -3.676878991558     0.726711660896    -0.229840555962    12.000000000000
         C           -2.445660777107     1.429655651485    -0.240150266163    12.000000000000
         C           -1.223604872343     0.715339019858    -0.228721001632    12.000000000000
         C            0.007633678272     1.417397667460    -0.230255347914    12.000000000000
         C            1.231215616705     0.702131208810    -0.249081933570    12.000000000000
         C            2.460816909489     1.403306554348    -0.229577424679    12.000000000000
         C            3.684426063155     0.687212946435    -0.230406210957    12.000000000000
         C            4.918704710497     1.391749079412    -0.242808032592    12.000000000000
         C            7.369797886919     2.779496721407    -0.236600003912    12.000000000000
         C            7.380158475080     1.391232026078    -0.235053321066    12.000000000000
         C            6.139795348081     0.674133141423    -0.228724979254    12.000000000000
         H           -8.279194990388     3.407132559347    -0.241815098419     1.007825032230
         H            8.315109280438     3.318132614846    -0.240810579711     1.007825032230
         C           -8.591760128623     0.724847071267    -0.235411580552    12.000000000000
         C           -8.599028794745    -0.632625288006    -0.233288455969    12.000000000000
         C           -6.139817330160    -0.674122118931    -0.240277797304    12.000000000000
         C           -7.380188303179    -1.391251671359    -0.232861735763    12.000000000000
         C           -4.918688671298    -1.391740499807    -0.227937299155    12.000000000000
         C           -3.684442486726    -0.687222797513    -0.238969539219    12.000000000000
         C           -2.460821231289    -1.403330660602    -0.228426453030    12.000000000000
         C           -1.231166203362    -0.702159346658    -0.240546831822    12.000000000000
         C           -0.007573816429    -1.417404331188    -0.233090307518    12.000000000000
         C            1.223643524847    -0.715260859041    -0.223084685569    12.000000000000
         C            2.445666458290    -1.429628770784    -0.234834698329    12.000000000000
         C            3.676862511805    -0.726692913333    -0.238975282724    12.000000000000
         C            6.132244655378    -0.739964321627    -0.240503256937    12.000000000000
         C            4.903514954462    -1.444443002318    -0.226662182397    12.000000000000
         C            8.599010657649     0.632618384891    -0.235191204922    12.000000000000
         C            8.591741297059    -0.724836348971    -0.233454824661    12.000000000000
         C            7.364858573348    -1.470318147383    -0.233685001353    12.000000000000
         H           -9.528310162860     1.276861967415    -0.236881507516     1.007825032230
         H            9.541406783565     1.174587006667    -0.236243237183     1.007825032230
         C           -7.369842100810    -2.779530627711    -0.231053527341    12.000000000000
         C           -4.924603300092    -2.808422739118    -0.238785159777    12.000000000000
         C           -6.166626686709    -3.516637674603    -0.232483319618    12.000000000000
         C           -3.702514550747    -3.524667030898    -0.228461090591    12.000000000000
         C           -2.467651176156    -2.821311444581    -0.240505728948    12.000000000000
         C           -0.015137665149    -2.833127127177    -0.240224140439    12.000000000000
         C           -1.247126032268    -3.534717657340    -0.228660187031    12.000000000000
         C            1.209240878602    -3.547900160421    -0.226121157240    12.000000000000
         C            2.437331831113    -2.847627219953    -0.240260915550    12.000000000000
         C            4.894298152729    -2.861108450063    -0.239440175479    12.000000000000
         C            3.664611063999    -3.564205327309    -0.226560755539    12.000000000000
         C            6.128634823704    -3.582569539495    -0.233214913581    12.000000000000
         C            7.339668473654    -2.858398789148    -0.231699687499    12.000000000000
         H           -9.541453302301    -1.174548948442    -0.231919039796     1.007825032230
         H            9.528257677030    -1.276904555682    -0.232205016900     1.007825032230
         H           -8.315169234890    -3.318135334990    -0.226881298810     1.007825032230
         H            8.279150951450    -3.407126271671    -0.227360131517     1.007825032230
         C           -6.144998379744    -4.927632754561    -0.231157321558    12.000000000000
         C           -3.706787539039    -4.941247195895    -0.240978289646    12.000000000000
         C           -4.955594249043    -5.643479455272    -0.233011155001    12.000000000000
         C           -2.486125517268    -5.654771056187    -0.228038618602    12.000000000000
         C           -1.254062526522    -4.956107531779    -0.239214224587    12.000000000000
         C            1.201008382827    -4.969265869970    -0.238033100329    12.000000000000
         C           -0.030340865455    -5.669505784916    -0.230189900666    12.000000000000
         C            3.653745910287    -4.980729257192    -0.237275100581    12.000000000000
         C            2.425488504834    -5.681160117305    -0.227898170029    12.000000000000
         C            6.091961426769    -4.993243445164    -0.230920686908    12.000000000000
         C            4.894972253569    -5.696333902735    -0.232156882738    12.000000000000
         H           -7.089896579082    -5.466985324016    -0.226754559877     1.007825032230
         H            7.031051018158    -5.542644018110    -0.227340907144     1.007825032230
         C           -4.923549513240    -7.078806581455    -0.233565923906    12.000000000000
         C           -2.485346279279    -7.087713559707    -0.236075816342    12.000000000000
         C           -3.751690082821    -7.763932639414    -0.235881137417    12.000000000000
         C           -0.037953148030    -7.099450356247    -0.235860091194    12.000000000000
         C           -1.277960291443    -7.772889866444    -0.237844783956    12.000000000000
         C            2.409440129685    -7.114007493780    -0.234996890383    12.000000000000
         C            1.194745746111    -7.786170847340    -0.237149181265    12.000000000000
         C            4.847616861456    -7.131247592357    -0.232490075724    12.000000000000
         C            3.668467414834    -7.803773474721    -0.234838510088    12.000000000000
         H           -5.869944541458    -7.613816079819    -0.232021887041     1.007825032230
         H            5.788245434347    -7.676317671092    -0.231362956242     1.007825032230
         H           -3.753531130491    -8.851057051013    -0.237717051846     1.007825032230
         H           -1.284308596936    -8.860860874274    -0.242272167814     1.007825032230
         H            1.189217383654    -8.874146102367    -0.241241817955     1.007825032230
         H            3.658542423782    -8.890846115831    -0.236493051510     1.007825032230

  Charge       = 0
  Multiplicity = 1
  Basis Set: JUN-CC-PVDZ
    Blend: JUN-CC-PVDZ
  Basis Set: (JUN-CC-PVDZ AUX)
    Blend: JUN-CC-PVDZ-JKFIT

    Orbital Energies [Eh]
    ---------------------

    Doubly Occupied:

       1A    -11.264089     2A    -11.263762     3A    -11.263698
       4A    -11.263336     5A    -11.263302     6A    -11.263276
       7A    -11.263149     8A    -11.263128     9A    -11.263104
      10A    -11.262896    11A    -11.262767    12A    -11.262765
      13A    -11.262273    14A    -11.262273    15A    -11.262253
      16A    -11.262225    17A    -11.262132    18A    -11.262124
      19A    -11.262080    20A    -11.262044    21A    -11.262028
      22A    -11.261936    23A    -11.261907    24A    -11.261770
      25A    -11.261766    26A    -11.261744    27A    -11.261728
      28A    -11.261700    29A    -11.261681    30A    -11.261593
      31A    -11.261573    32A    -11.261569    33A    -11.261558
      34A    -11.261543    35A    -11.261537    36A    -11.261519
      37A    -11.261347    38A    -11.261339    39A    -11.261332
      40A    -11.261329    41A    -11.261319    42A    -11.261317
      43A    -11.261301    44A    -11.261283    45A    -11.261281
      46A    -11.261257    47A    -11.261252    48A    -11.261246
      49A    -11.261071    50A    -11.261042    51A    -11.261032
      52A    -11.260971    53A    -11.260947    54A    -11.260898
      55A    -11.259931    56A    -11.259917    57A    -11.259915
      58A    -11.259886    59A    -11.259883    60A    -11.259867
      61A    -11.259300    62A    -11.259276    63A    -11.259271
      64A    -11.259221    65A    -11.259215    66A    -11.259187
      67A    -11.258934    68A    -11.258916    69A    -11.258913
      70A    -11.258885    71A    -11.258883    72A    -11.258871
      73A    -11.254542    74A    -11.254541    75A    -11.254535
      76A    -11.254533    77A    -11.254532    78A    -11.254531
      79A    -11.253671    80A    -11.253667    81A    -11.253664
      82A    -11.253662    83A    -11.253659    84A    -11.253658
      85A    -11.253587    86A    -11.253583    87A    -11.253580
      88A    -11.253577    89A    -11.253575    90A    -11.253574
      91A    -11.253070    92A    -11.253068    93A    -11.253062
      94A    -11.253061    95A    -11.253060    96A    -11.253059
      97A     -1.253936    98A     -1.239005    99A     -1.239003
     100A     -1.220473   101A     -1.220472   102A     -1.215428
     103A     -1.201054   104A     -1.195618   105A     -1.188139
     106A     -1.188136   107A     -1.173778   108A     -1.173775
     109A     -1.155634   110A     -1.155631   111A     -1.152707
     112A     -1.144737   113A     -1.144733   114A     -1.128578
     115A     -1.114720   116A     -1.113176   117A     -1.112473
     118A     -1.112463   119A     -1.111633   120A     -1.088438
     121A     -1.088420   122A     -1.076974   123A     -1.076972
     124A     -1.067622   125A     -1.067591   126A     -1.064969
     127A     -1.046810   128A     -1.046804   129A     -1.040491
     130A     -1.038748   131A     -1.038747   132A     -1.025242
     133A     -1.021374   134A     -1.021328   135A     -1.007191
     136A     -1.006822   137A     -1.003805   138A     -1.000492
     139A     -1.000443   140A     -0.991089   141A     -0.970993
     142A     -0.970945   143A     -0.955894   144A     -0.955837
     145A     -0.905589   146A     -0.905563   147A     -0.905549
     148A     -0.905523   149A     -0.904326   150A     -0.892366
     151A     -0.892313   152A     -0.890364   153A     -0.890304
     154A     -0.889464   155A     -0.872229   156A     -0.869070
     157A     -0.851550   158A     -0.847869   159A     -0.847850
     160A     -0.845598   161A     -0.843027   162A     -0.834575
     163A     -0.834561   164A     -0.828127   165A     -0.828124
     166A     -0.784556   167A     -0.784546   168A     -0.783660
     169A     -0.783637   170A     -0.782293   171A     -0.782276
     172A     -0.782036   173A     -0.767002   174A     -0.760794
     175A     -0.750572   176A     -0.733496   177A     -0.727081
     178A     -0.727066   179A     -0.725091   180A     -0.724551
     181A     -0.724533   182A     -0.718483   183A     -0.713772
     184A     -0.713766   185A     -0.699582   186A     -0.699573
     187A     -0.686118   188A     -0.685968   189A     -0.685966
     190A     -0.682185   191A     -0.682173   192A     -0.678769
     193A     -0.653628   194A     -0.650875   195A     -0.650847
     196A     -0.649808   197A     -0.649795   198A     -0.649575
     199A     -0.640922   200A     -0.640899   201A     -0.640098
     202A     -0.639173   203A     -0.636020   204A     -0.635994
     205A     -0.629150   206A     -0.617714   207A     -0.615314
     208A     -0.615294   209A     -0.608809   210A     -0.608802
     211A     -0.599137   212A     -0.599077   213A     -0.598746
     214A     -0.598614   215A     -0.598589   216A     -0.598025
     217A     -0.595077   218A     -0.595064   219A     -0.594727
     220A     -0.594228   221A     -0.591956   222A     -0.591953
     223A     -0.587386   224A     -0.577806   225A     -0.577795
     226A     -0.575661   227A     -0.575657   228A     -0.573390
     229A     -0.569574   230A     -0.568131   231A     -0.568112
     232A     -0.566757   233A     -0.566745   234A     -0.560923
     235A     -0.558717   236A     -0.558698   237A     -0.558436
     238A     -0.554372   239A     -0.550553   240A     -0.547484
     241A     -0.544262   242A     -0.535035   243A     -0.534961
     244A     -0.533537   245A     -0.533517   246A     -0.528083
     247A     -0.528069   248A     -0.527786   249A     -0.517154
     250A     -0.517121   251A     -0.515352   252A     -0.515346
     253A     -0.509650   254A     -0.509633   255A     -0.498034
     256A     -0.496453   257A     -0.496424   258A     -0.493779
     259A     -0.493765   260A     -0.489433   261A     -0.481458
     262A     -0.477421   263A     -0.477413   264A     -0.474001
     265A     -0.469443   266A     -0.466527   267A     -0.466522
     268A     -0.458793   269A     -0.446677   270A     -0.446616
     271A     -0.441024   272A     -0.440761   273A     -0.440744
     274A     -0.434688   275A     -0.433910   276A     -0.407373
     277A     -0.407340   278A     -0.386395   279A     -0.386330
     280A     -0.385736   281A     -0.385730   282A     -0.383732
     283A     -0.354309   284A     -0.354305   285A     -0.350654
     286A     -0.338065   287A     -0.335572   288A     -0.335498
     289A     -0.332711   290A     -0.332709   291A     -0.307041
     292A     -0.301913   293A     -0.301852   294A     -0.300848
     295A     -0.286164   296A     -0.256486   297A     -0.253470
     298A     -0.253420   299A     -0.204256   300A     -0.204163

  @DF-RHF Final Energy: -3650.33991662386325

   => Energetics <=

    Nuclear Repulsion Energy =          15611.4211649754324753
    One-Electron Energy =              -36072.1437212503951741
    Two-Electron Energy =               16810.3826396510994527
    Total Energy =                      -3650.3399166238632461
 Dipole X            :          0.0002009            0.0001983            0.0003992
 Dipole Y            :          0.0013780           -0.0013163            0.0000617
 Dipole Z            :        265.5174129         -265.5180999           -0.0006871
 Magnitude           :                                                    0.0007970

    SAPT Results
  --------------------------------------------------------------------------------------------------------
    Electrostatics                 -2.65765632 [mEh]      -1.66770452 [kcal/mol]      -6.97767571 [kJ/mol]
      Elst10,r                     -2.65765632 [mEh]      -1.66770452 [kcal/mol]      -6.97767571 [kJ/mol]

    Exchange                       36.19364847 [mEh]      22.71185731 [kcal/mol]      95.02641097 [kJ/mol]
      Exch10                       36.19364847 [mEh]      22.71185731 [kcal/mol]      95.02641097 [kJ/mol]
      Exch10(S^2)                  35.98201540 [mEh]      22.57905555 [kcal/mol]      94.47076841 [kJ/mol]

    Induction                     -24.27732564 [mEh]     -15.23425184 [kcal/mol]     -63.74010968 [kJ/mol]
      Ind20,r                     -34.92478992 [mEh]     -21.91563654 [kcal/mol]     -91.69502330 [kJ/mol]
      Exch-Ind20,r                 13.77704486 [mEh]       8.64522617 [kcal/mol]      36.17162629 [kJ/mol]
      delta HF,r (2)               -3.12958058 [mEh]      -1.96384146 [kcal/mol]      -8.21671268 [kJ/mol]

    Dispersion                    -16.20240322 [mEh]     -10.16716152 [kcal/mol]     -42.53940379 [kJ/mol]
      Disp20                      -20.09678957 [mEh]     -12.61092585 [kcal/mol]     -52.76411374 [kJ/mol]
      Exch-Disp20                   3.89438635 [mEh]       2.44376433 [kcal/mol]      10.22470996 [kJ/mol]
      Disp20 (SS)                 -10.04839478 [mEh]      -6.30546292 [kcal/mol]     -26.38205687 [kJ/mol]
      Disp20 (OS)                 -10.04839478 [mEh]      -6.30546292 [kcal/mol]     -26.38205687 [kJ/mol]
      Exch-Disp20 (SS)              2.16741486 [mEh]       1.36007336 [kcal/mol]       5.69054692 [kJ/mol]
      Exch-Disp20 (OS)              1.72697150 [mEh]       1.08369097 [kcal/mol]       4.53416304 [kJ/mol]

  Total HF                          9.25866651 [mEh]       5.80990095 [kcal/mol]      24.30862558 [kJ/mol]
  Total SAPT0                      -6.94373671 [mEh]      -4.35726057 [kcal/mol]     -18.23077821 [kJ/mol]

  Special recipe for scaled SAPT0 (see Manual):
    Electrostatics sSAPT0          -2.65765632 [mEh]      -1.66770452 [kcal/mol]      -6.97767571 [kJ/mol]
    Exchange sSAPT0                36.19364847 [mEh]      22.71185731 [kcal/mol]      95.02641097 [kJ/mol]
    Induction sSAPT0              -24.03279840 [mEh]     -15.08080868 [kcal/mol]     -63.09810350 [kJ/mol]
    Dispersion sSAPT0             -16.13328219 [mEh]     -10.12378742 [kcal/mol]     -42.35792655 [kJ/mol]
  Total sSAPT0                     -6.63008844 [mEh]      -4.16044331 [kcal/mol]     -17.40729479 [kJ/mol]
  --------------------------------------------------------------------------------------------------------

*** Psi4 exiting successfully. Buy a developer a beer!
