                               Psi4 1.9 release

  ==> Input File <==

--------------------------------------------------------------------------
memory 64 GB # how much memory is available ! Depends on the nodes/cores !

molecule dimer {
# monomer A
-1 1    # Charge and multiplicity
B -0.000046  0.000337 5.999994
F -1.153597  0.000048 6.815641
F  1.153661 -0.000581 6.815641
F -0.000019 -1.153637 5.184360
F -0.000019  1.153978 5.184360
--
# monomer B
0 1     # Charge and multiplicity
C   -3.66844126402057      7.80375217008252      0.00190004133558
C   -4.84759871934653      7.13124183134024     -0.00046653359696
C   -4.89495929917518      5.69633040353158     -0.00103944469517
C   -3.65374067877320      4.98073034095895      0.00662099703436
C   -2.40942512149445      7.11398103667468      0.00209438359570
C   -2.42547734410473      5.68112195090346     -0.00491050527438
C   -1.19474401643570      7.78614419430947      0.00356656413763
C   0.03795902893699      7.09942164575698      0.00139585983271
C   0.03033258741920      5.66948955970466     -0.00408752508301
C   -1.20098450790502      4.96927034791531      0.00488220885047
C   1.27795782581485      7.77285944319479      0.00277170839332
C   2.48535808472416      7.08769688523756      0.00049722048857
C   2.48612868491717      5.65477081024076     -0.00644052849921
C   1.25408291964399      4.95607811366431      0.00518741308898
C   3.75171459140595      7.76391215098033      0.00062407186893
C   4.92356605618520      7.07878077698995     -0.00143240883900
C   4.95560727132542      5.64344746336949     -0.00159282164606
C   3.70680153420475      4.94121020833308      0.00349873852374
H   -3.65852113775815      8.89082741913536      0.00358502958574
H   -1.18921332975660      8.87412108735996      0.00753844057883
H   1.28429423888630      8.86083343548850      0.00693053253426
H   3.75354208679975      8.85103527897216      0.00214659618464
H   5.86995870320703      7.61379483465560     -0.00235777588134
H   -5.78823170750226      7.67630221293400     -0.00202638095293
C   -6.09197395869619      4.99326001364347     -0.00291168518608
C   -6.12866148031747      3.58258016879823     -0.00171050815740
C   -3.66457974004527      3.56418217974434     -0.00463560277484
C   -4.89429820469869      2.86108077590057      0.00453338221034
C   -2.43733499489796      2.84761165708481      0.00719617576166
C   -1.20922785759670      3.54788693497833     -0.00648285103018
C   1.24714157216223      3.53468075142962     -0.00729145743546
C   0.01517603956900      2.83311183930540      0.00439272578912
C   2.46764517244071      2.82128997725533      0.00449278391269
C   3.70254947457969      3.52466015442405     -0.00899517692985
C   6.14498038638375      4.92757236613191     -0.00282626685777
C   6.16658835886151      3.51658447594213     -0.00065971342101
C   4.92460995845939      2.80840792535402      0.00587903281610
H   7.08990550964105      5.46688776622306     -0.00658814770723
H   -7.03104175110130      5.54268795285765     -0.00714490013730
C   -7.33969804112295      2.85841153457957     -0.00333767559888
C   -7.36488195805880      1.47032337158330     -0.00157213747140
C   -4.90350460894690      1.44442681216000     -0.00628840166334
C   -6.13225715261081      0.73993935705394      0.00600164231964
C   -3.67687480051673      0.72669714267312      0.00433931473643
C   -2.44565658606518      1.42964113326212     -0.00597039546461
C   -1.22360068130162      0.71532450163492      0.00545886906656
C   0.00763786931376      1.41738314923765      0.00392452278437
C   1.23121980774686      0.70211669058719     -0.01490206287210
C   2.46082110053113      1.40329203612573      0.00460244601878
C   3.68443025419614      0.68719842821222      0.00377365974158
C   4.91870890153864      1.39173456118907     -0.00862816189375
C   7.36980207796101      2.77948220318441     -0.00242013321349
C   7.38016266612146      1.39121750785509     -0.00087345036788
C   6.13979953912259      0.67411862320065      0.00545489144369
H   -8.27919079934664      3.40711804112415     -0.00763522772059
H   8.31511347147953      3.31811809662368     -0.00663070901292
C   -8.59175593758115      0.72483255304480     -0.00123170985383
C   -8.59902460370342     -0.63263980622873      0.00089141472904
C   -6.13981313911873     -0.67413663715361     -0.00609792660607
C   -7.38018411213749     -1.39126618958160      0.00131813493501
C   -4.91868448025621     -1.39175501803000      0.00624257154343
C   -3.68443829568458     -0.68723731573599     -0.00478966852105
C   -2.46081704024768     -1.40334517882457      0.00575341766833
C   -1.23116201232071     -0.70217386488055     -0.00636696112346
C   -0.00756962538737     -1.41741884941102      0.00108956317991
C   1.22364771588843     -0.71527537726392      0.01109518512883
C   2.44567064933149     -1.42964328900682     -0.00065482763106
C   3.67686670284649     -0.72670743155550     -0.00479541202602
C   6.13224884641929     -0.73997883984993     -0.00632338623858
C   4.90351914550401     -1.44445752054090      0.00751768830159
C   8.59901484869081      0.63260386666793     -0.00101133422380
C   8.59174548810050     -0.72485086719319      0.00072504603735
C   7.36486276438985     -1.47033266560598      0.00049486934466
H   -9.52830597181814      1.27684744919284     -0.00270163681798
H   9.54141097460619      1.17457248844457     -0.00206336648518
C   -7.36983790976868     -2.77954514593389      0.00312634335708
C   -4.92459910905015     -2.80843725734101     -0.00460528907921
C   -6.16662249566744     -3.51665219282533      0.00169655107992
C   -3.70251035970491     -3.52468154912026      0.00571878010666
C   -2.46764698511392     -2.82132596280400     -0.00632585824990
C   -0.01513347410770     -2.83314164539971     -0.00604426974092
C   -1.24712184122656     -3.53473217556300      0.00551968366725
C   1.20924506964357     -3.54791467864352      0.00805871345849
C   2.43733602215464     -2.84764173817541     -0.00608104485234
C   4.89430234377080     -2.86112296828604     -0.00526030478103
C   3.66461525504104     -3.56421984553201      0.00761911515957
C   6.12863901474565     -3.58258405771778      0.00096495711699
C   7.33967266469532     -2.85841330737039      0.00248018319869
H   -9.54144911125902     -1.17456346666430      0.00226083090216
H   9.52826186807155     -1.27691907390448      0.00197485379837
H   -8.31516504384864     -3.31814985321231      0.00729857188773
H   8.27915514249207     -3.40714078989363      0.00681973918158
C   -6.14499418870218     -4.92764727278338      0.00302254913999
C   -3.70678334799751     -4.94126171411716     -0.00679841894792
C   -4.95559005800169     -5.64349397349412      0.00116871569699
C   -2.48612132622665     -5.65478557440947      0.00614125209662
C   -1.25405833548005     -4.95612205000132     -0.00503435388927
C   1.20101257386816     -4.96928038819302     -0.00385322963129
C   -0.03033667441341     -5.66952030313900      0.00398997003238
C   3.65375010132847     -4.98074377541453     -0.00309522988330
C   2.42549269587528     -5.68117463552727      0.00628170066869
C   6.09196561781097     -4.99325796338655      0.00325918379042
C   4.89497644461045     -5.69634842095790      0.00202298796027
H   -7.08989238804069     -5.46699984223871      0.00742531082125
H   7.03105520920009     -5.54265853633254      0.00683896355417
C   -4.92354532219813     -7.07882109967734      0.00061394679214
C   -2.48534208823777     -7.08772807792913     -0.00189594564379
C   -3.75168589177895     -7.76394715763627     -0.00170126671874
C   -0.03794895698805     -7.09946487446944     -0.00168022049625
C   -1.27795610040136     -7.77290438466689     -0.00366491325785
C   2.40944432072629     -7.11402201200282     -0.00081701968533
C   1.19474993715296     -7.78618536556242     -0.00296931056689
C   4.84762105249800     -7.13126211057943      0.00168979497423
C   3.66847160587561     -7.80378799294376     -0.00065863938960
H   -5.86994035041618     -7.61383059804164      0.00215798365757
H   5.78824962538815     -7.67633218931421      0.00281691445618
H   -3.75352693944918     -8.85107156923607     -0.00353718114765
H   -1.28430440589466     -8.86087539249706     -0.00809229711623
H   1.18922157469537     -8.87416062058945     -0.00706194725726
H   3.65854661482387     -8.89086063405326     -0.00231318081200

    units angstrom      # Angstroms are the default
    no_reorient         # Geometry fixed, default
    symmetry c1         # C1 symmetry, default
}

set {
    scf_type DF         # Density fitting, faster than exact integrals
    freeze_core True    # Freeze core electrons
    basis jun-cc-pVDZ   # Jun-cc-pVDZ basis set, recommended for sSAPT0 in https://doi.org/10.1063/1.4867135
}

energy('ssapt0')        # Compute sSAPT0 energy, includes also SAPT0
--------------------------------------------------------------------------

  //              Dimer HF             //
    Molecular point group: c1
  Charge       = -1
  Multiplicity = 1
  Basis Set: JUN-CC-PVDZ
    Blend: JUN-CC-PVDZ
  Basis Set: (JUN-CC-PVDZ AUX)
    Blend: JUN-CC-PVDZ-JKFIT
  @DF-RHF Final Energy: -4073.10488756601808
    Total Energy =                      -4073.1048875660162594
 Dipole X            :         -0.0000544           -0.0001188           -0.0001732
 Dipole Y            :          0.0012168           -0.0002727            0.0009441
 Dipole Z            :         26.2511818          -35.7072375           -9.4560557
 Magnitude           :                                                    9.4560558
  //            Monomer A HF           //
    Molecular point group: c1
  Multiplicity = 1
  Basis Set: JUN-CC-PVDZ
    Blend: JUN-CC-PVDZ
  Basis Set: (JUN-CC-PVDZ AUX)
    Blend: JUN-CC-PVDZ-JKFIT
  @DF-RHF Final Energy:  -422.77164042500414
    Total Energy =                       -422.7716404250041364
  //            Monomer B HF           //
    Molecular point group: c1

    Geometry (in Angstrom), charge = 0, multiplicity = 1:

       Center              X                  Y                   Z               Mass
    ------------   -----------------  -----------------  -----------------  -----------------
      Gh(B)          -0.000050191042     0.000351518223     5.586737776488    11.009305360000
      Gh(F)          -1.153601191042     0.000062518223     6.402384776488    18.998403162730
      Gh(F)           1.153656808958    -0.000566481777     6.402384776488    18.998403162730
      Gh(F)          -0.000023191042    -1.153622481777     4.771103776488    18.998403162730
      Gh(F)          -0.000023191042     1.153992518223     4.771103776488    18.998403162730
         C           -3.668445455062     7.803766688305    -0.411356182177    12.000000000000
         C           -4.847602910388     7.131256349563    -0.413722757109    12.000000000000
         C           -4.894963490217     5.696344921754    -0.414295668207    12.000000000000
         C           -3.653744869815     4.980744859182    -0.406635226478    12.000000000000
         C           -2.409429312536     7.113995554897    -0.411161839916    12.000000000000
         C           -2.425481535146     5.681136469126    -0.418166728786    12.000000000000
         C           -1.194748207477     7.786158712532    -0.409689659374    12.000000000000
         C            0.037954837895     7.099436163980    -0.411860363679    12.000000000000
         C            0.030328396378     5.669504077927    -0.417343748595    12.000000000000
         C           -1.200988698947     4.969284866138    -0.408374014662    12.000000000000
         C            1.277953634773     7.772873961417    -0.410484515119    12.000000000000
         C            2.485353893683     7.087711403460    -0.412759003024    12.000000000000
         C            2.486124493876     5.654785328463    -0.419696752011    12.000000000000
         C            1.254078728602     4.956092631887    -0.408068810423    12.000000000000
         C            3.751710400364     7.763926669203    -0.412632151643    12.000000000000
         C            4.923561865144     7.078795295213    -0.414688632351    12.000000000000
         C            4.955603080284     5.643461981592    -0.414849045158    12.000000000000
         C            3.706797343163     4.941224726556    -0.409757484988    12.000000000000
         H           -3.658525328800     8.890841937358    -0.409671193926     1.007825032230
         H           -1.189217520798     8.874135605583    -0.405717782933     1.007825032230
         H            1.284290047845     8.860847953711    -0.406325690978     1.007825032230
         H            3.753537895758     8.851049797195    -0.411109627327     1.007825032230
         H            5.869954512165     7.613809352878    -0.415613999393     1.007825032230
         H           -5.788235898544     7.676316731157    -0.415282604465     1.007825032230
         C           -6.091978149738     4.993274531866    -0.416167908698    12.000000000000
         C           -6.128665671359     3.582594687021    -0.414966731670    12.000000000000
         C           -3.664583931087     3.564196697967    -0.417891826287    12.000000000000
         C           -4.894302395740     2.861095294123    -0.408722841302    12.000000000000
         C           -2.437339185940     2.847626175307    -0.406060047750    12.000000000000
         C           -1.209232048638     3.547901453201    -0.419739074542    12.000000000000
         C            1.247137381121     3.534695269652    -0.420547680948    12.000000000000
         C            0.015171848527     2.833126357528    -0.408863497723    12.000000000000
         C            2.467640981399     2.821304495478    -0.408763439599    12.000000000000
         C            3.702545283538     3.524674672647    -0.422251400442    12.000000000000
         C            6.144976195342     4.927586884354    -0.416082490370    12.000000000000
         C            6.166584167820     3.516598994165    -0.413915936933    12.000000000000
         C            4.924605767418     2.808422443577    -0.407377190696    12.000000000000
         H            7.089901318599     5.466902284446    -0.419844371219     1.007825032230
         H           -7.031045942143     5.542702471080    -0.420401123649     1.007825032230
         C           -7.339702232165     2.858426052802    -0.416593899111    12.000000000000
         C           -7.364886149100     1.470337889806    -0.414828360984    12.000000000000
         C           -4.903508799989     1.444441330383    -0.419544625175    12.000000000000
         C           -6.132261343652     0.739953875277    -0.407254581192    12.000000000000
         C           -3.676878991558     0.726711660896    -0.408916908776    12.000000000000
         C           -2.445660777107     1.429655651485    -0.419226618977    12.000000000000
         C           -1.223604872343     0.715339019858    -0.407797354446    12.000000000000
         C            0.007633678272     1.417397667460    -0.409331700728    12.000000000000
         C            1.231215616705     0.702131208810    -0.428158286384    12.000000000000
         C            2.460816909489     1.403306554348    -0.408653777493    12.000000000000
         C            3.684426063155     0.687212946435    -0.409482563771    12.000000000000
         C            4.918704710497     1.391749079412    -0.421884385406    12.000000000000
         C            7.369797886919     2.779496721407    -0.415676356726    12.000000000000
         C            7.380158475080     1.391232026078    -0.414129673880    12.000000000000
         C            6.139795348081     0.674133141423    -0.407801332068    12.000000000000
         H           -8.279194990388     3.407132559347    -0.420891451233     1.007825032230
         H            8.315109280438     3.318132614846    -0.419886932525     1.007825032230
         C           -8.591760128623     0.724847071267    -0.414487933366    12.000000000000
         C           -8.599028794745    -0.632625288006    -0.412364808783    12.000000000000
         C           -6.139817330160    -0.674122118931    -0.419354150118    12.000000000000
         C           -7.380188303179    -1.391251671359    -0.411938088577    12.000000000000
         C           -4.918688671298    -1.391740499807    -0.407013651969    12.000000000000
         C           -3.684442486726    -0.687222797513    -0.418045892033    12.000000000000
         C           -2.460821231289    -1.403330660602    -0.407502805844    12.000000000000
         C           -1.231166203362    -0.702159346658    -0.419623184636    12.000000000000
         C           -0.007573816429    -1.417404331188    -0.412166660332    12.000000000000
         C            1.223643524847    -0.715260859041    -0.402161038383    12.000000000000
         C            2.445666458290    -1.429628770784    -0.413911051143    12.000000000000
         C            3.676862511805    -0.726692913333    -0.418051635538    12.000000000000
         C            6.132244655378    -0.739964321627    -0.419579609751    12.000000000000
         C            4.903514954462    -1.444443002318    -0.405738535211    12.000000000000
         C            8.599010657649     0.632618384891    -0.414267557736    12.000000000000
         C            8.591741297059    -0.724836348971    -0.412531177475    12.000000000000
         C            7.364858573348    -1.470318147383    -0.412761354167    12.000000000000
         H           -9.528310162860     1.276861967415    -0.415957860330     1.007825032230
         H            9.541406783565     1.174587006667    -0.415319589997     1.007825032230
         C           -7.369842100810    -2.779530627711    -0.410129880155    12.000000000000
         C           -4.924603300092    -2.808422739118    -0.417861512591    12.000000000000
         C           -6.166626686709    -3.516637674603    -0.411559672432    12.000000000000
         C           -3.702514550747    -3.524667030898    -0.407537443405    12.000000000000
         C           -2.467651176156    -2.821311444581    -0.419582081762    12.000000000000
         C           -0.015137665149    -2.833127127177    -0.419300493253    12.000000000000
         C           -1.247126032268    -3.534717657340    -0.407736539845    12.000000000000
         C            1.209240878602    -3.547900160421    -0.405197510054    12.000000000000
         C            2.437331831113    -2.847627219953    -0.419337268364    12.000000000000
         C            4.894298152729    -2.861108450063    -0.418516528293    12.000000000000
         C            3.664611063999    -3.564205327309    -0.405637108353    12.000000000000
         C            6.128634823704    -3.582569539495    -0.412291266395    12.000000000000
         C            7.339668473654    -2.858398789148    -0.410776040313    12.000000000000
         H           -9.541453302301    -1.174548948442    -0.410995392610     1.007825032230
         H            9.528257677030    -1.276904555682    -0.411281369714     1.007825032230
         H           -8.315169234890    -3.318135334990    -0.405957651624     1.007825032230
         H            8.279150951450    -3.407126271671    -0.406436484331     1.007825032230
         C           -6.144998379744    -4.927632754561    -0.410233674372    12.000000000000
         C           -3.706787539039    -4.941247195895    -0.420054642460    12.000000000000
         C           -4.955594249043    -5.643479455272    -0.412087507815    12.000000000000
         C           -2.486125517268    -5.654771056187    -0.407114971415    12.000000000000
         C           -1.254062526522    -4.956107531779    -0.418290577401    12.000000000000
         C            1.201008382827    -4.969265869970    -0.417109453143    12.000000000000
         C           -0.030340865455    -5.669505784916    -0.409266253480    12.000000000000
         C            3.653745910287    -4.980729257192    -0.416351453395    12.000000000000
         C            2.425488504834    -5.681160117305    -0.406974522843    12.000000000000
         C            6.091961426769    -4.993243445164    -0.409997039722    12.000000000000
         C            4.894972253569    -5.696333902735    -0.411233235552    12.000000000000
         H           -7.089896579082    -5.466985324016    -0.405830912691     1.007825032230
         H            7.031051018158    -5.542644018110    -0.406417259958     1.007825032230
         C           -4.923549513240    -7.078806581455    -0.412642276720    12.000000000000
         C           -2.485346279279    -7.087713559707    -0.415152169156    12.000000000000
         C           -3.751690082821    -7.763932639414    -0.414957490231    12.000000000000
         C           -0.037953148030    -7.099450356247    -0.414936444008    12.000000000000
         C           -1.277960291443    -7.772889866444    -0.416921136770    12.000000000000
         C            2.409440129685    -7.114007493780    -0.414073243197    12.000000000000
         C            1.194745746111    -7.786170847340    -0.416225534079    12.000000000000
         C            4.847616861456    -7.131247592357    -0.411566428538    12.000000000000
         C            3.668467414834    -7.803773474721    -0.413914862902    12.000000000000
         H           -5.869944541458    -7.613816079819    -0.411098239855     1.007825032230
         H            5.788245434347    -7.676317671092    -0.410439309056     1.007825032230
         H           -3.753531130491    -8.851057051013    -0.416793404660     1.007825032230
         H           -1.284308596936    -8.860860874274    -0.421348520628     1.007825032230
         H            1.189217383654    -8.874146102367    -0.420318170769     1.007825032230
         H            3.658542423782    -8.890846115831    -0.415569404324     1.007825032230

  Charge       = 0
  Multiplicity = 1
  Basis Set: JUN-CC-PVDZ
    Blend: JUN-CC-PVDZ
  Basis Set: (JUN-CC-PVDZ AUX)
    Blend: JUN-CC-PVDZ-JKFIT

    Orbital Energies [Eh]
    ---------------------

    Doubly Occupied:

       1A    -11.264035     2A    -11.263723     3A    -11.263714
       4A    -11.263376     5A    -11.263373     6A    -11.263338
       7A    -11.263181     8A    -11.263158     9A    -11.263150
      10A    -11.262994    11A    -11.262834    12A    -11.262832
      13A    -11.262353    14A    -11.262351    15A    -11.262280
      16A    -11.262277    17A    -11.262226    18A    -11.262193
      19A    -11.262148    20A    -11.262111    21A    -11.262108
      22A    -11.261957    23A    -11.261949    24A    -11.261834
      25A    -11.261820    26A    -11.261807    27A    -11.261801
      28A    -11.261755    29A    -11.261746    30A    -11.261673
      31A    -11.261645    32A    -11.261644    33A    -11.261617
      34A    -11.261615    35A    -11.261594    36A    -11.261545
      37A    -11.261411    38A    -11.261400    39A    -11.261394
      40A    -11.261387    41A    -11.261382    42A    -11.261374
      43A    -11.261368    44A    -11.261353    45A    -11.261348
      46A    -11.261326    47A    -11.261322    48A    -11.261318
      49A    -11.261160    50A    -11.261127    51A    -11.261125
      52A    -11.261044    53A    -11.261042    54A    -11.260971
      55A    -11.260010    56A    -11.259997    57A    -11.259994
      58A    -11.259966    59A    -11.259963    60A    -11.259948
      61A    -11.259387    62A    -11.259361    63A    -11.259359
      64A    -11.259306    65A    -11.259305    66A    -11.259275
      67A    -11.259014    68A    -11.258997    69A    -11.258995
      70A    -11.258967    71A    -11.258965    72A    -11.258953
      73A    -11.254587    74A    -11.254586    75A    -11.254584
      76A    -11.254582    77A    -11.254576    78A    -11.254574
      79A    -11.253736    80A    -11.253734    81A    -11.253731
      82A    -11.253730    83A    -11.253728    84A    -11.253723
      85A    -11.253652    86A    -11.253650    87A    -11.253647
      88A    -11.253646    89A    -11.253643    90A    -11.253638
      91A    -11.253115    92A    -11.253114    93A    -11.253113
      94A    -11.253110    95A    -11.253104    96A    -11.253102
      97A     -1.254112    98A     -1.239132    99A     -1.239128
     100A     -1.220578   101A     -1.220572   102A     -1.215589
     103A     -1.201141   104A     -1.195710   105A     -1.188285
     106A     -1.188282   107A     -1.173861   108A     -1.173857
     109A     -1.155762   110A     -1.155759   111A     -1.152861
     112A     -1.144814   113A     -1.144812   114A     -1.128689
     115A     -1.114845   116A     -1.113255   117A     -1.112621
     118A     -1.112611   119A     -1.111706   120A     -1.088550
     121A     -1.088533   122A     -1.077052   123A     -1.077050
     124A     -1.067741   125A     -1.067713   126A     -1.065108
     127A     -1.046911   128A     -1.046904   129A     -1.040598
     130A     -1.038825   131A     -1.038824   132A     -1.025376
     133A     -1.021541   134A     -1.021493   135A     -1.007283
     136A     -1.006928   137A     -1.003901   138A     -1.000621
     139A     -1.000572   140A     -0.991160   141A     -0.971110
     142A     -0.971063   143A     -0.955983   144A     -0.955927
     145A     -0.905745   146A     -0.905703   147A     -0.905633
     148A     -0.905593   149A     -0.904497   150A     -0.892516
     151A     -0.892459   152A     -0.890503   153A     -0.890444
     154A     -0.889582   155A     -0.872313   156A     -0.869130
     157A     -0.851641   158A     -0.848000   159A     -0.847977
     160A     -0.845734   161A     -0.843143   162A     -0.834675
     163A     -0.834662   164A     -0.828205   165A     -0.828202
     166A     -0.784662   167A     -0.784651   168A     -0.783786
     169A     -0.783759   170A     -0.782407   171A     -0.782389
     172A     -0.782168   173A     -0.767101   174A     -0.760938
     175A     -0.750713   176A     -0.733578   177A     -0.727181
     178A     -0.727169   179A     -0.725204   180A     -0.724648
     181A     -0.724632   182A     -0.718638   183A     -0.713906
     184A     -0.713900   185A     -0.699683   186A     -0.699672
     187A     -0.686272   188A     -0.686053   189A     -0.686051
     190A     -0.682276   191A     -0.682264   192A     -0.678899
     193A     -0.653734   194A     -0.650982   195A     -0.650954
     196A     -0.649951   197A     -0.649935   198A     -0.649660
     199A     -0.641068   200A     -0.641045   201A     -0.640185
     202A     -0.639251   203A     -0.636145   204A     -0.636120
     205A     -0.629253   206A     -0.617681   207A     -0.615394
     208A     -0.615375   209A     -0.608905   210A     -0.608898
     211A     -0.599177   212A     -0.599133   213A     -0.598858
     214A     -0.598735   215A     -0.598706   216A     -0.598176
     217A     -0.595161   218A     -0.595149   219A     -0.594830
     220A     -0.594382   221A     -0.592074   222A     -0.592071
     223A     -0.587538   224A     -0.577870   225A     -0.577861
     226A     -0.575723   227A     -0.575720   228A     -0.573481
     229A     -0.569575   230A     -0.568275   231A     -0.568254
     232A     -0.566866   233A     -0.566854   234A     -0.560990
     235A     -0.558841   236A     -0.558823   237A     -0.558506
     238A     -0.554477   239A     -0.550620   240A     -0.547549
     241A     -0.544330   242A     -0.535047   243A     -0.534986
     244A     -0.533640   245A     -0.533617   246A     -0.528170
     247A     -0.528155   248A     -0.527936   249A     -0.517295
     250A     -0.517262   251A     -0.515416   252A     -0.515410
     253A     -0.509734   254A     -0.509717   255A     -0.498127
     256A     -0.496557   257A     -0.496530   258A     -0.493833
     259A     -0.493821   260A     -0.489472   261A     -0.481542
     262A     -0.477480   263A     -0.477476   264A     -0.474093
     265A     -0.469559   266A     -0.466637   267A     -0.466632
     268A     -0.458865   269A     -0.446837   270A     -0.446776
     271A     -0.441089   272A     -0.440816   273A     -0.440797
     274A     -0.434748   275A     -0.433965   276A     -0.407437
     277A     -0.407414   278A     -0.386474   279A     -0.386425
     280A     -0.385789   281A     -0.385788   282A     -0.383818
     283A     -0.354389   284A     -0.354373   285A     -0.350727
     286A     -0.338155   287A     -0.335660   288A     -0.335582
     289A     -0.332772   290A     -0.332765   291A     -0.307152
     292A     -0.302012   293A     -0.301952   294A     -0.300903
     295A     -0.286233   296A     -0.256520   297A     -0.253567
     298A     -0.253512   299A     -0.204325   300A     -0.204237

  @DF-RHF Final Energy: -3650.33789149086942

   => Energetics <=

    Nuclear Repulsion Energy =          15611.4211649754324753
    One-Electron Energy =              -36072.0866489274267224
    Two-Electron Energy =               16810.3275924611261871
    Total Energy =                      -3650.3378914908680599
 Dipole X            :         -0.0008468            0.0001983           -0.0006485
 Dipole Y            :          0.0011099           -0.0013163           -0.0002064
 Dipole Z            :        468.5562826         -468.5612573           -0.0049747
 Magnitude           :                                                    0.0050211

    SAPT Results
  --------------------------------------------------------------------------------------------------------
    Electrostatics                  9.73329641 [mEh]       6.10773571 [kcal/mol]      25.55476620 [kJ/mol]
      Elst10,r                      9.73329641 [mEh]       6.10773571 [kcal/mol]      25.55476620 [kJ/mol]

    Exchange                        0.00171754 [mEh]       0.00107777 [kcal/mol]       0.00450940 [kJ/mol]
      Exch10                        0.00171754 [mEh]       0.00107777 [kcal/mol]       0.00450940 [kJ/mol]
      Exch10(S^2)                   0.00171756 [mEh]       0.00107779 [kcal/mol]       0.00450946 [kJ/mol]

    Induction                      -5.09066409 [mEh]      -3.19443995 [kcal/mol]     -13.36553674 [kJ/mol]
      Ind20,r                      -5.12526283 [mEh]      -3.21615098 [kcal/mol]     -13.45637572 [kJ/mol]
      Exch-Ind20,r                  0.00166492 [mEh]       0.00104475 [kcal/mol]       0.00437125 [kJ/mol]
      delta HF,r (2)                0.03293382 [mEh]       0.02066628 [kcal/mol]       0.08646773 [kJ/mol]

    Dispersion                     -0.99535199 [mEh]      -0.62459281 [kcal/mol]      -2.61329630 [kJ/mol]
      Disp20                       -0.99722963 [mEh]      -0.62577104 [kcal/mol]      -2.61822604 [kJ/mol]
      Exch-Disp20                   0.00187764 [mEh]       0.00117824 [kcal/mol]       0.00492974 [kJ/mol]
      Disp20 (SS)                  -0.49861482 [mEh]      -0.31288552 [kcal/mol]      -1.30911302 [kJ/mol]
      Disp20 (OS)                  -0.49861482 [mEh]      -0.31288552 [kcal/mol]      -1.30911302 [kJ/mol]
      Exch-Disp20 (SS)              0.00142782 [mEh]       0.00089597 [kcal/mol]       0.00374873 [kJ/mol]
      Exch-Disp20 (OS)              0.00044982 [mEh]       0.00028227 [kcal/mol]       0.00118101 [kJ/mol]

  Total HF                          4.64434986 [mEh]       2.91437353 [kcal/mol]      12.19373887 [kJ/mol]
  Total SAPT0                       3.64899786 [mEh]       2.28978073 [kcal/mol]       9.58044256 [kJ/mol]

  Special recipe for scaled SAPT0 (see Manual):
    Electrostatics sSAPT0           9.73329641 [mEh]       6.10773571 [kcal/mol]      25.55476620 [kJ/mol]
    Exchange sSAPT0                 0.00171754 [mEh]       0.00107777 [kcal/mol]       0.00450940 [kJ/mol]
    Induction sSAPT0               -5.09066409 [mEh]      -3.19443995 [kcal/mol]     -13.36553674 [kJ/mol]
    Dispersion sSAPT0              -0.99535199 [mEh]      -0.62459281 [kcal/mol]      -2.61329630 [kJ/mol]
  Total sSAPT0                      3.64899786 [mEh]       2.28978073 [kcal/mol]       9.58044256 [kJ/mol]
  --------------------------------------------------------------------------------------------------------

*** Psi4 exiting successfully. Buy a developer a beer!
