                               Psi4 1.9 release

  ==> Input File <==

--------------------------------------------------------------------------
memory 32 GB # how much memory is available ! Depends on the nodes/cores !

molecule dimer {
# monomer A
-1 1    # Charge and multiplicity
B -1.977592e-04  2.742729e-04 3.000034
F  1.123153e-16  1.430594e-17 4.412819
F  1.147860e+00  6.757812e-01 2.528893
F  1.191806e-02 -1.332011e+00 2.529095
F -1.159666e+00  6.560735e-01 2.529174
--
# monomer B
0 1     # Charge and multiplicity
C   1.22531237526482      0.70753866091955      0.00613762728373
C   1.22532433589282     -0.70753852257020     -0.00619318228664
C   -0.00000567409046      1.41496628609039     -0.00672680580738
C   2.45644923379077      1.41832825917820      0.00902448468363
C   0.00001130712078     -1.41497612663474      0.00347275151708
C   -1.22530046906674      0.70754574598412      0.00838914760619
C   2.45643823516184     -1.41832293188077     -0.00843833914343
C   -0.00000085313587      2.83680140328112     -0.00913035594137
C   3.68182717731192      0.70931832800114     -0.00808954934571
C   2.45512052870677      2.83422403348893     -0.00819210630633
C   3.68182158506039     -0.70933346742900      0.00798293467272
C   -1.22531311884624     -0.70752714354401     -0.00512042085974
C   1.22670006104402      3.54346985599427      0.00816696660346
C   0.00000526469929     -2.83678176723568      0.00832091913869
C   -2.45643555300670      1.41831729028492      0.00842454345199
C   2.45512389762097     -2.83422965658853      0.00783102630520
C   -1.22671388474763      3.54346943575023      0.00827029982280
C   4.91451777504333      1.42717324448953     -0.00160886631602
C   3.69315067131765      3.54279566454522     -0.00155906667985
C   -2.45643712022637     -1.41831290883911     -0.00846337726810
C   1.22670532178455     -3.54347386990643     -0.00780316414624
C   -2.45512491866593      2.83421703463423     -0.00818572995999
C   4.91452486062398     -1.42718653794377      0.00136387641845
C   1.22142509354026      4.97013443726031      0.00150231067809
C   4.89300870916237      2.82518837202648     -0.00039219795739
C   -1.22669652864725     -3.54347062507680     -0.00753595973677
C   -3.68181849668397      0.70932533873199     -0.00807686886569
C   3.69314758099218     -3.54280096939050      0.00148176697923
C   -1.22143177215231      4.97012866986289      0.00168580605083
C   6.13477145276790      0.68054831910577     -0.00083909176631
C   3.65678936045204      4.97295361556775     -0.00065042889723
C   -2.45512642789169     -2.83421472106065      0.00758666850712
C   -3.68181869921921     -0.70932533146830      0.00810055625144
C   4.89301309775526     -2.82519973363176      0.00021895393805
C   -0.00000059327114      5.65044773803267      0.00045449734393
C   6.13477559217374     -0.68055448207492      0.00042622874941
C   2.47813196269732      5.65357712333155      0.00063835075260
C   1.22142288457925     -4.97012668293268     -0.00129718634452
C   -3.69316190412301      3.54279732619245     -0.00139355922051
C   -1.22142804110313     -4.97011793159564     -0.00140994817719
C   -4.91452132810043      1.42717581899491     -0.00153192130862
C   3.65678749952045     -4.97295485423912      0.00080007163680
C   -2.47813805026426      5.65357479452875      0.00092287576113
C   -3.69314125872231     -3.54278984697859      0.00136564082345
C   -4.91451200321153     -1.42718062802730      0.00139857359209
C   -0.00000552908399     -5.65043791501335      0.00005899322272
C   -4.89302000425900      2.82518897091939     -0.00040227981744
C   2.47812647313991     -5.65357317188818     -0.00029052915548
C   -3.65679823041642      4.97295655404175     -0.00047374852278
C   -4.89299899901461     -2.82519139505969      0.00006491824035
C   -2.47812801824129     -5.65356579800621     -0.00056571680280
C   -6.13477002348955      0.68054913825639     -0.00086464346868
C   -3.65678835334731     -4.97294365097028      0.00058578382008
C   -6.13476456307132     -0.68055354348201      0.00040575295444
H   5.83528897565761      3.36927626695423      0.00396712770529
H   7.07385965258860      1.22821762089947     -0.00037744837300
H   4.60066374401555      5.51238117445323     -0.00014522814529
H   5.83528386714679     -3.36930568472863     -0.00423551337640
H   -0.00001167146422      6.73853104613662     -0.00389474766392
H   7.07386165167227     -1.22822657074368     -0.00008250934481
H   2.47331421164041      6.74068466339473      0.00017162982210
H   4.60066897122302     -5.51237575717576      0.00039007446835
H   -2.47331820069565      6.74068209160650      0.00047297644710
H   -0.00000978838621     -6.73852780445195      0.00458867820736
H   -5.83530143450167      3.36927132229595      0.00410314985360
H   2.47330840367253     -6.74068500242887      0.00027980126949
H   -4.60067436136587      5.51237839860371      0.00002010017831
H   -5.83527902699321     -3.36928859177951     -0.00451481925734
H   -2.47329986759855     -6.74067870613986     -0.00016951527498
H   -7.07385728692578      1.22822084484047     -0.00046143985387
H   -4.60067330624313     -5.51236229778631      0.00021776644566
H   -7.07385645456741     -1.22822025997701     -0.00017736581114

    units angstrom      # Angstroms are the default
    no_reorient         # Geometry fixed, default
    symmetry c1         # C1 symmetry, default
}

set {
    scf_type DF         # Density fitting, faster than exact integrals
    freeze_core True    # Freeze core electrons
    basis jun-cc-pVDZ   # Jun-cc-pVDZ basis set, recommended for sSAPT0 in https://doi.org/10.1063/1.4867135
}

energy('ssapt0')        # Compute sSAPT0 energy, includes also SAPT0
--------------------------------------------------------------------------

  //              Dimer HF             //
    Molecular point group: c1
  Charge       = -1
  Multiplicity = 1
  Basis Set: JUN-CC-PVDZ
    Blend: JUN-CC-PVDZ
  Basis Set: (JUN-CC-PVDZ AUX)
    Blend: JUN-CC-PVDZ-JKFIT
  @DF-RHF Final Energy: -2478.64142268709702
    Total Energy =                      -2478.6414226870965649
 Dipole X            :         -0.0006554            0.0000481           -0.0006073
 Dipole Y            :          0.0013276           -0.0001453            0.0011823
 Dipole Z            :         15.0109129          -18.3908451           -3.3799322
 Magnitude           :                                                    3.3799325
  //            Monomer A HF           //
    Molecular point group: c1
  Multiplicity = 1
  Basis Set: JUN-CC-PVDZ
    Blend: JUN-CC-PVDZ
  Basis Set: (JUN-CC-PVDZ AUX)
    Blend: JUN-CC-PVDZ-JKFIT
  @DF-RHF Final Energy:  -422.77464218067871
    Total Energy =                       -422.7746421806787112
  //            Monomer B HF           //
    Molecular point group: c1

    Geometry (in Angstrom), charge = 0, multiplicity = 1:

       Center              X                  Y                   Z               Mass
    ------------   -----------------  -----------------  -----------------  -----------------
      Gh(B)          -0.000198161052     0.000273808717     2.653477207566    11.009305360000
      Gh(F)          -0.000000401852    -0.000000464183     4.066262207566    18.998403162730
      Gh(F)           1.147859598148     0.675780735817     2.182336207566    18.998403162730
      Gh(F)           0.011917658148    -1.332011464183     2.182538207566    18.998403162730
      Gh(F)          -1.159666401852     0.656073035817     2.182617207566    18.998403162730
         C            1.225311973413     0.707538196736    -0.340419165150    12.000000000000
         C            1.225323934041    -0.707538986754    -0.352749974720    12.000000000000
         C           -0.000006075942     1.414965821907    -0.353283598241    12.000000000000
         C            2.456448831939     1.418327794995    -0.337532307750    12.000000000000
         C            0.000010905269    -1.414976590818    -0.343084040916    12.000000000000
         C           -1.225300870919     0.707545281801    -0.338167644827    12.000000000000
         C            2.456437833310    -1.418323396064    -0.354995131577    12.000000000000
         C           -0.000001254988     2.836800939098    -0.355687148375    12.000000000000
         C            3.681826775460     0.709317863818    -0.354646341779    12.000000000000
         C            2.455120126855     2.834223569306    -0.354748898740    12.000000000000
         C            3.681821183209    -0.709333931612    -0.338573857761    12.000000000000
         C           -1.225313520698    -0.707527607727    -0.351677213293    12.000000000000
         C            1.226699659192     3.543469391811    -0.338389825830    12.000000000000
         C            0.000004862847    -2.836782231419    -0.338235873295    12.000000000000
         C           -2.456435954859     1.418316826102    -0.338132248982    12.000000000000
         C            2.455123495769    -2.834230120772    -0.338725766128    12.000000000000
         C           -1.226714286599     3.543468971567    -0.338286492611    12.000000000000
         C            4.914517373191     1.427172780306    -0.348165658750    12.000000000000
         C            3.693150269466     3.542795200362    -0.348115859113    12.000000000000
         C           -2.456437522078    -1.418313373022    -0.355020169702    12.000000000000
         C            1.226704919933    -3.543474334090    -0.354359956580    12.000000000000
         C           -2.455125320518     2.834216570451    -0.354742522394    12.000000000000
         C            4.914524458772    -1.427187002127    -0.345192916015    12.000000000000
         C            1.221424691688     4.970133973077    -0.345054481755    12.000000000000
         C            4.893008307311     2.825187907843    -0.346948990391    12.000000000000
         C           -1.226696930499    -3.543471089260    -0.354092752170    12.000000000000
         C           -3.681818898536     0.709324874549    -0.354633661299    12.000000000000
         C            3.693147179140    -3.542801433574    -0.345075025454    12.000000000000
         C           -1.221432174004     4.970128205680    -0.344870986383    12.000000000000
         C            6.134771050916     0.680547854922    -0.347395884200    12.000000000000
         C            3.656788958600     4.972953151384    -0.347207221331    12.000000000000
         C           -2.455126829744    -2.834215185244    -0.338970123926    12.000000000000
         C           -3.681819101071    -0.709325795652    -0.338456236182    12.000000000000
         C            4.893012695903    -2.825200197815    -0.346337838496    12.000000000000
         C           -0.000000995123     5.650447273849    -0.346102295090    12.000000000000
         C            6.134775190322    -0.680554946258    -0.346130563684    12.000000000000
         C            2.478131560845     5.653576659148    -0.345918441681    12.000000000000
         C            1.221422482727    -4.970127147116    -0.347853978778    12.000000000000
         C           -3.693162305975     3.542796862009    -0.347950351654    12.000000000000
         C           -1.221428442955    -4.970118395779    -0.347966740611    12.000000000000
         C           -4.914521729952     1.427175354812    -0.348088713742    12.000000000000
         C            3.656787097669    -4.972955318422    -0.345756720797    12.000000000000
         C           -2.478138452116     5.653574330345    -0.345633916672    12.000000000000
         C           -3.693141660574    -3.542790311162    -0.345191151610    12.000000000000
         C           -4.914512405063    -1.427181092211    -0.345158218841    12.000000000000
         C           -0.000005930936    -5.650438379197    -0.346497799211    12.000000000000
         C           -4.893020406111     2.825188506736    -0.346959072251    12.000000000000
         C            2.478126071288    -5.653573636072    -0.346847321589    12.000000000000
         C           -3.656798632268     4.972956089858    -0.347030540956    12.000000000000
         C           -4.892999400866    -2.825191859243    -0.346491874193    12.000000000000
         C           -2.478128420093    -5.653566262190    -0.347122509236    12.000000000000
         C           -6.134770425341     0.680548674073    -0.347421435902    12.000000000000
         C           -3.656788755199    -4.972944115154    -0.345971008613    12.000000000000
         C           -6.134764964923    -0.680554007665    -0.346151039479    12.000000000000
         H            5.835288573806     3.369275802771    -0.342589664728     1.007825032230
         H            7.073859250737     1.228217156716    -0.346934240807     1.007825032230
         H            4.600663342164     5.512380710270    -0.346702020579     1.007825032230
         H            5.835283465295    -3.369306148912    -0.350792305810     1.007825032230
         H           -0.000012073316     6.738530581953    -0.350451540097     1.007825032230
         H            7.073861249820    -1.228227034927    -0.346639301778     1.007825032230
         H            2.473313809789     6.740684199211    -0.346385162611     1.007825032230
         H            4.600668569371    -5.512376221359    -0.346166717965     1.007825032230
         H           -2.473318602548     6.740681627423    -0.346083815986     1.007825032230
         H           -0.000010190238    -6.738528268635    -0.341968114226     1.007825032230
         H           -5.835301836354     3.369270858113    -0.342453642580     1.007825032230
         H            2.473308001821    -6.740685466612    -0.346276991164     1.007825032230
         H           -4.600674763218     5.512377934420    -0.346536692255     1.007825032230
         H           -5.835279428845    -3.369289055963    -0.351071611691     1.007825032230
         H           -2.473300269450    -6.740679170323    -0.346726307709     1.007825032230
         H           -7.073857688778     1.228220380657    -0.347018232287     1.007825032230
         H           -4.600673708095    -5.512362761970    -0.346339025988     1.007825032230
         H           -7.073856856419    -1.228220724160    -0.346734158245     1.007825032230

  Charge       = 0
  Multiplicity = 1
  Basis Set: JUN-CC-PVDZ
    Blend: JUN-CC-PVDZ
  Basis Set: (JUN-CC-PVDZ AUX)
    Blend: JUN-CC-PVDZ-JKFIT

    Orbital Energies [Eh]
    ---------------------

    Doubly Occupied:

       1A    -11.260680     2A    -11.260229     3A    -11.260228
       4A    -11.259468     5A    -11.259468     6A    -11.259279
       7A    -11.259036     8A    -11.258965     9A    -11.258964
      10A    -11.258635    11A    -11.258632    12A    -11.258516
      13A    -11.258462    14A    -11.258459    15A    -11.258457
      16A    -11.258419    17A    -11.258412    18A    -11.258394
      19A    -11.258394    20A    -11.258393    21A    -11.258389
      22A    -11.258323    23A    -11.258318    24A    -11.258092
      25A    -11.257310    26A    -11.257252    27A    -11.257251
      28A    -11.257121    29A    -11.257120    30A    -11.257039
      31A    -11.256405    32A    -11.256337    33A    -11.256336
      34A    -11.256230    35A    -11.256229    36A    -11.256183
      37A    -11.252272    38A    -11.252272    39A    -11.252270
      40A    -11.252269    41A    -11.252267    42A    -11.252265
      43A    -11.251366    44A    -11.251364    45A    -11.251363
      46A    -11.251355    47A    -11.251354    48A    -11.251351
      49A    -11.250834    50A    -11.250833    51A    -11.250831
      52A    -11.250829    53A    -11.250827    54A    -11.250826
      55A     -1.243986    56A     -1.219766    57A     -1.219765
      58A     -1.189506    59A     -1.189498    60A     -1.180867
      61A     -1.157535    62A     -1.148942    63A     -1.135428
      64A     -1.135421    65A     -1.113167    66A     -1.113162
      67A     -1.082385    68A     -1.082378    69A     -1.078540
      70A     -1.065958    71A     -1.065954    72A     -1.039369
      73A     -1.024211    74A     -1.021690    75A     -1.021647
      76A     -1.017708    77A     -1.012776    78A     -0.986973
      79A     -0.986927    80A     -0.961849    81A     -0.961799
      82A     -0.894265    83A     -0.894238    84A     -0.887863
      85A     -0.886113    86A     -0.886055    87A     -0.881344
      88A     -0.881297    89A     -0.861872    90A     -0.837401
      91A     -0.818173    92A     -0.816549    93A     -0.812084
      94A     -0.812074    95A     -0.794664    96A     -0.794654
      97A     -0.746566    98A     -0.744806    99A     -0.733348
     100A     -0.733339   101A     -0.732154   102A     -0.732130
     103A     -0.716447   104A     -0.698946   105A     -0.698935
     106A     -0.693538   107A     -0.693523   108A     -0.661200
     109A     -0.653032   110A     -0.651088   111A     -0.650228
     112A     -0.650222   113A     -0.639333   114A     -0.639331
     115A     -0.629663   116A     -0.627469   117A     -0.627453
     118A     -0.606451   119A     -0.605802   120A     -0.601609
     121A     -0.599701   122A     -0.599670   123A     -0.593598
     124A     -0.591136   125A     -0.591125   126A     -0.585264
     127A     -0.576392   128A     -0.576386   129A     -0.567304
     130A     -0.567290   131A     -0.565894   132A     -0.565875
     133A     -0.558657   134A     -0.554810   135A     -0.554804
     136A     -0.538566   137A     -0.538564   138A     -0.538184
     139A     -0.538178   140A     -0.529685   141A     -0.528180
     142A     -0.522835   143A     -0.522829   144A     -0.500477
     145A     -0.495583   146A     -0.493205   147A     -0.487826
     148A     -0.485029   149A     -0.481712   150A     -0.481704
     151A     -0.470344   152A     -0.470326   153A     -0.450946
     154A     -0.450868   155A     -0.439058   156A     -0.439048
     157A     -0.404716   158A     -0.404693   159A     -0.403355
     160A     -0.375408   161A     -0.375405   162A     -0.349115
     163A     -0.337572   164A     -0.336526   165A     -0.336469
     166A     -0.311044   167A     -0.298106   168A     -0.284304
     169A     -0.284250   170A     -0.224874   171A     -0.224809

  @DF-RHF Final Energy: -2055.89431274793469

   => Energetics <=

    Nuclear Repulsion Energy =           6452.5568002797772351
    One-Electron Energy =              -15636.4935265506665019
    Two-Electron Energy =                7128.0424135229550302
    Total Energy =                      -2055.8943127479342365
 Dipole X            :          0.0000047            0.0000419            0.0000466
 Dipole Y            :          0.0000743           -0.0000426            0.0000318
 Dipole Z            :        223.9792053         -223.9763622            0.0028431
 Magnitude           :                                                    0.0028436

    SAPT Results
  --------------------------------------------------------------------------------------------------------
    Electrostatics                -14.76633314 [mEh]      -9.26601394 [kcal/mol]     -38.76900232 [kJ/mol]
      Elst10,r                    -14.76633314 [mEh]      -9.26601394 [kcal/mol]     -38.76900232 [kJ/mol]

    Exchange                       68.58024584 [mEh]      43.03475398 [kcal/mol]     180.05741064 [kJ/mol]
      Exch10                       68.58024584 [mEh]      43.03475398 [kcal/mol]     180.05741064 [kJ/mol]
      Exch10(S^2)                  68.02477901 [mEh]      42.68619328 [kcal/mol]     178.59903268 [kJ/mol]

    Induction                     -26.28167118 [mEh]     -16.49199765 [kcal/mol]     -69.00251818 [kJ/mol]
      Ind20,r                     -49.87255952 [mEh]     -31.29550358 [kcal/mol]    -130.94038697 [kJ/mol]
      Exch-Ind20,r                 28.76207133 [mEh]      18.04847224 [kcal/mol]      75.51480786 [kJ/mol]
      delta HF,r (2)               -5.17118299 [mEh]      -3.24496632 [kcal/mol]     -13.57693907 [kJ/mol]

    Dispersion                    -23.49751479 [mEh]     -14.74491314 [kcal/mol]     -61.69271658 [kJ/mol]
      Disp20                      -30.41471664 [mEh]     -19.08552284 [kcal/mol]     -79.85382755 [kJ/mol]
      Exch-Disp20                   6.91720186 [mEh]       4.34060970 [kcal/mol]      18.16111097 [kJ/mol]
      Disp20 (SS)                 -15.20735832 [mEh]      -9.54276142 [kcal/mol]     -39.92691377 [kJ/mol]
      Disp20 (OS)                 -15.20735832 [mEh]      -9.54276142 [kcal/mol]     -39.92691377 [kJ/mol]
      Exch-Disp20 (SS)              3.81994227 [mEh]       2.39704996 [kcal/mol]      10.02925705 [kJ/mol]
      Exch-Disp20 (OS)              3.09725959 [mEh]       1.94355973 [kcal/mol]       8.13185393 [kJ/mol]

  Total HF                         27.53224152 [mEh]      17.27674239 [kcal/mol]      72.28589014 [kJ/mol]
  Total SAPT0                       4.03472673 [mEh]       2.53182925 [kcal/mol]      10.59317357 [kJ/mol]

  Special recipe for scaled SAPT0 (see Manual):
    Electrostatics sSAPT0         -14.76633314 [mEh]      -9.26601394 [kcal/mol]     -38.76900232 [kJ/mol]
    Exchange sSAPT0                68.58024584 [mEh]      43.03475398 [kcal/mol]     180.05741064 [kJ/mol]
    Induction sSAPT0              -25.57131874 [mEh]     -16.04624477 [kcal/mol]     -67.13748810 [kJ/mol]
    Dispersion sSAPT0             -23.32667691 [mEh]     -14.63771075 [kcal/mol]     -61.24418179 [kJ/mol]
  Total sSAPT0                      4.91591705 [mEh]       3.08478452 [kcal/mol]      12.90673842 [kJ/mol]
  --------------------------------------------------------------------------------------------------------

*** Psi4 exiting successfully. Buy a developer a beer!
