                               Psi4 1.9 release

  ==> Input File <==

--------------------------------------------------------------------------
memory 48 GB # how much memory is available ! Depends on the nodes/cores !

molecule dimer {
# monomer A
+1 1    # Charge and multiplicity
C  0.680067 1.417258 -5.115929
C -0.680504 1.419286 -5.115545
N -1.085635 1.420284 -3.797221
C  0.000108 1.423560 -3.015820
C -2.477365 1.469690 -3.329242
N  1.085222 1.420284 -3.797221
H  1.385146 1.409430 -5.933368
H -1.385302 1.419096 -5.933214
H -0.000009 1.425307 -1.934731
C  2.478117 1.403392 -3.332123
H  2.490592 1.430737 -2.241870
H  2.967028 0.489946 -3.679299
H  3.001428 2.278875 -3.723595
H -2.857359 2.491761 -3.409201
H -3.082679 0.799606 -3.942306
H -2.518128 1.142706 -2.289294
--
# monomer B
0 1     # Charge and multiplicity
C   1.22531237526482      0.70753866091955      0.00613762728373
C   1.22532433589282     -0.70753852257020     -0.00619318228664
C   -0.00000567409046      1.41496628609039     -0.00672680580738
C   2.45644923379077      1.41832825917820      0.00902448468363
C   0.00001130712078     -1.41497612663474      0.00347275151708
C   -1.22530046906674      0.70754574598412      0.00838914760619
C   2.45643823516184     -1.41832293188077     -0.00843833914343
C   -0.00000085313587      2.83680140328112     -0.00913035594137
C   3.68182717731192      0.70931832800114     -0.00808954934571
C   2.45512052870677      2.83422403348893     -0.00819210630633
C   3.68182158506039     -0.70933346742900      0.00798293467272
C   -1.22531311884624     -0.70752714354401     -0.00512042085974
C   1.22670006104402      3.54346985599427      0.00816696660346
C   0.00000526469929     -2.83678176723568      0.00832091913869
C   -2.45643555300670      1.41831729028492      0.00842454345199
C   2.45512389762097     -2.83422965658853      0.00783102630520
C   -1.22671388474763      3.54346943575023      0.00827029982280
C   4.91451777504333      1.42717324448953     -0.00160886631602
C   3.69315067131765      3.54279566454522     -0.00155906667985
C   -2.45643712022637     -1.41831290883911     -0.00846337726810
C   1.22670532178455     -3.54347386990643     -0.00780316414624
C   -2.45512491866593      2.83421703463423     -0.00818572995999
C   4.91452486062398     -1.42718653794377      0.00136387641845
C   1.22142509354026      4.97013443726031      0.00150231067809
C   4.89300870916237      2.82518837202648     -0.00039219795739
C   -1.22669652864725     -3.54347062507680     -0.00753595973677
C   -3.68181849668397      0.70932533873199     -0.00807686886569
C   3.69314758099218     -3.54280096939050      0.00148176697923
C   -1.22143177215231      4.97012866986289      0.00168580605083
C   6.13477145276790      0.68054831910577     -0.00083909176631
C   3.65678936045204      4.97295361556775     -0.00065042889723
C   -2.45512642789169     -2.83421472106065      0.00758666850712
C   -3.68181869921921     -0.70932533146830      0.00810055625144
C   4.89301309775526     -2.82519973363176      0.00021895393805
C   -0.00000059327114      5.65044773803267      0.00045449734393
C   6.13477559217374     -0.68055448207492      0.00042622874941
C   2.47813196269732      5.65357712333155      0.00063835075260
C   1.22142288457925     -4.97012668293268     -0.00129718634452
C   -3.69316190412301      3.54279732619245     -0.00139355922051
C   -1.22142804110313     -4.97011793159564     -0.00140994817719
C   -4.91452132810043      1.42717581899491     -0.00153192130862
C   3.65678749952045     -4.97295485423912      0.00080007163680
C   -2.47813805026426      5.65357479452875      0.00092287576113
C   -3.69314125872231     -3.54278984697859      0.00136564082345
C   -4.91451200321153     -1.42718062802730      0.00139857359209
C   -0.00000552908399     -5.65043791501335      0.00005899322272
C   -4.89302000425900      2.82518897091939     -0.00040227981744
C   2.47812647313991     -5.65357317188818     -0.00029052915548
C   -3.65679823041642      4.97295655404175     -0.00047374852278
C   -4.89299899901461     -2.82519139505969      0.00006491824035
C   -2.47812801824129     -5.65356579800621     -0.00056571680280
C   -6.13477002348955      0.68054913825639     -0.00086464346868
C   -3.65678835334731     -4.97294365097028      0.00058578382008
C   -6.13476456307132     -0.68055354348201      0.00040575295444
H   5.83528897565761      3.36927626695423      0.00396712770529
H   7.07385965258860      1.22821762089947     -0.00037744837300
H   4.60066374401555      5.51238117445323     -0.00014522814529
H   5.83528386714679     -3.36930568472863     -0.00423551337640
H   -0.00001167146422      6.73853104613662     -0.00389474766392
H   7.07386165167227     -1.22822657074368     -0.00008250934481
H   2.47331421164041      6.74068466339473      0.00017162982210
H   4.60066897122302     -5.51237575717576      0.00039007446835
H   -2.47331820069565      6.74068209160650      0.00047297644710
H   -0.00000978838621     -6.73852780445195      0.00458867820736
H   -5.83530143450167      3.36927132229595      0.00410314985360
H   2.47330840367253     -6.74068500242887      0.00027980126949
H   -4.60067436136587      5.51237839860371      0.00002010017831
H   -5.83527902699321     -3.36928859177951     -0.00451481925734
H   -2.47329986759855     -6.74067870613986     -0.00016951527498
H   -7.07385728692578      1.22822084484047     -0.00046143985387
H   -4.60067330624313     -5.51236229778631      0.00021776644566
H   -7.07385645456741     -1.22822025997701     -0.00017736581114

    units angstrom      # Angstroms are the default
    no_reorient         # Geometry fixed, default
    symmetry c1         # C1 symmetry, default
}

set {
    scf_type DF         # Density fitting, faster than exact integrals
    freeze_core True    # Freeze core electrons
    basis jun-cc-pVDZ   # Jun-cc-pVDZ basis set, recommended for sSAPT0 in https://doi.org/10.1063/1.4867135
}

energy('ssapt0')        # Compute sSAPT0 energy, includes also SAPT0
--------------------------------------------------------------------------

  //              Dimer HF             //
    Molecular point group: c1
  Charge       = 1
  Multiplicity = 1
  Basis Set: JUN-CC-PVDZ
    Blend: JUN-CC-PVDZ
  Basis Set: (JUN-CC-PVDZ AUX)
    Blend: JUN-CC-PVDZ-JKFIT
  @DF-RHF Final Energy: -2359.19242620209025
    Total Energy =                      -2359.1924262020893366
 Dipole X            :         -0.0001817            0.0006313            0.0004496
 Dipole Y            :         -6.2234730            7.4856329            1.2621599
 Dipole Z            :         14.3477596          -18.4426655           -4.0949059
 Magnitude           :                                                    4.2850090
  //            Monomer A HF           //
    Molecular point group: c1
  Multiplicity = 1
  Basis Set: JUN-CC-PVDZ
    Blend: JUN-CC-PVDZ
  Basis Set: (JUN-CC-PVDZ AUX)
    Blend: JUN-CC-PVDZ-JKFIT
  @DF-RHF Final Energy:  -303.29856530555469
    Total Energy =                       -303.2985653055546891
  //            Monomer B HF           //
    Molecular point group: c1

    Geometry (in Angstrom), charge = 0, multiplicity = 1:

       Center              X                  Y                   Z               Mass
    ------------   -----------------  -----------------  -----------------  -----------------
      Gh(C)           0.680066520158     1.235968212970    -4.619875199228    12.000000000000
      Gh(C)          -0.680504479842     1.237996212970    -4.619491199228    12.000000000000
      Gh(N)          -1.085635479842     1.238994212970    -3.301167199228    14.003074004430
      Gh(C)           0.000107520158     1.242270212970    -2.519766199228    12.000000000000
      Gh(C)          -2.477365479842     1.288400212970    -2.833188199228    12.000000000000
      Gh(N)           1.085221520158     1.238994212970    -3.301167199228    14.003074004430
      Gh(H)           1.385145520158     1.228140212970    -5.437314199228     1.007825032230
      Gh(H)          -1.385302479842     1.237806212970    -5.437160199228     1.007825032230
      Gh(H)          -0.000009479842     1.244017212970    -1.438677199228     1.007825032230
      Gh(C)           2.478116520158     1.222102212970    -2.836069199228    12.000000000000
      Gh(H)           2.490591520158     1.249447212970    -1.745816199228     1.007825032230
      Gh(H)           2.967027520158     0.308656212970    -3.183245199228     1.007825032230
      Gh(H)           3.001427520158     2.097585212970    -3.227541199228     1.007825032230
      Gh(H)          -2.857359479842     2.310471212970    -2.913147199228     1.007825032230
      Gh(H)          -3.082679479842     0.618316212970    -3.446252199228     1.007825032230
      Gh(H)          -2.518128479842     0.961416212970    -1.793240199228     1.007825032230
         C            1.225311895423     0.526248873889     0.502191428055    12.000000000000
         C            1.225323856051    -0.888828309601     0.489860618485    12.000000000000
         C           -0.000006153932     1.233676499060     0.489326994964    12.000000000000
         C            2.456448753949     1.237038472148     0.505078285455    12.000000000000
         C            0.000010827279    -1.596265913665     0.499526552289    12.000000000000
         C           -1.225300948908     0.526255958954     0.504442948378    12.000000000000
         C            2.456437755320    -1.599612718911     0.487615461628    12.000000000000
         C           -0.000001332978     2.655511616251     0.486923444830    12.000000000000
         C            3.681826697470     0.528028540971     0.487964251426    12.000000000000
         C            2.455120048865     2.652934246459     0.487861694465    12.000000000000
         C            3.681821105219    -0.890623254459     0.504036735444    12.000000000000
         C           -1.225313598688    -0.888816930574     0.490933379912    12.000000000000
         C            1.226699581202     3.362180068964     0.504220767375    12.000000000000
         C            0.000004784858    -3.018071554266     0.504374719910    12.000000000000
         C           -2.456436032848     1.237027503255     0.504478344224    12.000000000000
         C            2.455123417779    -3.015519443619     0.503884827077    12.000000000000
         C           -1.226714364589     3.362179648720     0.504324100594    12.000000000000
         C            4.914517295202     1.245883457459     0.494444934456    12.000000000000
         C            3.693150191476     3.361505877515     0.494494734092    12.000000000000
         C           -2.456437600068    -1.599602695869     0.487590423504    12.000000000000
         C            1.226704841943    -3.724763656937     0.488250636625    12.000000000000
         C           -2.455125398508     2.652927247604     0.487868070812    12.000000000000
         C            4.914524380782    -1.608476324974     0.497417677190    12.000000000000
         C            1.221424613699     4.788844650230     0.497556111450    12.000000000000
         C            4.893008229321     2.643898584996     0.495661602814    12.000000000000
         C           -1.226697008489    -3.724760412107     0.488517841035    12.000000000000
         C           -3.681818976526     0.528035551702     0.487976931906    12.000000000000
         C            3.693147101150    -3.724090756421     0.497535567751    12.000000000000
         C           -1.221432251994     4.788838882833     0.497739606822    12.000000000000
         C            6.134770972926     0.499258532075     0.495214709005    12.000000000000
         C            3.656788880610     4.791663828537     0.495403371874    12.000000000000
         C           -2.455126907733    -3.015504508091     0.503640469279    12.000000000000
         C           -3.681819179061    -0.890615118499     0.504154357023    12.000000000000
         C            4.893012617914    -3.006489520662     0.496272754710    12.000000000000
         C           -0.000001073113     5.469157951002     0.496508298116    12.000000000000
         C            6.134775112332    -0.861844269105     0.496480029521    12.000000000000
         C            2.478131482856     5.472287336301     0.496692151524    12.000000000000
         C            1.221422404738    -5.151416469963     0.494756614427    12.000000000000
         C           -3.693162383965     3.361507539162     0.494660241551    12.000000000000
         C           -1.221428520945    -5.151407718626     0.494643852594    12.000000000000
         C           -4.914521807942     1.245886031965     0.494521879463    12.000000000000
         C            3.656787019679    -5.154244641269     0.496853872408    12.000000000000
         C           -2.478138530106     5.472285007498     0.496976676533    12.000000000000
         C           -3.693141738564    -3.724079634009     0.497419441595    12.000000000000
         C           -4.914512483053    -1.608470415058     0.497452374364    12.000000000000
         C           -0.000006008926    -5.831727702044     0.496112793994    12.000000000000
         C           -4.893020484101     2.643899183889     0.495651520954    12.000000000000
         C            2.478125993298    -5.834862958919     0.495763271616    12.000000000000
         C           -3.656798710258     4.791666767011     0.495580052249    12.000000000000
         C           -4.892999478856    -3.006481182090     0.496118719012    12.000000000000
         C           -2.478128498083    -5.834855585037     0.495488083969    12.000000000000
         C           -6.134770503331     0.499259351226     0.495189157303    12.000000000000
         C           -3.656788833189    -5.154233438001     0.496639584592    12.000000000000
         C           -6.134765042913    -0.861843330512     0.496459553726    12.000000000000
         H            5.835288495816     3.187986479924     0.500020928477     1.007825032230
         H            7.073859172747     1.046927833869     0.495676352399     1.007825032230
         H            4.600663264174     5.331091387423     0.495908572626     1.007825032230
         H            5.835283387305    -3.550595471759     0.491818287395     1.007825032230
         H           -0.000012151306     6.557241259106     0.492159053108     1.007825032230
         H            7.073861171831    -1.409516357774     0.495971291427     1.007825032230
         H            2.473313731799     6.559394876364     0.496225430594     1.007825032230
         H            4.600668491381    -5.693665544206     0.496443875240     1.007825032230
         H           -2.473318680537     6.559392304576     0.496526777219     1.007825032230
         H           -0.000010268228    -6.919817591482     0.500642478979     1.007825032230
         H           -5.835301914343     3.187981535266     0.500156950625     1.007825032230
         H            2.473307923831    -6.921974789459     0.496333602041     1.007825032230
         H           -4.600674841208     5.331088611573     0.496073900950     1.007825032230
         H           -5.835279506835    -3.550578378810     0.491538981514     1.007825032230
         H           -2.473300347440    -6.921968493170     0.495884285497     1.007825032230
         H           -7.073857766768     1.046931057810     0.495592360918     1.007825032230
         H           -4.600673786085    -5.693652084817     0.496271567217     1.007825032230
         H           -7.073856934409    -1.409510047007     0.495876434960     1.007825032230

  Charge       = 0
  Multiplicity = 1
  Basis Set: JUN-CC-PVDZ
    Blend: JUN-CC-PVDZ
  Basis Set: (JUN-CC-PVDZ AUX)
    Blend: JUN-CC-PVDZ-JKFIT

    Orbital Energies [Eh]
    ---------------------

    Doubly Occupied:

       1A    -11.260613     2A    -11.260101     3A    -11.260084
       4A    -11.259458     5A    -11.259378     6A    -11.259172
       7A    -11.259011     8A    -11.258928     9A    -11.258849
      10A    -11.258573    11A    -11.258523    12A    -11.258443
      13A    -11.258390    14A    -11.258379    15A    -11.258373
      16A    -11.258351    17A    -11.258340    18A    -11.258327
      19A    -11.258319    20A    -11.258300    21A    -11.258293
      22A    -11.258253    23A    -11.258223    24A    -11.257942
      25A    -11.257257    26A    -11.257212    27A    -11.257173
      28A    -11.257073    29A    -11.257060    30A    -11.256968
      31A    -11.256352    32A    -11.256292    33A    -11.256273
      34A    -11.256176    35A    -11.256173    36A    -11.256098
      37A    -11.252209    38A    -11.252206    39A    -11.252177
      40A    -11.252163    41A    -11.252139    42A    -11.252125
      43A    -11.251320    44A    -11.251306    45A    -11.251290
      46A    -11.251279    47A    -11.251276    48A    -11.251225
      49A    -11.250770    50A    -11.250766    51A    -11.250737
      52A    -11.250723    53A    -11.250700    54A    -11.250686
      55A     -1.243847    56A     -1.219622    57A     -1.219612
      58A     -1.189360    59A     -1.189351    60A     -1.180737
      61A     -1.157388    62A     -1.148801    63A     -1.135294
      64A     -1.135276    65A     -1.113026    66A     -1.113019
      67A     -1.082233    68A     -1.082222    69A     -1.078400
      70A     -1.065817    71A     -1.065811    72A     -1.039212
      73A     -1.024061    74A     -1.021553    75A     -1.021502
      76A     -1.017559    77A     -1.012636    78A     -0.986828
      79A     -0.986771    80A     -0.961707    81A     -0.961653
      82A     -0.894106    83A     -0.894084    84A     -0.887711
      85A     -0.885954    86A     -0.885915    87A     -0.881188
      88A     -0.881140    89A     -0.861716    90A     -0.837253
      91A     -0.818018    92A     -0.816398    93A     -0.811927
      94A     -0.811922    95A     -0.794512    96A     -0.794501
      97A     -0.746402    98A     -0.744645    99A     -0.733208
     100A     -0.733194   101A     -0.732000   102A     -0.731978
     103A     -0.716291   104A     -0.698792   105A     -0.698763
     106A     -0.693395   107A     -0.693358   108A     -0.661049
     109A     -0.652900   110A     -0.650938   111A     -0.650079
     112A     -0.650072   113A     -0.639181   114A     -0.639163
     115A     -0.629511   116A     -0.627310   117A     -0.627302
     118A     -0.606427   119A     -0.605666   120A     -0.601444
     121A     -0.599559   122A     -0.599501   123A     -0.593424
     124A     -0.590995   125A     -0.590965   126A     -0.585121
     127A     -0.576433   128A     -0.576325   129A     -0.567156
     130A     -0.567134   131A     -0.565745   132A     -0.565733
     133A     -0.558509   134A     -0.554668   135A     -0.554663
     136A     -0.538414   137A     -0.538411   138A     -0.538163
     139A     -0.538147   140A     -0.529518   141A     -0.528103
     142A     -0.522688   143A     -0.522662   144A     -0.500325
     145A     -0.495536   146A     -0.493052   147A     -0.487768
     148A     -0.484862   149A     -0.481549   150A     -0.481547
     151A     -0.470270   152A     -0.470254   153A     -0.450786
     154A     -0.450717   155A     -0.438997   156A     -0.438967
     157A     -0.404653   158A     -0.404638   159A     -0.403270
     160A     -0.375327   161A     -0.375323   162A     -0.349020
     163A     -0.337475   164A     -0.336415   165A     -0.336379
     166A     -0.310999   167A     -0.297997   168A     -0.284220
     169A     -0.284163   170A     -0.224791   171A     -0.224731

  @DF-RHF Final Energy: -2055.89577389436499

   => Energetics <=

    Nuclear Repulsion Energy =           6452.5568002797781446
    One-Electron Energy =              -15636.5358885246514546
    Two-Electron Energy =                7128.0833143505078624
    Total Energy =                      -2055.8957738943645381
 Dipole X            :          0.0009620           -0.0000085            0.0009535
 Dipole Y            :        117.1721739         -117.1648546            0.0073194
 Dipole Z            :       -320.5913165          320.5913498            0.0000334
 Magnitude           :                                                    0.0073813

    SAPT Results
  --------------------------------------------------------------------------------------------------------
    Electrostatics                -28.95919146 [mEh]     -18.17216699 [kcal/mol]     -76.03234669 [kJ/mol]
      Elst10,r                    -28.95919146 [mEh]     -18.17216699 [kcal/mol]     -76.03234669 [kJ/mol]

    Exchange                       59.62734743 [mEh]      37.41672541 [kcal/mol]     156.55157910 [kJ/mol]
      Exch10                       59.62734743 [mEh]      37.41672541 [kcal/mol]     156.55157910 [kJ/mol]
      Exch10(S^2)                  58.66394998 [mEh]      36.81218438 [kcal/mol]     154.02217944 [kJ/mol]

    Induction                     -28.75515814 [mEh]     -18.04413415 [kcal/mol]     -75.49665729 [kJ/mol]
      Ind20,r                     -36.72478817 [mEh]     -23.04515250 [kcal/mol]     -96.42091805 [kJ/mol]
      Exch-Ind20,r                 17.44913690 [mEh]      10.94949871 [kcal/mol]      45.81270262 [kJ/mol]
      delta HF,r (2)               -9.47950687 [mEh]      -5.94848037 [kcal/mol]     -24.88844186 [kJ/mol]

    Dispersion                    -36.19869363 [mEh]     -22.71502319 [kcal/mol]     -95.03965702 [kJ/mol]
      Disp20                      -40.11146662 [mEh]     -25.17032531 [kcal/mol]    -105.31264110 [kJ/mol]
      Exch-Disp20                   3.91277299 [mEh]       2.45530212 [kcal/mol]      10.27298408 [kJ/mol]
      Disp20 (SS)                 -20.05573331 [mEh]     -12.58516266 [kcal/mol]     -52.65632055 [kJ/mol]
      Disp20 (OS)                 -20.05573331 [mEh]     -12.58516266 [kcal/mol]     -52.65632055 [kJ/mol]
      Exch-Disp20 (SS)              2.39423600 [mEh]       1.50240577 [kcal/mol]       6.28606574 [kJ/mol]
      Exch-Disp20 (OS)              1.51853700 [mEh]       0.95289635 [kcal/mol]       3.98691834 [kJ/mol]

  Total HF                          1.91299783 [mEh]       1.20042426 [kcal/mol]       5.02257511 [kJ/mol]
  Total SAPT0                     -34.28569580 [mEh]     -21.51459893 [kcal/mol]     -90.01708191 [kJ/mol]

  Special recipe for scaled SAPT0 (see Manual):
    Electrostatics sSAPT0         -28.95919146 [mEh]     -18.17216699 [kcal/mol]     -76.03234669 [kJ/mol]
    Exchange sSAPT0                59.62734743 [mEh]      37.41672541 [kcal/mol]     156.55157910 [kJ/mol]
    Induction sSAPT0              -27.88129787 [mEh]     -17.49577856 [kcal/mol]     -73.20233748 [kJ/mol]
    Dispersion sSAPT0             -36.00274027 [mEh]     -22.59206060 [kcal/mol]     -94.52518157 [kJ/mol]
  Total sSAPT0                    -33.21588218 [mEh]     -20.84328075 [kcal/mol]     -87.20828665 [kJ/mol]
  --------------------------------------------------------------------------------------------------------

*** Psi4 exiting successfully. Buy a developer a beer!
