                               Psi4 1.9 release

  ==> Input File <==

--------------------------------------------------------------------------
memory 80 GB # how much memory is available ! Depends on the nodes/cores !

molecule dimer {
# monomer A
-1 1    # Charge and multiplicity
B -1.977592e-04  2.742729e-04 -3.299966
F  1.123153e-16  1.430594e-17 -1.887181
F  1.147860e+00  6.757812e-01 -3.771107
F  1.191806e-02 -1.332011e+00 -3.770905
F -1.159666e+00  6.560735e-01 -3.770826
--
# monomer B
0 1     # Charge and multiplicity
C   -3.66844126402057      7.80375217008252      0.00190004133558
C   -4.84759871934653      7.13124183134024     -0.00046653359696
C   -4.89495929917518      5.69633040353158     -0.00103944469517
C   -3.65374067877320      4.98073034095895      0.00662099703436
C   -2.40942512149445      7.11398103667468      0.00209438359570
C   -2.42547734410473      5.68112195090346     -0.00491050527438
C   -1.19474401643570      7.78614419430947      0.00356656413763
C   0.03795902893699      7.09942164575698      0.00139585983271
C   0.03033258741920      5.66948955970466     -0.00408752508301
C   -1.20098450790502      4.96927034791531      0.00488220885047
C   1.27795782581485      7.77285944319479      0.00277170839332
C   2.48535808472416      7.08769688523756      0.00049722048857
C   2.48612868491717      5.65477081024076     -0.00644052849921
C   1.25408291964399      4.95607811366431      0.00518741308898
C   3.75171459140595      7.76391215098033      0.00062407186893
C   4.92356605618520      7.07878077698995     -0.00143240883900
C   4.95560727132542      5.64344746336949     -0.00159282164606
C   3.70680153420475      4.94121020833308      0.00349873852374
H   -3.65852113775815      8.89082741913536      0.00358502958574
H   -1.18921332975660      8.87412108735996      0.00753844057883
H   1.28429423888630      8.86083343548850      0.00693053253426
H   3.75354208679975      8.85103527897216      0.00214659618464
H   5.86995870320703      7.61379483465560     -0.00235777588134
H   -5.78823170750226      7.67630221293400     -0.00202638095293
C   -6.09197395869619      4.99326001364347     -0.00291168518608
C   -6.12866148031747      3.58258016879823     -0.00171050815740
C   -3.66457974004527      3.56418217974434     -0.00463560277484
C   -4.89429820469869      2.86108077590057      0.00453338221034
C   -2.43733499489796      2.84761165708481      0.00719617576166
C   -1.20922785759670      3.54788693497833     -0.00648285103018
C   1.24714157216223      3.53468075142962     -0.00729145743546
C   0.01517603956900      2.83311183930540      0.00439272578912
C   2.46764517244071      2.82128997725533      0.00449278391269
C   3.70254947457969      3.52466015442405     -0.00899517692985
C   6.14498038638375      4.92757236613191     -0.00282626685777
C   6.16658835886151      3.51658447594213     -0.00065971342101
C   4.92460995845939      2.80840792535402      0.00587903281610
H   7.08990550964105      5.46688776622306     -0.00658814770723
H   -7.03104175110130      5.54268795285765     -0.00714490013730
C   -7.33969804112295      2.85841153457957     -0.00333767559888
C   -7.36488195805880      1.47032337158330     -0.00157213747140
C   -4.90350460894690      1.44442681216000     -0.00628840166334
C   -6.13225715261081      0.73993935705394      0.00600164231964
C   -3.67687480051673      0.72669714267312      0.00433931473643
C   -2.44565658606518      1.42964113326212     -0.00597039546461
C   -1.22360068130162      0.71532450163492      0.00545886906656
C   0.00763786931376      1.41738314923765      0.00392452278437
C   1.23121980774686      0.70211669058719     -0.01490206287210
C   2.46082110053113      1.40329203612573      0.00460244601878
C   3.68443025419614      0.68719842821222      0.00377365974158
C   4.91870890153864      1.39173456118907     -0.00862816189375
C   7.36980207796101      2.77948220318441     -0.00242013321349
C   7.38016266612146      1.39121750785509     -0.00087345036788
C   6.13979953912259      0.67411862320065      0.00545489144369
H   -8.27919079934664      3.40711804112415     -0.00763522772059
H   8.31511347147953      3.31811809662368     -0.00663070901292
C   -8.59175593758115      0.72483255304480     -0.00123170985383
C   -8.59902460370342     -0.63263980622873      0.00089141472904
C   -6.13981313911873     -0.67413663715361     -0.00609792660607
C   -7.38018411213749     -1.39126618958160      0.00131813493501
C   -4.91868448025621     -1.39175501803000      0.00624257154343
C   -3.68443829568458     -0.68723731573599     -0.00478966852105
C   -2.46081704024768     -1.40334517882457      0.00575341766833
C   -1.23116201232071     -0.70217386488055     -0.00636696112346
C   -0.00756962538737     -1.41741884941102      0.00108956317991
C   1.22364771588843     -0.71527537726392      0.01109518512883
C   2.44567064933149     -1.42964328900682     -0.00065482763106
C   3.67686670284649     -0.72670743155550     -0.00479541202602
C   6.13224884641929     -0.73997883984993     -0.00632338623858
C   4.90351914550401     -1.44445752054090      0.00751768830159
C   8.59901484869081      0.63260386666793     -0.00101133422380
C   8.59174548810050     -0.72485086719319      0.00072504603735
C   7.36486276438985     -1.47033266560598      0.00049486934466
H   -9.52830597181814      1.27684744919284     -0.00270163681798
H   9.54141097460619      1.17457248844457     -0.00206336648518
C   -7.36983790976868     -2.77954514593389      0.00312634335708
C   -4.92459910905015     -2.80843725734101     -0.00460528907921
C   -6.16662249566744     -3.51665219282533      0.00169655107992
C   -3.70251035970491     -3.52468154912026      0.00571878010666
C   -2.46764698511392     -2.82132596280400     -0.00632585824990
C   -0.01513347410770     -2.83314164539971     -0.00604426974092
C   -1.24712184122656     -3.53473217556300      0.00551968366725
C   1.20924506964357     -3.54791467864352      0.00805871345849
C   2.43733602215464     -2.84764173817541     -0.00608104485234
C   4.89430234377080     -2.86112296828604     -0.00526030478103
C   3.66461525504104     -3.56421984553201      0.00761911515957
C   6.12863901474565     -3.58258405771778      0.00096495711699
C   7.33967266469532     -2.85841330737039      0.00248018319869
H   -9.54144911125902     -1.17456346666430      0.00226083090216
H   9.52826186807155     -1.27691907390448      0.00197485379837
H   -8.31516504384864     -3.31814985321231      0.00729857188773
H   8.27915514249207     -3.40714078989363      0.00681973918158
C   -6.14499418870218     -4.92764727278338      0.00302254913999
C   -3.70678334799751     -4.94126171411716     -0.00679841894792
C   -4.95559005800169     -5.64349397349412      0.00116871569699
C   -2.48612132622665     -5.65478557440947      0.00614125209662
C   -1.25405833548005     -4.95612205000132     -0.00503435388927
C   1.20101257386816     -4.96928038819302     -0.00385322963129
C   -0.03033667441341     -5.66952030313900      0.00398997003238
C   3.65375010132847     -4.98074377541453     -0.00309522988330
C   2.42549269587528     -5.68117463552727      0.00628170066869
C   6.09196561781097     -4.99325796338655      0.00325918379042
C   4.89497644461045     -5.69634842095790      0.00202298796027
H   -7.08989238804069     -5.46699984223871      0.00742531082125
H   7.03105520920009     -5.54265853633254      0.00683896355417
C   -4.92354532219813     -7.07882109967734      0.00061394679214
C   -2.48534208823777     -7.08772807792913     -0.00189594564379
C   -3.75168589177895     -7.76394715763627     -0.00170126671874
C   -0.03794895698805     -7.09946487446944     -0.00168022049625
C   -1.27795610040136     -7.77290438466689     -0.00366491325785
C   2.40944432072629     -7.11402201200282     -0.00081701968533
C   1.19474993715296     -7.78618536556242     -0.00296931056689
C   4.84762105249800     -7.13126211057943      0.00168979497423
C   3.66847160587561     -7.80378799294376     -0.00065863938960
H   -5.86994035041618     -7.61383059804164      0.00215798365757
H   5.78824962538815     -7.67633218931421      0.00281691445618
H   -3.75352693944918     -8.85107156923607     -0.00353718114765
H   -1.28430440589466     -8.86087539249706     -0.00809229711623
H   1.18922157469537     -8.87416062058945     -0.00706194725726
H   3.65854661482387     -8.89086063405326     -0.00231318081200

    units angstrom      # Angstroms are the default
    no_reorient         # Geometry fixed, default
    symmetry c1         # C1 symmetry, default
}

set {
    scf_type DF         # Density fitting, faster than exact integrals
    freeze_core True    # Freeze core electrons
    basis jun-cc-pVDZ   # Jun-cc-pVDZ basis set, recommended for sSAPT0 in https://doi.org/10.1063/1.4867135
}

energy('ssapt0')        # Compute sSAPT0 energy, includes also SAPT0
--------------------------------------------------------------------------

  //              Dimer HF             //
    Molecular point group: c1
  Charge       = -1
  Multiplicity = 1
  Basis Set: JUN-CC-PVDZ
    Blend: JUN-CC-PVDZ
  Basis Set: (JUN-CC-PVDZ AUX)
    Blend: JUN-CC-PVDZ-JKFIT
  @DF-RHF Final Energy: -4073.06891548304338
    Total Energy =                      -4073.0689154830433836
 Dipole X            :          0.0007060           -0.0000548            0.0006513
 Dipole Y            :          0.0005758           -0.0002464            0.0003294
 Dipole Z            :        -15.5305095           19.6383606            4.1078511
 Magnitude           :                                                    4.1078512
  //            Monomer A HF           //
    Molecular point group: c1
  Multiplicity = 1
  Basis Set: JUN-CC-PVDZ
    Blend: JUN-CC-PVDZ
  Basis Set: (JUN-CC-PVDZ AUX)
    Blend: JUN-CC-PVDZ-JKFIT
  @DF-RHF Final Energy:  -422.77437211967998
    Total Energy =                       -422.7743721196799811
  //            Monomer B HF           //
    Molecular point group: c1

    Geometry (in Angstrom), charge = 0, multiplicity = 1:

       Center              X                  Y                   Z               Mass
    ------------   -----------------  -----------------  -----------------  -----------------
      Gh(B)          -0.000201921932     0.000288800891    -3.072679917379    11.009305360000
      Gh(F)          -0.000004162732     0.000014527991    -1.659894917379    18.998403162730
      Gh(F)           1.147855837268     0.675795727991    -3.543820917379    18.998403162730
      Gh(F)           0.011913897268    -1.331996472009    -3.543618917379    18.998403162730
      Gh(F)          -1.159670162732     0.656088027991    -3.543539917379    18.998403162730
         C           -3.668445426752     7.803766698073     0.229186123956    12.000000000000
         C           -4.847602882078     7.131256359331     0.226819549024    12.000000000000
         C           -4.894963461907     5.696344931522     0.226246637926    12.000000000000
         C           -3.653744841505     4.980744868950     0.233907079655    12.000000000000
         C           -2.409429284226     7.113995564665     0.229380466216    12.000000000000
         C           -2.425481506836     5.681136478894     0.222375577346    12.000000000000
         C           -1.194748179167     7.786158722300     0.230852646758    12.000000000000
         C            0.037954866205     7.099436173748     0.228681942453    12.000000000000
         C            0.030328424687     5.669504087695     0.223198557538    12.000000000000
         C           -1.200988670637     4.969284875906     0.232168291471    12.000000000000
         C            1.277953663083     7.772873971185     0.230057791014    12.000000000000
         C            2.485353921992     7.087711413228     0.227783303109    12.000000000000
         C            2.486124522185     5.654785338231     0.220845554122    12.000000000000
         C            1.254078756912     4.956092641655     0.232473495710    12.000000000000
         C            3.751710428674     7.763926678971     0.227910154490    12.000000000000
         C            4.923561893453     7.078795304981     0.225853673782    12.000000000000
         C            4.955603108594     5.643461991360     0.225693260975    12.000000000000
         C            3.706797371473     4.941224736324     0.230784821144    12.000000000000
         H           -3.658525300490     8.890841947126     0.230871112206     1.007825032230
         H           -1.189217492488     8.874135615351     0.234824523200     1.007825032230
         H            1.284290076155     8.860847963479     0.234216615155     1.007825032230
         H            3.753537924068     8.851049806963     0.229432678805     1.007825032230
         H            5.869954540475     7.613809362646     0.224928306739     1.007825032230
         H           -5.788235870234     7.676316740925     0.225259701668     1.007825032230
         C           -6.091978121428     4.993274541634     0.224374397435    12.000000000000
         C           -6.128665643049     3.582594696789     0.225575574463    12.000000000000
         C           -3.664583902777     3.564196707735     0.222650479846    12.000000000000
         C           -4.894302367430     2.861095303891     0.231819464831    12.000000000000
         C           -2.437339157630     2.847626185075     0.234482258382    12.000000000000
         C           -1.209232020328     3.547901462969     0.220803231591    12.000000000000
         C            1.247137409430     3.534695279420     0.219994625185    12.000000000000
         C            0.015171876837     2.833126367296     0.231678808410    12.000000000000
         C            2.467641009709     2.821304505246     0.231778866533    12.000000000000
         C            3.702545311848     3.524674682415     0.218290905691    12.000000000000
         C            6.144976223652     4.927586894122     0.224459815763    12.000000000000
         C            6.166584196130     3.516599003933     0.226626369200    12.000000000000
         C            4.924605795728     2.808422453345     0.233165115437    12.000000000000
         H            7.089901346909     5.466902294214     0.220697934914     1.007825032230
         H           -7.031045913833     5.542702480848     0.220141182483     1.007825032230
         C           -7.339702203855     2.858426062570     0.223948407022    12.000000000000
         C           -7.364886120791     1.470337899574     0.225713945149    12.000000000000
         C           -4.903508771679     1.444441340151     0.220997680957    12.000000000000
         C           -6.132261315343     0.739953885044     0.233287724940    12.000000000000
         C           -3.676878963248     0.726711670664     0.231625397357    12.000000000000
         C           -2.445660748797     1.429655661253     0.221315687156    12.000000000000
         C           -1.223604844033     0.715339029625     0.232744951687    12.000000000000
         C            0.007633706582     1.417397677228     0.231210605405    12.000000000000
         C            1.231215645015     0.702131218578     0.212384019749    12.000000000000
         C            2.460816937799     1.403306564116     0.231888528640    12.000000000000
         C            3.684426091464     0.687212956203     0.231059742362    12.000000000000
         C            4.918704738807     1.391749089180     0.218657920727    12.000000000000
         C            7.369797915229     2.779496731175     0.224865949407    12.000000000000
         C            7.380158503390     1.391232035846     0.226412632253    12.000000000000
         C            6.139795376391     0.674133151191     0.232740974064    12.000000000000
         H           -8.279194962078     3.407132569115     0.219650854900     1.007825032230
         H            8.315109308748     3.318132624614     0.220655373608     1.007825032230
         C           -8.591760100313     0.724847081035     0.226054372767    12.000000000000
         C           -8.599028766435    -0.632625278238     0.228177497350    12.000000000000
         C           -6.139817301850    -0.674122109163     0.221188156015    12.000000000000
         C           -7.380188274869    -1.391251661591     0.228604217556    12.000000000000
         C           -4.918688642988    -1.391740490039     0.233528654164    12.000000000000
         C           -3.684442458416    -0.687222787745     0.222496414100    12.000000000000
         C           -2.460821202979    -1.403330650834     0.233039500289    12.000000000000
         C           -1.231166175052    -0.702159336890     0.220919121497    12.000000000000
         C           -0.007573788119    -1.417404321420     0.228375645801    12.000000000000
         C            1.223643553157    -0.715260849273     0.238381267750    12.000000000000
         C            2.445666486600    -1.429628761016     0.226631254990    12.000000000000
         C            3.676862540115    -0.726692903565     0.222490670595    12.000000000000
         C            6.132244683688    -0.739964311859     0.220962696382    12.000000000000
         C            4.903514982772    -1.444442992550     0.234803770922    12.000000000000
         C            8.599010685959     0.632618394658     0.226274748397    12.000000000000
         C            8.591741325369    -0.724836339203     0.228011128658    12.000000000000
         C            7.364858601658    -1.470318137615     0.227780951965    12.000000000000
         H           -9.528310134550     1.276861977183     0.224584445803     1.007825032230
         H            9.541406811874     1.174587016435     0.225222716136     1.007825032230
         C           -7.369842072500    -2.779530617943     0.230412425978    12.000000000000
         C           -4.924603271782    -2.808422729350     0.222680793542    12.000000000000
         C           -6.166626658399    -3.516637664835     0.228982633701    12.000000000000
         C           -3.702514522437    -3.524667021130     0.233004862727    12.000000000000
         C           -2.467651147846    -2.821311434813     0.220960224371    12.000000000000
         C           -0.015137636839    -2.833127117409     0.221241812880    12.000000000000
         C           -1.247126003958    -3.534717647572     0.232805766288    12.000000000000
         C            1.209240906912    -3.547900150653     0.235344796079    12.000000000000
         C            2.437331859423    -2.847627210185     0.221205037768    12.000000000000
         C            4.894298181039    -2.861108440295     0.222025777840    12.000000000000
         C            3.664611092309    -3.564205317541     0.234905197780    12.000000000000
         C            6.128634852014    -3.582569529727     0.228251039738    12.000000000000
         C            7.339668501964    -2.858398779380     0.229766265819    12.000000000000
         H           -9.541453273991    -1.174548938674     0.229546913523     1.007825032230
         H            9.528257705340    -1.276904545914     0.229260936419     1.007825032230
         H           -8.315169206580    -3.318135325222     0.234584654508     1.007825032230
         H            8.279150979760    -3.407126261903     0.234105821802     1.007825032230
         C           -6.144998351434    -4.927632744793     0.230308631761    12.000000000000
         C           -3.706787510729    -4.941247186127     0.220487663673    12.000000000000
         C           -4.955594220733    -5.643479445504     0.228454798318    12.000000000000
         C           -2.486125488958    -5.654771046419     0.233427334717    12.000000000000
         C           -1.254062498212    -4.956107522011     0.222251728731    12.000000000000
         C            1.201008411136    -4.969265860202     0.223432852989    12.000000000000
         C           -0.030340837145    -5.669505775148     0.231276052653    12.000000000000
         C            3.653745938597    -4.980729247424     0.224190852737    12.000000000000
         C            2.425488533144    -5.681160107537     0.233567783289    12.000000000000
         C            6.091961455079    -4.993243435396     0.230545266411    12.000000000000
         C            4.894972281879    -5.696333892967     0.229309070581    12.000000000000
         H           -7.089896550772    -5.466985314248     0.234711393442     1.007825032230
         H            7.031051046468    -5.542644008342     0.234125046175     1.007825032230
         C           -4.923549484930    -7.078806571687     0.227900029413    12.000000000000
         C           -2.485346250970    -7.087713549939     0.225390136977    12.000000000000
         C           -3.751690054511    -7.763932629646     0.225584815902    12.000000000000
         C           -0.037953119720    -7.099450346479     0.225605862125    12.000000000000
         C           -1.277960263133    -7.772889856676     0.223621169363    12.000000000000
         C            2.409440157995    -7.114007484012     0.226469062935    12.000000000000
         C            1.194745774421    -7.786170837572     0.224316772054    12.000000000000
         C            4.847616889766    -7.131247582589     0.228975877595    12.000000000000
         C            3.668467443144    -7.803773464953     0.226627443231    12.000000000000
         H           -5.869944513148    -7.613816070051     0.229444066278     1.007825032230
         H            5.788245462656    -7.676317661324     0.230102997077     1.007825032230
         H           -3.753531102181    -8.851057041246     0.223748901473     1.007825032230
         H           -1.284308568626    -8.860860864507     0.219193785505     1.007825032230
         H            1.189217411964    -8.874146092599     0.220224135363     1.007825032230
         H            3.658542452092    -8.890846106063     0.224972901809     1.007825032230

  Charge       = 0
  Multiplicity = 1
  Basis Set: JUN-CC-PVDZ
    Blend: JUN-CC-PVDZ
  Basis Set: (JUN-CC-PVDZ AUX)
    Blend: JUN-CC-PVDZ-JKFIT

    Orbital Energies [Eh]
    ---------------------

    Doubly Occupied:

       1A    -11.264152     2A    -11.263774     3A    -11.263761
       4A    -11.263305     5A    -11.263302     6A    -11.263265
       7A    -11.263132     8A    -11.263127     9A    -11.263111
      10A    -11.262869    11A    -11.262761    12A    -11.262756
      13A    -11.262265    14A    -11.262255    15A    -11.262252
      16A    -11.262249    17A    -11.262125    18A    -11.262114
      19A    -11.262066    20A    -11.262028    21A    -11.262025
      22A    -11.261935    23A    -11.261931    24A    -11.261769
      25A    -11.261757    26A    -11.261733    27A    -11.261724
      28A    -11.261692    29A    -11.261683    30A    -11.261593
      31A    -11.261585    32A    -11.261564    33A    -11.261561
      34A    -11.261531    35A    -11.261528    36A    -11.261506
      37A    -11.261340    38A    -11.261332    39A    -11.261327
      40A    -11.261321    41A    -11.261316    42A    -11.261312
      43A    -11.261294    44A    -11.261276    45A    -11.261272
      46A    -11.261249    47A    -11.261246    48A    -11.261240
      49A    -11.261053    50A    -11.261019    51A    -11.261016
      52A    -11.260938    53A    -11.260937    54A    -11.260882
      55A    -11.259925    56A    -11.259912    57A    -11.259909
      58A    -11.259880    59A    -11.259878    60A    -11.259862
      61A    -11.259296    62A    -11.259271    63A    -11.259268
      64A    -11.259216    65A    -11.259213    66A    -11.259183
      67A    -11.258928    68A    -11.258910    69A    -11.258908
      70A    -11.258879    71A    -11.258877    72A    -11.258865
      73A    -11.254538    74A    -11.254536    75A    -11.254532
      76A    -11.254531    77A    -11.254530    78A    -11.254529
      79A    -11.253662    80A    -11.253662    81A    -11.253660
      82A    -11.253658    83A    -11.253656    84A    -11.253654
      85A    -11.253578    86A    -11.253577    87A    -11.253575
      88A    -11.253574    89A    -11.253571    90A    -11.253570
      91A    -11.253065    92A    -11.253064    93A    -11.253059
      94A    -11.253059    95A    -11.253058    96A    -11.253057
      97A     -1.253924    98A     -1.238991    99A     -1.238990
     100A     -1.220468   101A     -1.220463   102A     -1.215429
     103A     -1.201050   104A     -1.195612   105A     -1.188122
     106A     -1.188120   107A     -1.173773   108A     -1.173770
     109A     -1.155619   110A     -1.155614   111A     -1.152713
     112A     -1.144732   113A     -1.144729   114A     -1.128566
     115A     -1.114706   116A     -1.113172   117A     -1.112468
     118A     -1.112454   119A     -1.111629   120A     -1.088426
     121A     -1.088411   122A     -1.076970   123A     -1.076969
     124A     -1.067607   125A     -1.067577   126A     -1.064971
     127A     -1.046805   128A     -1.046798   129A     -1.040478
     130A     -1.038743   131A     -1.038742   132A     -1.025225
     133A     -1.021371   134A     -1.021321   135A     -1.007187
     136A     -1.006815   137A     -1.003796   138A     -1.000478
     139A     -1.000430   140A     -0.991082   141A     -0.970988
     142A     -0.970940   143A     -0.955886   144A     -0.955831
     145A     -0.905575   146A     -0.905559   147A     -0.905533
     148A     -0.905519   149A     -0.904326   150A     -0.892359
     151A     -0.892300   152A     -0.890353   153A     -0.890296
     154A     -0.889450   155A     -0.872225   156A     -0.869066
     157A     -0.851543   158A     -0.847862   159A     -0.847840
     160A     -0.845585   161A     -0.843016   162A     -0.834567
     163A     -0.834554   164A     -0.828122   165A     -0.828119
     166A     -0.784550   167A     -0.784538   168A     -0.783653
     169A     -0.783627   170A     -0.782285   171A     -0.782265
     172A     -0.782031   173A     -0.766996   174A     -0.760790
     175A     -0.750555   176A     -0.733489   177A     -0.727073
     178A     -0.727059   179A     -0.725080   180A     -0.724544
     181A     -0.724525   182A     -0.718469   183A     -0.713764
     184A     -0.713758   185A     -0.699573   186A     -0.699561
     187A     -0.686115   188A     -0.685962   189A     -0.685959
     190A     -0.682178   191A     -0.682167   192A     -0.678758
     193A     -0.653619   194A     -0.650869   195A     -0.650839
     196A     -0.649800   197A     -0.649785   198A     -0.649572
     199A     -0.640915   200A     -0.640888   201A     -0.640092
     202A     -0.639169   203A     -0.636008   204A     -0.635981
     205A     -0.629141   206A     -0.617735   207A     -0.615307
     208A     -0.615287   209A     -0.608803   210A     -0.608797
     211A     -0.599115   212A     -0.599080   213A     -0.598741
     214A     -0.598603   215A     -0.598579   216A     -0.598016
     217A     -0.595069   218A     -0.595057   219A     -0.594717
     220A     -0.594214   221A     -0.591947   222A     -0.591944
     223A     -0.587371   224A     -0.577801   225A     -0.577791
     226A     -0.575652   227A     -0.575649   228A     -0.573383
     229A     -0.569588   230A     -0.568128   231A     -0.568105
     232A     -0.566748   233A     -0.566737   234A     -0.560919
     235A     -0.558707   236A     -0.558688   237A     -0.558431
     238A     -0.554363   239A     -0.550548   240A     -0.547480
     241A     -0.544259   242A     -0.535013   243A     -0.534976
     244A     -0.533531   245A     -0.533510   246A     -0.528078
     247A     -0.528063   248A     -0.527774   249A     -0.517147
     250A     -0.517113   251A     -0.515348   252A     -0.515343
     253A     -0.509643   254A     -0.509627   255A     -0.498027
     256A     -0.496445   257A     -0.496419   258A     -0.493754
     259A     -0.493742   260A     -0.489445   261A     -0.481452
     262A     -0.477417   263A     -0.477414   264A     -0.473993
     265A     -0.469434   266A     -0.466519   267A     -0.466514
     268A     -0.458780   269A     -0.446666   270A     -0.446606
     271A     -0.441015   272A     -0.440782   273A     -0.440757
     274A     -0.434685   275A     -0.433905   276A     -0.407357
     277A     -0.407332   278A     -0.386374   279A     -0.386326
     280A     -0.385734   281A     -0.385733   282A     -0.383732
     283A     -0.354329   284A     -0.354313   285A     -0.350637
     286A     -0.338036   287A     -0.335578   288A     -0.335509
     289A     -0.332708   290A     -0.332702   291A     -0.307034
     292A     -0.301897   293A     -0.301834   294A     -0.300848
     295A     -0.286154   296A     -0.256469   297A     -0.253460
     298A     -0.253408   299A     -0.204247   300A     -0.204158

  @DF-RHF Final Energy: -3650.34003210316814

   => Energetics <=

    Nuclear Repulsion Energy =          15611.4211649754324753
    One-Electron Energy =              -36072.1477581288709189
    Two-Electron Energy =               16810.3865610502689378
    Total Energy =                      -3650.3400321031695057
 Dipole X            :          0.0002826            0.0002304            0.0005131
 Dipole Y            :          0.0014186           -0.0013052            0.0001134
 Dipole Z            :       -257.7066468          257.7084609            0.0018140
 Magnitude           :                                                    0.0018886

    SAPT Results
  --------------------------------------------------------------------------------------------------------
    Electrostatics                -33.68091570 [mEh]     -21.13509369 [kcal/mol]     -88.42923199 [kJ/mol]
      Elst10,r                    -33.68091570 [mEh]     -21.13509369 [kcal/mol]     -88.42923199 [kJ/mol]

    Exchange                      108.92355051 [mEh]      68.35055986 [kcal/mol]     285.97874248 [kJ/mol]
      Exch10                      108.92355051 [mEh]      68.35055986 [kcal/mol]     285.97874248 [kJ/mol]
      Exch10(S^2)                 107.62843281 [mEh]      67.53786124 [kcal/mol]     282.57841142 [kJ/mol]

    Induction                     -29.75389501 [mEh]     -18.67085100 [kcal/mol]     -78.11884059 [kJ/mol]
      Ind20,r                     -67.24274775 [mEh]     -42.19546126 [kcal/mol]    -176.54580990 [kJ/mol]
      Exch-Ind20,r                 41.17535604 [mEh]      25.83792600 [kcal/mol]     108.10588239 [kJ/mol]
      delta HF,r (2)               -3.68650330 [mEh]      -2.31331575 [kcal/mol]      -9.67891308 [kJ/mol]

    Dispersion                    -23.63684154 [mEh]     -14.83234200 [kcal/mol]     -62.05851892 [kJ/mol]
      Disp20                      -32.34496431 [mEh]     -20.29677153 [kcal/mol]     -84.92169210 [kJ/mol]
      Exch-Disp20                   8.70812277 [mEh]       5.46442954 [kcal/mol]      22.86317318 [kJ/mol]
      Disp20 (SS)                 -16.17248215 [mEh]     -10.14838577 [kcal/mol]     -42.46084605 [kJ/mol]
      Disp20 (OS)                 -16.17248215 [mEh]     -10.14838577 [kcal/mol]     -42.46084605 [kJ/mol]
      Exch-Disp20 (SS)              4.67370534 [mEh]       2.93279438 [kcal/mol]      12.27081167 [kJ/mol]
      Exch-Disp20 (OS)              4.03441743 [mEh]       2.53163516 [kcal/mol]      10.59236151 [kJ/mol]

  Total HF                         45.48873980 [mEh]      28.54461518 [kcal/mol]     119.43066990 [kJ/mol]
  Total SAPT0                      21.85189826 [mEh]      13.71227318 [kcal/mol]      57.37215099 [kJ/mol]

  Special recipe for scaled SAPT0 (see Manual):
    Electrostatics sSAPT0         -33.68091570 [mEh]     -21.13509369 [kcal/mol]     -88.42923199 [kJ/mol]
    Exchange sSAPT0               108.92355051 [mEh]      68.35055986 [kcal/mol]     285.97874248 [kJ/mol]
    Induction sSAPT0              -28.24951926 [mEh]     -17.72684096 [kcal/mol]     -74.16910259 [kJ/mol]
    Dispersion sSAPT0             -23.31868306 [mEh]     -14.63269454 [kcal/mol]     -61.22319394 [kJ/mol]
  Total sSAPT0                     23.67443250 [mEh]      14.85593068 [kcal/mol]      62.15721397 [kJ/mol]
  --------------------------------------------------------------------------------------------------------

*** Psi4 exiting successfully. Buy a developer a beer!
