                               Psi4 1.9 release

  ==> Input File <==

--------------------------------------------------------------------------
memory 64 GB # how much memory is available ! Depends on the nodes/cores !

molecule dimer {
# monomer A
-1 1    # Charge and multiplicity
B -1.977592e-04  2.742729e-04 4.800034
F  1.123153e-16  1.430594e-17 6.212819
F  1.147860e+00  6.757812e-01 4.328893
F  1.191806e-02 -1.332011e+00 4.329095
F -1.159666e+00  6.560735e-01 4.329174
--
# monomer B
0 1     # Charge and multiplicity
C   -3.66844126402057      7.80375217008252      0.00190004133558
C   -4.84759871934653      7.13124183134024     -0.00046653359696
C   -4.89495929917518      5.69633040353158     -0.00103944469517
C   -3.65374067877320      4.98073034095895      0.00662099703436
C   -2.40942512149445      7.11398103667468      0.00209438359570
C   -2.42547734410473      5.68112195090346     -0.00491050527438
C   -1.19474401643570      7.78614419430947      0.00356656413763
C   0.03795902893699      7.09942164575698      0.00139585983271
C   0.03033258741920      5.66948955970466     -0.00408752508301
C   -1.20098450790502      4.96927034791531      0.00488220885047
C   1.27795782581485      7.77285944319479      0.00277170839332
C   2.48535808472416      7.08769688523756      0.00049722048857
C   2.48612868491717      5.65477081024076     -0.00644052849921
C   1.25408291964399      4.95607811366431      0.00518741308898
C   3.75171459140595      7.76391215098033      0.00062407186893
C   4.92356605618520      7.07878077698995     -0.00143240883900
C   4.95560727132542      5.64344746336949     -0.00159282164606
C   3.70680153420475      4.94121020833308      0.00349873852374
H   -3.65852113775815      8.89082741913536      0.00358502958574
H   -1.18921332975660      8.87412108735996      0.00753844057883
H   1.28429423888630      8.86083343548850      0.00693053253426
H   3.75354208679975      8.85103527897216      0.00214659618464
H   5.86995870320703      7.61379483465560     -0.00235777588134
H   -5.78823170750226      7.67630221293400     -0.00202638095293
C   -6.09197395869619      4.99326001364347     -0.00291168518608
C   -6.12866148031747      3.58258016879823     -0.00171050815740
C   -3.66457974004527      3.56418217974434     -0.00463560277484
C   -4.89429820469869      2.86108077590057      0.00453338221034
C   -2.43733499489796      2.84761165708481      0.00719617576166
C   -1.20922785759670      3.54788693497833     -0.00648285103018
C   1.24714157216223      3.53468075142962     -0.00729145743546
C   0.01517603956900      2.83311183930540      0.00439272578912
C   2.46764517244071      2.82128997725533      0.00449278391269
C   3.70254947457969      3.52466015442405     -0.00899517692985
C   6.14498038638375      4.92757236613191     -0.00282626685777
C   6.16658835886151      3.51658447594213     -0.00065971342101
C   4.92460995845939      2.80840792535402      0.00587903281610
H   7.08990550964105      5.46688776622306     -0.00658814770723
H   -7.03104175110130      5.54268795285765     -0.00714490013730
C   -7.33969804112295      2.85841153457957     -0.00333767559888
C   -7.36488195805880      1.47032337158330     -0.00157213747140
C   -4.90350460894690      1.44442681216000     -0.00628840166334
C   -6.13225715261081      0.73993935705394      0.00600164231964
C   -3.67687480051673      0.72669714267312      0.00433931473643
C   -2.44565658606518      1.42964113326212     -0.00597039546461
C   -1.22360068130162      0.71532450163492      0.00545886906656
C   0.00763786931376      1.41738314923765      0.00392452278437
C   1.23121980774686      0.70211669058719     -0.01490206287210
C   2.46082110053113      1.40329203612573      0.00460244601878
C   3.68443025419614      0.68719842821222      0.00377365974158
C   4.91870890153864      1.39173456118907     -0.00862816189375
C   7.36980207796101      2.77948220318441     -0.00242013321349
C   7.38016266612146      1.39121750785509     -0.00087345036788
C   6.13979953912259      0.67411862320065      0.00545489144369
H   -8.27919079934664      3.40711804112415     -0.00763522772059
H   8.31511347147953      3.31811809662368     -0.00663070901292
C   -8.59175593758115      0.72483255304480     -0.00123170985383
C   -8.59902460370342     -0.63263980622873      0.00089141472904
C   -6.13981313911873     -0.67413663715361     -0.00609792660607
C   -7.38018411213749     -1.39126618958160      0.00131813493501
C   -4.91868448025621     -1.39175501803000      0.00624257154343
C   -3.68443829568458     -0.68723731573599     -0.00478966852105
C   -2.46081704024768     -1.40334517882457      0.00575341766833
C   -1.23116201232071     -0.70217386488055     -0.00636696112346
C   -0.00756962538737     -1.41741884941102      0.00108956317991
C   1.22364771588843     -0.71527537726392      0.01109518512883
C   2.44567064933149     -1.42964328900682     -0.00065482763106
C   3.67686670284649     -0.72670743155550     -0.00479541202602
C   6.13224884641929     -0.73997883984993     -0.00632338623858
C   4.90351914550401     -1.44445752054090      0.00751768830159
C   8.59901484869081      0.63260386666793     -0.00101133422380
C   8.59174548810050     -0.72485086719319      0.00072504603735
C   7.36486276438985     -1.47033266560598      0.00049486934466
H   -9.52830597181814      1.27684744919284     -0.00270163681798
H   9.54141097460619      1.17457248844457     -0.00206336648518
C   -7.36983790976868     -2.77954514593389      0.00312634335708
C   -4.92459910905015     -2.80843725734101     -0.00460528907921
C   -6.16662249566744     -3.51665219282533      0.00169655107992
C   -3.70251035970491     -3.52468154912026      0.00571878010666
C   -2.46764698511392     -2.82132596280400     -0.00632585824990
C   -0.01513347410770     -2.83314164539971     -0.00604426974092
C   -1.24712184122656     -3.53473217556300      0.00551968366725
C   1.20924506964357     -3.54791467864352      0.00805871345849
C   2.43733602215464     -2.84764173817541     -0.00608104485234
C   4.89430234377080     -2.86112296828604     -0.00526030478103
C   3.66461525504104     -3.56421984553201      0.00761911515957
C   6.12863901474565     -3.58258405771778      0.00096495711699
C   7.33967266469532     -2.85841330737039      0.00248018319869
H   -9.54144911125902     -1.17456346666430      0.00226083090216
H   9.52826186807155     -1.27691907390448      0.00197485379837
H   -8.31516504384864     -3.31814985321231      0.00729857188773
H   8.27915514249207     -3.40714078989363      0.00681973918158
C   -6.14499418870218     -4.92764727278338      0.00302254913999
C   -3.70678334799751     -4.94126171411716     -0.00679841894792
C   -4.95559005800169     -5.64349397349412      0.00116871569699
C   -2.48612132622665     -5.65478557440947      0.00614125209662
C   -1.25405833548005     -4.95612205000132     -0.00503435388927
C   1.20101257386816     -4.96928038819302     -0.00385322963129
C   -0.03033667441341     -5.66952030313900      0.00398997003238
C   3.65375010132847     -4.98074377541453     -0.00309522988330
C   2.42549269587528     -5.68117463552727      0.00628170066869
C   6.09196561781097     -4.99325796338655      0.00325918379042
C   4.89497644461045     -5.69634842095790      0.00202298796027
H   -7.08989238804069     -5.46699984223871      0.00742531082125
H   7.03105520920009     -5.54265853633254      0.00683896355417
C   -4.92354532219813     -7.07882109967734      0.00061394679214
C   -2.48534208823777     -7.08772807792913     -0.00189594564379
C   -3.75168589177895     -7.76394715763627     -0.00170126671874
C   -0.03794895698805     -7.09946487446944     -0.00168022049625
C   -1.27795610040136     -7.77290438466689     -0.00366491325785
C   2.40944432072629     -7.11402201200282     -0.00081701968533
C   1.19474993715296     -7.78618536556242     -0.00296931056689
C   4.84762105249800     -7.13126211057943      0.00168979497423
C   3.66847160587561     -7.80378799294376     -0.00065863938960
H   -5.86994035041618     -7.61383059804164      0.00215798365757
H   5.78824962538815     -7.67633218931421      0.00281691445618
H   -3.75352693944918     -8.85107156923607     -0.00353718114765
H   -1.28430440589466     -8.86087539249706     -0.00809229711623
H   1.18922157469537     -8.87416062058945     -0.00706194725726
H   3.65854661482387     -8.89086063405326     -0.00231318081200

    units angstrom      # Angstroms are the default
    no_reorient         # Geometry fixed, default
    symmetry c1         # C1 symmetry, default
}

set {
    scf_type DF         # Density fitting, faster than exact integrals
    freeze_core True    # Freeze core electrons
    basis jun-cc-pVDZ   # Jun-cc-pVDZ basis set, recommended for sSAPT0 in https://doi.org/10.1063/1.4867135
}

energy('ssapt0')        # Compute sSAPT0 energy, includes also SAPT0
--------------------------------------------------------------------------

  //              Dimer HF             //
    Molecular point group: c1
  Charge       = -1
  Multiplicity = 1
  Basis Set: JUN-CC-PVDZ
    Blend: JUN-CC-PVDZ
  Basis Set: (JUN-CC-PVDZ AUX)
    Blend: JUN-CC-PVDZ-JKFIT
  @DF-RHF Final Energy: -4073.10866249350875
    Total Energy =                      -4073.1086624935087457
 Dipole X            :          0.0001605           -0.0000548            0.0001057
 Dipole Y            :          0.0011538           -0.0002464            0.0009074
 Dipole Z            :         21.4228756          -28.5658865           -7.1430109
 Magnitude           :                                                    7.1430110
  //            Monomer A HF           //
    Molecular point group: c1
  Multiplicity = 1
  Basis Set: JUN-CC-PVDZ
    Blend: JUN-CC-PVDZ
  Basis Set: (JUN-CC-PVDZ AUX)
    Blend: JUN-CC-PVDZ-JKFIT
  @DF-RHF Final Energy:  -422.77215959540825
    Total Energy =                       -422.7721595954082545
  //            Monomer B HF           //
    Molecular point group: c1

    Geometry (in Angstrom), charge = 0, multiplicity = 1:

       Center              X                  Y                   Z               Mass
    ------------   -----------------  -----------------  -----------------  -----------------
      Gh(B)          -0.000201921932     0.000288800891     4.469428368085    11.009305360000
      Gh(F)          -0.000004162732     0.000014527991     5.882213368085    18.998403162730
      Gh(F)           1.147855837268     0.675795727991     3.998287368085    18.998403162730
      Gh(F)           0.011913897268    -1.331996472009     3.998489368085    18.998403162730
      Gh(F)          -1.159670162732     0.656088027991     3.998568368085    18.998403162730
         C           -3.668445426752     7.803766698073    -0.328705590580    12.000000000000
         C           -4.847602882078     7.131256359331    -0.331072165512    12.000000000000
         C           -4.894963461907     5.696344931522    -0.331645076610    12.000000000000
         C           -3.653744841505     4.980744868950    -0.323984634881    12.000000000000
         C           -2.409429284226     7.113995564665    -0.328511248319    12.000000000000
         C           -2.425481506836     5.681136478894    -0.335516137190    12.000000000000
         C           -1.194748179167     7.786158722300    -0.327039067777    12.000000000000
         C            0.037954866205     7.099436173748    -0.329209772082    12.000000000000
         C            0.030328424687     5.669504087695    -0.334693156998    12.000000000000
         C           -1.200988670637     4.969284875906    -0.325723423065    12.000000000000
         C            1.277953663083     7.772873971185    -0.327833923522    12.000000000000
         C            2.485353921992     7.087711413228    -0.330108411427    12.000000000000
         C            2.486124522185     5.654785338231    -0.337046160414    12.000000000000
         C            1.254078756912     4.956092641655    -0.325418218826    12.000000000000
         C            3.751710428674     7.763926678971    -0.329981560046    12.000000000000
         C            4.923561893453     7.078795304981    -0.332038040754    12.000000000000
         C            4.955603108594     5.643461991360    -0.332198453561    12.000000000000
         C            3.706797371473     4.941224736324    -0.327106893391    12.000000000000
         H           -3.658525300490     8.890841947126    -0.327020602329     1.007825032230
         H           -1.189217492488     8.874135615351    -0.323067191336     1.007825032230
         H            1.284290076155     8.860847963479    -0.323675099381     1.007825032230
         H            3.753537924068     8.851049806963    -0.328459035730     1.007825032230
         H            5.869954540475     7.613809362646    -0.332963407796     1.007825032230
         H           -5.788235870234     7.676316740925    -0.332632012868     1.007825032230
         C           -6.091978121428     4.993274541634    -0.333517317101    12.000000000000
         C           -6.128665643049     3.582594696789    -0.332316140073    12.000000000000
         C           -3.664583902777     3.564196707735    -0.335241234690    12.000000000000
         C           -4.894302367430     2.861095303891    -0.326072249705    12.000000000000
         C           -2.437339157630     2.847626185075    -0.323409456153    12.000000000000
         C           -1.209232020328     3.547901462969    -0.337088482945    12.000000000000
         C            1.247137409430     3.534695279420    -0.337897089351    12.000000000000
         C            0.015171876837     2.833126367296    -0.326212906126    12.000000000000
         C            2.467641009709     2.821304505246    -0.326112848002    12.000000000000
         C            3.702545311848     3.524674682415    -0.339600808845    12.000000000000
         C            6.144976223652     4.927586894122    -0.333431898773    12.000000000000
         C            6.166584196130     3.516599003933    -0.331265345336    12.000000000000
         C            4.924605795728     2.808422453345    -0.324726599099    12.000000000000
         H            7.089901346909     5.466902294214    -0.337193779622     1.007825032230
         H           -7.031045913833     5.542702480848    -0.337750532052     1.007825032230
         C           -7.339702203855     2.858426062570    -0.333943307514    12.000000000000
         C           -7.364886120791     1.470337899574    -0.332177769387    12.000000000000
         C           -4.903508771679     1.444441340151    -0.336894033578    12.000000000000
         C           -6.132261315343     0.739953885044    -0.324603989595    12.000000000000
         C           -3.676878963248     0.726711670664    -0.326266317179    12.000000000000
         C           -2.445660748797     1.429655661253    -0.336576027380    12.000000000000
         C           -1.223604844033     0.715339029625    -0.325146762849    12.000000000000
         C            0.007633706582     1.417397677228    -0.326681109131    12.000000000000
         C            1.231215645015     0.702131218578    -0.345507694787    12.000000000000
         C            2.460816937799     1.403306564116    -0.326003185896    12.000000000000
         C            3.684426091464     0.687212956203    -0.326831972174    12.000000000000
         C            4.918704738807     1.391749089180    -0.339233793809    12.000000000000
         C            7.369797915229     2.779496731175    -0.333025765129    12.000000000000
         C            7.380158503390     1.391232035846    -0.331479082283    12.000000000000
         C            6.139795376391     0.674133151191    -0.325150740471    12.000000000000
         H           -8.279194962078     3.407132569115    -0.338240859636     1.007825032230
         H            8.315109308748     3.318132624614    -0.337236340928     1.007825032230
         C           -8.591760100313     0.724847081035    -0.331837341769    12.000000000000
         C           -8.599028766435    -0.632625278238    -0.329714217186    12.000000000000
         C           -6.139817301850    -0.674122109163    -0.336703558521    12.000000000000
         C           -7.380188274869    -1.391251661591    -0.329287496980    12.000000000000
         C           -4.918688642988    -1.391740490039    -0.324363060372    12.000000000000
         C           -3.684442458416    -0.687222787745    -0.335395300436    12.000000000000
         C           -2.460821202979    -1.403330650834    -0.324852214247    12.000000000000
         C           -1.231166175052    -0.702159336890    -0.336972593039    12.000000000000
         C           -0.007573788119    -1.417404321420    -0.329516068735    12.000000000000
         C            1.223643553157    -0.715260849273    -0.319510446786    12.000000000000
         C            2.445666486600    -1.429628761016    -0.331260459546    12.000000000000
         C            3.676862540115    -0.726692903565    -0.335401043941    12.000000000000
         C            6.132244683688    -0.739964311859    -0.336929018154    12.000000000000
         C            4.903514982772    -1.444442992550    -0.323087943614    12.000000000000
         C            8.599010685959     0.632618394658    -0.331616966139    12.000000000000
         C            8.591741325369    -0.724836339203    -0.329880585878    12.000000000000
         C            7.364858601658    -1.470318137615    -0.330110762570    12.000000000000
         H           -9.528310134550     1.276861977183    -0.333307268733     1.007825032230
         H            9.541406811874     1.174587016435    -0.332668998400     1.007825032230
         C           -7.369842072500    -2.779530617943    -0.327479288558    12.000000000000
         C           -4.924603271782    -2.808422729350    -0.335210920994    12.000000000000
         C           -6.166626658399    -3.516637664835    -0.328909080835    12.000000000000
         C           -3.702514522437    -3.524667021130    -0.324886851808    12.000000000000
         C           -2.467651147846    -2.821311434813    -0.336931490165    12.000000000000
         C           -0.015137636839    -2.833127117409    -0.336649901656    12.000000000000
         C           -1.247126003958    -3.534717647572    -0.325085948248    12.000000000000
         C            1.209240906912    -3.547900150653    -0.322546918457    12.000000000000
         C            2.437331859423    -2.847627210185    -0.336686676767    12.000000000000
         C            4.894298181039    -2.861108440295    -0.335865936696    12.000000000000
         C            3.664611092309    -3.564205317541    -0.322986516756    12.000000000000
         C            6.128634852014    -3.582569529727    -0.329640674798    12.000000000000
         C            7.339668501964    -2.858398779380    -0.328125448716    12.000000000000
         H           -9.541453273991    -1.174548938674    -0.328344801013     1.007825032230
         H            9.528257705340    -1.276904545914    -0.328630778117     1.007825032230
         H           -8.315169206580    -3.318135325222    -0.323307060027     1.007825032230
         H            8.279150979760    -3.407126261903    -0.323785892734     1.007825032230
         C           -6.144998351434    -4.927632744793    -0.327583082775    12.000000000000
         C           -3.706787510729    -4.941247186127    -0.337404050863    12.000000000000
         C           -4.955594220733    -5.643479445504    -0.329436916218    12.000000000000
         C           -2.486125488958    -5.654771046419    -0.324464379819    12.000000000000
         C           -1.254062498212    -4.956107522011    -0.335639985804    12.000000000000
         C            1.201008411136    -4.969265860202    -0.334458861546    12.000000000000
         C           -0.030340837145    -5.669505775148    -0.326615661883    12.000000000000
         C            3.653745938597    -4.980729247424    -0.333700861798    12.000000000000
         C            2.425488533144    -5.681160107537    -0.324323931246    12.000000000000
         C            6.091961455079    -4.993243435396    -0.327346448125    12.000000000000
         C            4.894972281879    -5.696333892967    -0.328582643955    12.000000000000
         H           -7.089896550772    -5.466985314248    -0.323180321094     1.007825032230
         H            7.031051046468    -5.542644008342    -0.323766668361     1.007825032230
         C           -4.923549484930    -7.078806571687    -0.329991685123    12.000000000000
         C           -2.485346250970    -7.087713549939    -0.332501577559    12.000000000000
         C           -3.751690054511    -7.763932629646    -0.332306898634    12.000000000000
         C           -0.037953119720    -7.099450346479    -0.332285852411    12.000000000000
         C           -1.277960263133    -7.772889856676    -0.334270545173    12.000000000000
         C            2.409440157995    -7.114007484012    -0.331422651600    12.000000000000
         C            1.194745774421    -7.786170837572    -0.333574942482    12.000000000000
         C            4.847616889766    -7.131247582589    -0.328915836941    12.000000000000
         C            3.668467443144    -7.803773464953    -0.331264271305    12.000000000000
         H           -5.869944513148    -7.613816070051    -0.328447648258     1.007825032230
         H            5.788245462656    -7.676317661324    -0.327788717459     1.007825032230
         H           -3.753531102181    -8.851057041246    -0.334142813063     1.007825032230
         H           -1.284308568626    -8.860860864507    -0.338697929031     1.007825032230
         H            1.189217411964    -8.874146092599    -0.337667579172     1.007825032230
         H            3.658542452092    -8.890846106063    -0.332918812727     1.007825032230

  Charge       = 0
  Multiplicity = 1
  Basis Set: JUN-CC-PVDZ
    Blend: JUN-CC-PVDZ
  Basis Set: (JUN-CC-PVDZ AUX)
    Blend: JUN-CC-PVDZ-JKFIT

    Orbital Energies [Eh]
    ---------------------

    Doubly Occupied:

       1A    -11.264026     2A    -11.263697     3A    -11.263696
       4A    -11.263331     5A    -11.263330     6A    -11.263293
       7A    -11.263142     8A    -11.263121     9A    -11.263118
      10A    -11.262933    11A    -11.262786    12A    -11.262782
      13A    -11.262302    14A    -11.262299    15A    -11.262240
      16A    -11.262239    17A    -11.262169    18A    -11.262147
      19A    -11.262104    20A    -11.262066    21A    -11.262064
      22A    -11.261925    23A    -11.261921    24A    -11.261793
      25A    -11.261781    26A    -11.261765    27A    -11.261760
      28A    -11.261716    29A    -11.261709    30A    -11.261625
      31A    -11.261601    32A    -11.261597    33A    -11.261571
      34A    -11.261568    35A    -11.261549    36A    -11.261526
      37A    -11.261371    38A    -11.261362    39A    -11.261356
      40A    -11.261350    41A    -11.261345    42A    -11.261338
      43A    -11.261327    44A    -11.261311    45A    -11.261306
      46A    -11.261284    47A    -11.261279    48A    -11.261275
      49A    -11.261105    50A    -11.261073    51A    -11.261069
      52A    -11.260990    53A    -11.260988    54A    -11.260922
      55A    -11.259963    56A    -11.259950    57A    -11.259948
      58A    -11.259918    59A    -11.259916    60A    -11.259901
      61A    -11.259337    62A    -11.259311    63A    -11.259308
      64A    -11.259256    65A    -11.259253    66A    -11.259224
      67A    -11.258967    68A    -11.258949    69A    -11.258947
      70A    -11.258919    71A    -11.258917    72A    -11.258905
      73A    -11.254557    74A    -11.254556    75A    -11.254553
      76A    -11.254551    77A    -11.254546    78A    -11.254544
      79A    -11.253696    80A    -11.253694    81A    -11.253690
      82A    -11.253689    83A    -11.253687    84A    -11.253683
      85A    -11.253611    86A    -11.253610    87A    -11.253606
      88A    -11.253604    89A    -11.253603    90A    -11.253599
      91A    -11.253085    92A    -11.253083    93A    -11.253081
      94A    -11.253079    95A    -11.253074    96A    -11.253072
      97A     -1.254007    98A     -1.239056    99A     -1.239056
     100A     -1.220518   101A     -1.220513   102A     -1.215494
     103A     -1.201090   104A     -1.195657   105A     -1.188197
     106A     -1.188195   107A     -1.173812   108A     -1.173809
     109A     -1.155685   110A     -1.155682   111A     -1.152770
     112A     -1.144768   113A     -1.144765   114A     -1.128622
     115A     -1.114771   116A     -1.113208   117A     -1.112536
     118A     -1.112522   119A     -1.111663   120A     -1.088482
     121A     -1.088467   122A     -1.077005   123A     -1.077004
     124A     -1.067670   125A     -1.067640   126A     -1.065025
     127A     -1.046852   128A     -1.046845   129A     -1.040533
     130A     -1.038779   131A     -1.038778   132A     -1.025297
     133A     -1.021445   134A     -1.021395   135A     -1.007228
     136A     -1.006866   137A     -1.003843   138A     -1.000544
     139A     -1.000496   140A     -0.991117   141A     -0.971042
     142A     -0.970993   143A     -0.955929   144A     -0.955873
     145A     -0.905652   146A     -0.905610   147A     -0.905591
     148A     -0.905551   149A     -0.904395   150A     -0.892429
     151A     -0.892370   152A     -0.890421   153A     -0.890363
     154A     -0.889511   155A     -0.872262   156A     -0.869093
     157A     -0.851587   158A     -0.847922   159A     -0.847901
     160A     -0.845654   161A     -0.843073   162A     -0.834615
     163A     -0.834602   164A     -0.828158   165A     -0.828154
     166A     -0.784598   167A     -0.784587   168A     -0.783712
     169A     -0.783686   170A     -0.782339   171A     -0.782319
     172A     -0.782088   173A     -0.767043   174A     -0.760851
     175A     -0.750627   176A     -0.733528   177A     -0.727121
     178A     -0.727107   179A     -0.725135   180A     -0.724591
     181A     -0.724572   182A     -0.718546   183A     -0.713825
     184A     -0.713819   185A     -0.699622   186A     -0.699610
     187A     -0.686177   188A     -0.686002   189A     -0.685999
     190A     -0.682221   191A     -0.682210   192A     -0.678821
     193A     -0.653670   194A     -0.650918   195A     -0.650889
     196A     -0.649866   197A     -0.649850   198A     -0.649609
     199A     -0.640982   200A     -0.640954   201A     -0.640133
     202A     -0.639205   203A     -0.636070   204A     -0.636043
     205A     -0.629190   206A     -0.617748   207A     -0.615346
     208A     -0.615325   209A     -0.608848   210A     -0.608841
     211A     -0.599144   212A     -0.599107   213A     -0.598789
     214A     -0.598661   215A     -0.598636   216A     -0.598087
     217A     -0.595110   218A     -0.595097   219A     -0.594767
     220A     -0.594290   221A     -0.592002   222A     -0.591999
     223A     -0.587445   224A     -0.577831   225A     -0.577821
     226A     -0.575690   227A     -0.575687   228A     -0.573426
     229A     -0.569590   230A     -0.568190   231A     -0.568167
     232A     -0.566799   233A     -0.566789   234A     -0.560948
     235A     -0.558766   236A     -0.558747   237A     -0.558463
     238A     -0.554414   239A     -0.550581   240A     -0.547509
     241A     -0.544291   242A     -0.535028   243A     -0.534990
     244A     -0.533578   245A     -0.533556   246A     -0.528118
     247A     -0.528103   248A     -0.527845   249A     -0.517210
     250A     -0.517176   251A     -0.515379   252A     -0.515373
     253A     -0.509682   254A     -0.509666   255A     -0.498070
     256A     -0.496494   257A     -0.496468   258A     -0.493807
     259A     -0.493796   260A     -0.489452   261A     -0.481491
     262A     -0.477443   263A     -0.477440   264A     -0.474036
     265A     -0.469489   266A     -0.466571   267A     -0.466566
     268A     -0.458824   269A     -0.446740   270A     -0.446680
     271A     -0.441052   272A     -0.440788   273A     -0.440764
     274A     -0.434711   275A     -0.433931   276A     -0.407397
     277A     -0.407373   278A     -0.386431   279A     -0.386382
     280A     -0.385754   281A     -0.385753   282A     -0.383776
     283A     -0.354344   284A     -0.354328   285A     -0.350683
     286A     -0.338114   287A     -0.335614   288A     -0.335543
     289A     -0.332736   290A     -0.332729   291A     -0.307096
     292A     -0.301963   293A     -0.301901   294A     -0.300867
     295A     -0.286195   296A     -0.256488   297A     -0.253521
     298A     -0.253468   299A     -0.204283   300A     -0.204194

  @DF-RHF Final Energy: -3650.33897962409810

   => Energetics <=

    Nuclear Repulsion Energy =          15611.4211649754324753
    One-Electron Energy =              -36072.1209327329634107
    Two-Electron Energy =               16810.3607881334319245
    Total Energy =                      -3650.3389796240990108
 Dipole X            :         -0.0007116            0.0002304           -0.0004812
 Dipole Y            :          0.0011671           -0.0013052           -0.0001381
 Dipole Z            :        374.8415116         -374.8490680           -0.0075564
 Magnitude           :                                                    0.0075730

    SAPT Results
  --------------------------------------------------------------------------------------------------------
    Electrostatics                 11.45521036 [mEh]       7.18825303 [kcal/mol]      30.07565067 [kJ/mol]
      Elst10,r                     11.45521036 [mEh]       7.18825303 [kcal/mol]      30.07565067 [kJ/mol]

    Exchange                        0.10875617 [mEh]       0.06824553 [kcal/mol]       0.28553929 [kJ/mol]
      Exch10                        0.10875617 [mEh]       0.06824553 [kcal/mol]       0.28553929 [kJ/mol]
      Exch10(S^2)                   0.10876030 [mEh]       0.06824812 [kcal/mol]       0.28555012 [kJ/mol]

    Induction                      -9.08724054 [mEh]      -5.70232953 [kcal/mol]     -23.85854674 [kJ/mol]
      Ind20,r                      -9.16445553 [mEh]      -5.75078266 [kcal/mol]     -24.06127467 [kJ/mol]
      Exch-Ind20,r                  0.02424542 [mEh]       0.01521423 [kcal/mol]       0.06365635 [kJ/mol]
      delta HF,r (2)                0.05296956 [mEh]       0.03323890 [kcal/mol]       0.13907157 [kJ/mol]

    Dispersion                     -2.74354884 [mEh]      -1.72160289 [kcal/mol]      -7.20318649 [kJ/mol]
      Disp20                       -2.77956830 [mEh]      -1.74420544 [kcal/mol]      -7.29775556 [kJ/mol]
      Exch-Disp20                   0.03601946 [mEh]       0.02260255 [kcal/mol]       0.09456907 [kJ/mol]
      Disp20 (SS)                  -1.38978415 [mEh]      -0.87210272 [kcal/mol]      -3.64887778 [kJ/mol]
      Disp20 (OS)                  -1.38978415 [mEh]      -0.87210272 [kcal/mol]      -3.64887778 [kJ/mol]
      Exch-Disp20 (SS)              0.02532138 [mEh]       0.01588941 [kcal/mol]       0.06648127 [kJ/mol]
      Exch-Disp20 (OS)              0.01069808 [mEh]       0.00671314 [kcal/mol]       0.02808780 [kJ/mol]

  Total HF                          2.47672600 [mEh]       1.55416903 [kcal/mol]       6.50264321 [kJ/mol]
  Total SAPT0                      -0.26682284 [mEh]      -0.16743386 [kcal/mol]      -0.70054328 [kJ/mol]

  Special recipe for scaled SAPT0 (see Manual):
    Electrostatics sSAPT0          11.45521036 [mEh]       7.18825303 [kcal/mol]      30.07565067 [kJ/mol]
    Exchange sSAPT0                 0.10875617 [mEh]       0.06824553 [kcal/mol]       0.28553929 [kJ/mol]
    Induction sSAPT0               -9.08724330 [mEh]      -5.70233126 [kcal/mol]     -23.85855399 [kJ/mol]
    Dispersion sSAPT0              -2.74355294 [mEh]      -1.72160546 [kcal/mol]      -7.20319725 [kJ/mol]
  Total sSAPT0                     -0.26682970 [mEh]      -0.16743816 [kcal/mol]      -0.70056128 [kJ/mol]
  --------------------------------------------------------------------------------------------------------

*** Psi4 exiting successfully. Buy a developer a beer!
