                               Psi4 1.9 release

  ==> Input File <==

--------------------------------------------------------------------------
memory 47 GB # how much memory is available ! Depends on the nodes/cores !

molecule dimer {
# monomer A
-1 1    # Charge and multiplicity
B -0.000046  0.000337 7.199994
F -1.153597  0.000048 8.015641
F  1.153661 -0.000581 8.015641
F -0.000019 -1.153637 6.384360
F -0.000019  1.153978 6.384360
--
# monomer B
0 1     # Charge and multiplicity
C   -3.66844126402057      7.80375217008252      0.00190004133558
C   -4.84759871934653      7.13124183134024     -0.00046653359696
C   -4.89495929917518      5.69633040353158     -0.00103944469517
C   -3.65374067877320      4.98073034095895      0.00662099703436
C   -2.40942512149445      7.11398103667468      0.00209438359570
C   -2.42547734410473      5.68112195090346     -0.00491050527438
C   -1.19474401643570      7.78614419430947      0.00356656413763
C   0.03795902893699      7.09942164575698      0.00139585983271
C   0.03033258741920      5.66948955970466     -0.00408752508301
C   -1.20098450790502      4.96927034791531      0.00488220885047
C   1.27795782581485      7.77285944319479      0.00277170839332
C   2.48535808472416      7.08769688523756      0.00049722048857
C   2.48612868491717      5.65477081024076     -0.00644052849921
C   1.25408291964399      4.95607811366431      0.00518741308898
C   3.75171459140595      7.76391215098033      0.00062407186893
C   4.92356605618520      7.07878077698995     -0.00143240883900
C   4.95560727132542      5.64344746336949     -0.00159282164606
C   3.70680153420475      4.94121020833308      0.00349873852374
H   -3.65852113775815      8.89082741913536      0.00358502958574
H   -1.18921332975660      8.87412108735996      0.00753844057883
H   1.28429423888630      8.86083343548850      0.00693053253426
H   3.75354208679975      8.85103527897216      0.00214659618464
H   5.86995870320703      7.61379483465560     -0.00235777588134
H   -5.78823170750226      7.67630221293400     -0.00202638095293
C   -6.09197395869619      4.99326001364347     -0.00291168518608
C   -6.12866148031747      3.58258016879823     -0.00171050815740
C   -3.66457974004527      3.56418217974434     -0.00463560277484
C   -4.89429820469869      2.86108077590057      0.00453338221034
C   -2.43733499489796      2.84761165708481      0.00719617576166
C   -1.20922785759670      3.54788693497833     -0.00648285103018
C   1.24714157216223      3.53468075142962     -0.00729145743546
C   0.01517603956900      2.83311183930540      0.00439272578912
C   2.46764517244071      2.82128997725533      0.00449278391269
C   3.70254947457969      3.52466015442405     -0.00899517692985
C   6.14498038638375      4.92757236613191     -0.00282626685777
C   6.16658835886151      3.51658447594213     -0.00065971342101
C   4.92460995845939      2.80840792535402      0.00587903281610
H   7.08990550964105      5.46688776622306     -0.00658814770723
H   -7.03104175110130      5.54268795285765     -0.00714490013730
C   -7.33969804112295      2.85841153457957     -0.00333767559888
C   -7.36488195805880      1.47032337158330     -0.00157213747140
C   -4.90350460894690      1.44442681216000     -0.00628840166334
C   -6.13225715261081      0.73993935705394      0.00600164231964
C   -3.67687480051673      0.72669714267312      0.00433931473643
C   -2.44565658606518      1.42964113326212     -0.00597039546461
C   -1.22360068130162      0.71532450163492      0.00545886906656
C   0.00763786931376      1.41738314923765      0.00392452278437
C   1.23121980774686      0.70211669058719     -0.01490206287210
C   2.46082110053113      1.40329203612573      0.00460244601878
C   3.68443025419614      0.68719842821222      0.00377365974158
C   4.91870890153864      1.39173456118907     -0.00862816189375
C   7.36980207796101      2.77948220318441     -0.00242013321349
C   7.38016266612146      1.39121750785509     -0.00087345036788
C   6.13979953912259      0.67411862320065      0.00545489144369
H   -8.27919079934664      3.40711804112415     -0.00763522772059
H   8.31511347147953      3.31811809662368     -0.00663070901292
C   -8.59175593758115      0.72483255304480     -0.00123170985383
C   -8.59902460370342     -0.63263980622873      0.00089141472904
C   -6.13981313911873     -0.67413663715361     -0.00609792660607
C   -7.38018411213749     -1.39126618958160      0.00131813493501
C   -4.91868448025621     -1.39175501803000      0.00624257154343
C   -3.68443829568458     -0.68723731573599     -0.00478966852105
C   -2.46081704024768     -1.40334517882457      0.00575341766833
C   -1.23116201232071     -0.70217386488055     -0.00636696112346
C   -0.00756962538737     -1.41741884941102      0.00108956317991
C   1.22364771588843     -0.71527537726392      0.01109518512883
C   2.44567064933149     -1.42964328900682     -0.00065482763106
C   3.67686670284649     -0.72670743155550     -0.00479541202602
C   6.13224884641929     -0.73997883984993     -0.00632338623858
C   4.90351914550401     -1.44445752054090      0.00751768830159
C   8.59901484869081      0.63260386666793     -0.00101133422380
C   8.59174548810050     -0.72485086719319      0.00072504603735
C   7.36486276438985     -1.47033266560598      0.00049486934466
H   -9.52830597181814      1.27684744919284     -0.00270163681798
H   9.54141097460619      1.17457248844457     -0.00206336648518
C   -7.36983790976868     -2.77954514593389      0.00312634335708
C   -4.92459910905015     -2.80843725734101     -0.00460528907921
C   -6.16662249566744     -3.51665219282533      0.00169655107992
C   -3.70251035970491     -3.52468154912026      0.00571878010666
C   -2.46764698511392     -2.82132596280400     -0.00632585824990
C   -0.01513347410770     -2.83314164539971     -0.00604426974092
C   -1.24712184122656     -3.53473217556300      0.00551968366725
C   1.20924506964357     -3.54791467864352      0.00805871345849
C   2.43733602215464     -2.84764173817541     -0.00608104485234
C   4.89430234377080     -2.86112296828604     -0.00526030478103
C   3.66461525504104     -3.56421984553201      0.00761911515957
C   6.12863901474565     -3.58258405771778      0.00096495711699
C   7.33967266469532     -2.85841330737039      0.00248018319869
H   -9.54144911125902     -1.17456346666430      0.00226083090216
H   9.52826186807155     -1.27691907390448      0.00197485379837
H   -8.31516504384864     -3.31814985321231      0.00729857188773
H   8.27915514249207     -3.40714078989363      0.00681973918158
C   -6.14499418870218     -4.92764727278338      0.00302254913999
C   -3.70678334799751     -4.94126171411716     -0.00679841894792
C   -4.95559005800169     -5.64349397349412      0.00116871569699
C   -2.48612132622665     -5.65478557440947      0.00614125209662
C   -1.25405833548005     -4.95612205000132     -0.00503435388927
C   1.20101257386816     -4.96928038819302     -0.00385322963129
C   -0.03033667441341     -5.66952030313900      0.00398997003238
C   3.65375010132847     -4.98074377541453     -0.00309522988330
C   2.42549269587528     -5.68117463552727      0.00628170066869
C   6.09196561781097     -4.99325796338655      0.00325918379042
C   4.89497644461045     -5.69634842095790      0.00202298796027
H   -7.08989238804069     -5.46699984223871      0.00742531082125
H   7.03105520920009     -5.54265853633254      0.00683896355417
C   -4.92354532219813     -7.07882109967734      0.00061394679214
C   -2.48534208823777     -7.08772807792913     -0.00189594564379
C   -3.75168589177895     -7.76394715763627     -0.00170126671874
C   -0.03794895698805     -7.09946487446944     -0.00168022049625
C   -1.27795610040136     -7.77290438466689     -0.00366491325785
C   2.40944432072629     -7.11402201200282     -0.00081701968533
C   1.19474993715296     -7.78618536556242     -0.00296931056689
C   4.84762105249800     -7.13126211057943      0.00168979497423
C   3.66847160587561     -7.80378799294376     -0.00065863938960
H   -5.86994035041618     -7.61383059804164      0.00215798365757
H   5.78824962538815     -7.67633218931421      0.00281691445618
H   -3.75352693944918     -8.85107156923607     -0.00353718114765
H   -1.28430440589466     -8.86087539249706     -0.00809229711623
H   1.18922157469537     -8.87416062058945     -0.00706194725726
H   3.65854661482387     -8.89086063405326     -0.00231318081200

    units angstrom      # Angstroms are the default
    no_reorient         # Geometry fixed, default
    symmetry c1         # C1 symmetry, default
}

set {
    scf_type DF         # Density fitting, faster than exact integrals
    freeze_core True    # Freeze core electrons
    basis jun-cc-pVDZ   # Jun-cc-pVDZ basis set, recommended for sSAPT0 in https://doi.org/10.1063/1.4867135
}

energy('ssapt0')        # Compute sSAPT0 energy, includes also SAPT0
--------------------------------------------------------------------------

  //              Dimer HF             //
    Molecular point group: c1
  Charge       = -1
  Multiplicity = 1
  Basis Set: JUN-CC-PVDZ
    Blend: JUN-CC-PVDZ
  Basis Set: (JUN-CC-PVDZ AUX)
    Blend: JUN-CC-PVDZ-JKFIT
  @DF-RHF Final Energy: -4073.10387054202101
    Total Energy =                      -4073.1038705420214683
 Dipole X            :         -0.0003546           -0.0001188           -0.0004734
 Dipole Y            :          0.0012198           -0.0002727            0.0009471
 Dipole Z            :         31.1193883          -42.8486075          -11.7292192
 Magnitude           :                                                   11.7292192
  //            Monomer A HF           //
    Molecular point group: c1
  Multiplicity = 1
  Basis Set: JUN-CC-PVDZ
    Blend: JUN-CC-PVDZ
  Basis Set: (JUN-CC-PVDZ AUX)
    Blend: JUN-CC-PVDZ-JKFIT
  @DF-RHF Final Energy:  -422.77144669609044
    Total Energy =                       -422.7714466960904360
  //            Monomer B HF           //
    Molecular point group: c1

    Geometry (in Angstrom), charge = 0, multiplicity = 1:

       Center              X                  Y                   Z               Mass
    ------------   -----------------  -----------------  -----------------  -----------------
      Gh(B)          -0.000050191042     0.000351518223     6.704087152112    11.009305360000
      Gh(F)          -1.153601191042     0.000062518223     7.519734152112    18.998403162730
      Gh(F)           1.153656808958    -0.000566481777     7.519734152112    18.998403162730
      Gh(F)          -0.000023191042    -1.153622481777     5.888453152112    18.998403162730
      Gh(F)          -0.000023191042     1.153992518223     5.888453152112    18.998403162730
         C           -3.668445455062     7.803766688305    -0.494006806552    12.000000000000
         C           -4.847602910388     7.131256349563    -0.496373381485    12.000000000000
         C           -4.894963490217     5.696344921754    -0.496946292583    12.000000000000
         C           -3.653744869815     4.980744859182    -0.489285850853    12.000000000000
         C           -2.409429312536     7.113995554897    -0.493812464292    12.000000000000
         C           -2.425481535146     5.681136469126    -0.500817353162    12.000000000000
         C           -1.194748207477     7.786158712532    -0.492340283750    12.000000000000
         C            0.037954837895     7.099436163980    -0.494510988055    12.000000000000
         C            0.030328396378     5.669504077927    -0.499994372971    12.000000000000
         C           -1.200988698947     4.969284866138    -0.491024639037    12.000000000000
         C            1.277953634773     7.772873961417    -0.493135139494    12.000000000000
         C            2.485353893683     7.087711403460    -0.495409627399    12.000000000000
         C            2.486124493876     5.654785328463    -0.502347376387    12.000000000000
         C            1.254078728602     4.956092631887    -0.490719434799    12.000000000000
         C            3.751710400364     7.763926669203    -0.495282776019    12.000000000000
         C            4.923561865144     7.078795295213    -0.497339256727    12.000000000000
         C            4.955603080284     5.643461981592    -0.497499669534    12.000000000000
         C            3.706797343163     4.941224726556    -0.492408109364    12.000000000000
         H           -3.658525328800     8.890841937358    -0.492321818302     1.007825032230
         H           -1.189217520798     8.874135605583    -0.488368407309     1.007825032230
         H            1.284290047845     8.860847953711    -0.488976315354     1.007825032230
         H            3.753537895758     8.851049797195    -0.493760251703     1.007825032230
         H            5.869954512165     7.613809352878    -0.498264623769     1.007825032230
         H           -5.788235898544     7.676316731157    -0.497933228841     1.007825032230
         C           -6.091978149738     4.993274531866    -0.498818533074    12.000000000000
         C           -6.128665671359     3.582594687021    -0.497617356045    12.000000000000
         C           -3.664583931087     3.564196697967    -0.500542450663    12.000000000000
         C           -4.894302395740     2.861095294123    -0.491373465677    12.000000000000
         C           -2.437339185940     2.847626175307    -0.488710672126    12.000000000000
         C           -1.209232048638     3.547901453201    -0.502389698918    12.000000000000
         C            1.247137381121     3.534695269652    -0.503198305323    12.000000000000
         C            0.015171848527     2.833126357528    -0.491514122099    12.000000000000
         C            2.467640981399     2.821304495478    -0.491414063975    12.000000000000
         C            3.702545283538     3.524674672647    -0.504902024818    12.000000000000
         C            6.144976195342     4.927586884354    -0.498733114746    12.000000000000
         C            6.166584167820     3.516598994165    -0.496566561309    12.000000000000
         C            4.924605767418     2.808422443577    -0.490027815072    12.000000000000
         H            7.089901318599     5.466902284446    -0.502494995595     1.007825032230
         H           -7.031045942143     5.542702471080    -0.503051748025     1.007825032230
         C           -7.339702232165     2.858426052802    -0.499244523487    12.000000000000
         C           -7.364886149100     1.470337889806    -0.497478985359    12.000000000000
         C           -4.903508799989     1.444441330383    -0.502195249551    12.000000000000
         C           -6.132261343652     0.739953875277    -0.489905205568    12.000000000000
         C           -3.676878991558     0.726711660896    -0.491567533151    12.000000000000
         C           -2.445660777107     1.429655651485    -0.501877243352    12.000000000000
         C           -1.223604872343     0.715339019858    -0.490447978821    12.000000000000
         C            0.007633678272     1.417397667460    -0.491982325103    12.000000000000
         C            1.231215616705     0.702131208810    -0.510808910760    12.000000000000
         C            2.460816909489     1.403306554348    -0.491304401869    12.000000000000
         C            3.684426063155     0.687212946435    -0.492133188146    12.000000000000
         C            4.918704710497     1.391749079412    -0.504535009782    12.000000000000
         C            7.369797886919     2.779496721407    -0.498326981101    12.000000000000
         C            7.380158475080     1.391232026078    -0.496780298256    12.000000000000
         C            6.139795348081     0.674133141423    -0.490451956444    12.000000000000
         H           -8.279194990388     3.407132559347    -0.503542075608     1.007825032230
         H            8.315109280438     3.318132614846    -0.502537556901     1.007825032230
         C           -8.591760128623     0.724847071267    -0.497138557742    12.000000000000
         C           -8.599028794745    -0.632625288006    -0.495015433159    12.000000000000
         C           -6.139817330160    -0.674122118931    -0.502004774494    12.000000000000
         C           -7.380188303179    -1.391251671359    -0.494588712953    12.000000000000
         C           -4.918688671298    -1.391740499807    -0.489664276344    12.000000000000
         C           -3.684442486726    -0.687222797513    -0.500696516409    12.000000000000
         C           -2.460821231289    -1.403330660602    -0.490153430219    12.000000000000
         C           -1.231166203362    -0.702159346658    -0.502273809011    12.000000000000
         C           -0.007573816429    -1.417404331188    -0.494817284708    12.000000000000
         C            1.223643524847    -0.715260859041    -0.484811662759    12.000000000000
         C            2.445666458290    -1.429628770784    -0.496561675519    12.000000000000
         C            3.676862511805    -0.726692913333    -0.500702259914    12.000000000000
         C            6.132244655378    -0.739964321627    -0.502230234126    12.000000000000
         C            4.903514954462    -1.444443002318    -0.488389159586    12.000000000000
         C            8.599010657649     0.632618384891    -0.496918182112    12.000000000000
         C            8.591741297059    -0.724836348971    -0.495181801850    12.000000000000
         C            7.364858573348    -1.470318147383    -0.495411978543    12.000000000000
         H           -9.528310162860     1.276861967415    -0.498608484706     1.007825032230
         H            9.541406783565     1.174587006667    -0.497970214373     1.007825032230
         C           -7.369842100810    -2.779530627711    -0.492780504531    12.000000000000
         C           -4.924603300092    -2.808422739118    -0.500512136967    12.000000000000
         C           -6.166626686709    -3.516637674603    -0.494210296808    12.000000000000
         C           -3.702514550747    -3.524667030898    -0.490188067781    12.000000000000
         C           -2.467651176156    -2.821311444581    -0.502232706138    12.000000000000
         C           -0.015137665149    -2.833127127177    -0.501951117629    12.000000000000
         C           -1.247126032268    -3.534717657340    -0.490387164221    12.000000000000
         C            1.209240878602    -3.547900160421    -0.487848134429    12.000000000000
         C            2.437331831113    -2.847627219953    -0.501987892740    12.000000000000
         C            4.894298152729    -2.861108450063    -0.501167152669    12.000000000000
         C            3.664611063999    -3.564205327309    -0.488287732728    12.000000000000
         C            6.128634823704    -3.582569539495    -0.494941890771    12.000000000000
         C            7.339668473654    -2.858398789148    -0.493426664689    12.000000000000
         H           -9.541453302301    -1.174548948442    -0.493646016986     1.007825032230
         H            9.528257677030    -1.276904555682    -0.493931994089     1.007825032230
         H           -8.315169234890    -3.318135334990    -0.488608276000     1.007825032230
         H            8.279150951450    -3.407126271671    -0.489087108706     1.007825032230
         C           -6.144998379744    -4.927632754561    -0.492884298748    12.000000000000
         C           -3.706787539039    -4.941247195895    -0.502705266836    12.000000000000
         C           -4.955594249043    -5.643479455272    -0.494738132191    12.000000000000
         C           -2.486125517268    -5.654771056187    -0.489765595791    12.000000000000
         C           -1.254062526522    -4.956107531779    -0.500941201777    12.000000000000
         C            1.201008382827    -4.969265869970    -0.499760077519    12.000000000000
         C           -0.030340865455    -5.669505784916    -0.491916877855    12.000000000000
         C            3.653745910287    -4.980729257192    -0.499002077771    12.000000000000
         C            2.425488504834    -5.681160117305    -0.489625147219    12.000000000000
         C            6.091961426769    -4.993243445164    -0.492647664097    12.000000000000
         C            4.894972253569    -5.696333902735    -0.493883859928    12.000000000000
         H           -7.089896579082    -5.466985324016    -0.488481537067     1.007825032230
         H            7.031051018158    -5.542644018110    -0.489067884334     1.007825032230
         C           -4.923549513240    -7.078806581455    -0.495292901096    12.000000000000
         C           -2.485346279279    -7.087713559707    -0.497802793532    12.000000000000
         C           -3.751690082821    -7.763932639414    -0.497608114607    12.000000000000
         C           -0.037953148030    -7.099450356247    -0.497587068384    12.000000000000
         C           -1.277960291443    -7.772889866444    -0.499571761146    12.000000000000
         C            2.409440129685    -7.114007493780    -0.496723867573    12.000000000000
         C            1.194745746111    -7.786170847340    -0.498876158455    12.000000000000
         C            4.847616861456    -7.131247592357    -0.494217052914    12.000000000000
         C            3.668467414834    -7.803773474721    -0.496565487277    12.000000000000
         H           -5.869944541458    -7.613816079819    -0.493748864230     1.007825032230
         H            5.788245434347    -7.676317671092    -0.493089933432     1.007825032230
         H           -3.753531130491    -8.851057051013    -0.499444029035     1.007825032230
         H           -1.284308596936    -8.860860874274    -0.503999145004     1.007825032230
         H            1.189217383654    -8.874146102367    -0.502968795145     1.007825032230
         H            3.658542423782    -8.890846115831    -0.498220028700     1.007825032230

  Charge       = 0
  Multiplicity = 1
  Basis Set: JUN-CC-PVDZ
    Blend: JUN-CC-PVDZ
  Basis Set: (JUN-CC-PVDZ AUX)
    Blend: JUN-CC-PVDZ-JKFIT

    Orbital Energies [Eh]
    ---------------------

    Doubly Occupied:

       1A    -11.264062     2A    -11.263747     3A    -11.263746
       4A    -11.263404     5A    -11.263402     6A    -11.263367
       7A    -11.263210     8A    -11.263184     9A    -11.263180
      10A    -11.263023    11A    -11.262864    12A    -11.262859
      13A    -11.262380    14A    -11.262377    15A    -11.262303
      16A    -11.262302    17A    -11.262252    18A    -11.262216
      19A    -11.262172    20A    -11.262133    21A    -11.262131
      22A    -11.261977    23A    -11.261973    24A    -11.261853
      25A    -11.261838    26A    -11.261824    27A    -11.261820
      28A    -11.261773    29A    -11.261765    30A    -11.261692
      31A    -11.261666    32A    -11.261663    33A    -11.261637
      34A    -11.261636    35A    -11.261615    36A    -11.261570
      37A    -11.261427    38A    -11.261415    39A    -11.261409
      40A    -11.261402    41A    -11.261397    42A    -11.261389
      43A    -11.261385    44A    -11.261371    45A    -11.261366
      46A    -11.261343    47A    -11.261339    48A    -11.261335
      49A    -11.261183    50A    -11.261153    51A    -11.261150
      52A    -11.261070    53A    -11.261069    54A    -11.260999
      55A    -11.260029    56A    -11.260015    57A    -11.260013
      58A    -11.259984    59A    -11.259982    60A    -11.259966
      61A    -11.259406    62A    -11.259381    63A    -11.259379
      64A    -11.259326    65A    -11.259324    66A    -11.259295
      67A    -11.259033    68A    -11.259016    69A    -11.259013
      70A    -11.258986    71A    -11.258984    72A    -11.258972
      73A    -11.254599    74A    -11.254598    75A    -11.254596
      76A    -11.254594    77A    -11.254588    78A    -11.254586
      79A    -11.253752    80A    -11.253750    81A    -11.253747
      82A    -11.253746    83A    -11.253744    84A    -11.253738
      85A    -11.253668    86A    -11.253666    87A    -11.253663
      88A    -11.253662    89A    -11.253659    90A    -11.253654
      91A    -11.253127    92A    -11.253126    93A    -11.253125
      94A    -11.253122    95A    -11.253116    96A    -11.253114
      97A     -1.254158    98A     -1.239159    99A     -1.239159
     100A     -1.220600   101A     -1.220595   102A     -1.215630
     103A     -1.201160   104A     -1.195730   105A     -1.188320
     106A     -1.188318   107A     -1.173879   108A     -1.173876
     109A     -1.155792   110A     -1.155788   111A     -1.152899
     112A     -1.144833   113A     -1.144830   114A     -1.128714
     115A     -1.114873   116A     -1.113274   117A     -1.112660
     118A     -1.112646   119A     -1.111722   120A     -1.088575
     121A     -1.088560   122A     -1.077070   123A     -1.077069
     124A     -1.067770   125A     -1.067741   126A     -1.065142
     127A     -1.046934   128A     -1.046926   129A     -1.040623
     130A     -1.038843   131A     -1.038842   132A     -1.025410
     133A     -1.021584   134A     -1.021534   135A     -1.007305
     136A     -1.006950   137A     -1.003924   138A     -1.000652
     139A     -1.000604   140A     -0.991178   141A     -0.971139
     142A     -0.971091   143A     -0.956004   144A     -0.955949
     145A     -0.905782   146A     -0.905740   147A     -0.905649
     148A     -0.905609   149A     -0.904540   150A     -0.892552
     151A     -0.892493   152A     -0.890536   153A     -0.890479
     154A     -0.889609   155A     -0.872333   156A     -0.869144
     157A     -0.851663   158A     -0.848031   159A     -0.848009
     160A     -0.845767   161A     -0.843170   162A     -0.834699
     163A     -0.834686   164A     -0.828225   165A     -0.828221
     166A     -0.784689   167A     -0.784678   168A     -0.783817
     169A     -0.783790   170A     -0.782436   171A     -0.782416
     172A     -0.782201   173A     -0.767123   174A     -0.760974
     175A     -0.750749   176A     -0.733598   177A     -0.727205
     178A     -0.727192   179A     -0.725231   180A     -0.724672
     181A     -0.724654   182A     -0.718678   183A     -0.713939
     184A     -0.713933   185A     -0.699708   186A     -0.699696
     187A     -0.686311   188A     -0.686073   189A     -0.686070
     190A     -0.682296   191A     -0.682286   192A     -0.678933
     193A     -0.653761   194A     -0.651009   195A     -0.650980
     196A     -0.649986   197A     -0.649971   198A     -0.649680
     199A     -0.641106   200A     -0.641079   201A     -0.640206
     202A     -0.639269   203A     -0.636177   204A     -0.636151
     205A     -0.629277   206A     -0.617665   207A     -0.615414
     208A     -0.615394   209A     -0.608928   210A     -0.608921
     211A     -0.599190   212A     -0.599152   213A     -0.598886
     214A     -0.598762   215A     -0.598735   216A     -0.598215
     217A     -0.595181   218A     -0.595169   219A     -0.594855
     220A     -0.594420   221A     -0.592103   222A     -0.592100
     223A     -0.587577   224A     -0.577886   225A     -0.577876
     226A     -0.575739   227A     -0.575735   228A     -0.573502
     229A     -0.569570   230A     -0.568313   231A     -0.568289
     232A     -0.566892   233A     -0.566882   234A     -0.561006
     235A     -0.558871   236A     -0.558853   237A     -0.558523
     238A     -0.554503   239A     -0.550635   240A     -0.547565
     241A     -0.544346   242A     -0.535042   243A     -0.535002
     244A     -0.533665   245A     -0.533643   246A     -0.528191
     247A     -0.528176   248A     -0.527973   249A     -0.517332
     250A     -0.517298   251A     -0.515431   252A     -0.515425
     253A     -0.509754   254A     -0.509738   255A     -0.498150
     256A     -0.496582   257A     -0.496556   258A     -0.493849
     259A     -0.493839   260A     -0.489482   261A     -0.481562
     262A     -0.477494   263A     -0.477490   264A     -0.474115
     265A     -0.469586   266A     -0.466663   267A     -0.466658
     268A     -0.458883   269A     -0.446878   270A     -0.446817
     271A     -0.441107   272A     -0.440832   273A     -0.440808
     274A     -0.434762   275A     -0.433979   276A     -0.407456
     277A     -0.407431   278A     -0.386492   279A     -0.386444
     280A     -0.385803   281A     -0.385802   282A     -0.383837
     283A     -0.354406   284A     -0.354390   285A     -0.350744
     286A     -0.338178   287A     -0.335678   288A     -0.335609
     289A     -0.332786   290A     -0.332779   291A     -0.307172
     292A     -0.302035   293A     -0.301972   294A     -0.300919
     295A     -0.286249   296A     -0.256532   297A     -0.253586
     298A     -0.253534   299A     -0.204343   300A     -0.204254

  @DF-RHF Final Energy: -3650.33753895941709

   => Energetics <=

    Nuclear Repulsion Energy =          15611.4211649754324753
    One-Electron Energy =              -36072.0722516525565879
    Two-Electron Energy =               16810.3135477177056600
    Total Energy =                      -3650.3375389594184526
 Dipole X            :         -0.0009189            0.0001983           -0.0007206
 Dipole Y            :          0.0010972           -0.0013163           -0.0002191
 Dipole Z            :        562.2721509         -562.2734838           -0.0013329
 Magnitude           :                                                    0.0015310

    SAPT Results
  --------------------------------------------------------------------------------------------------------
    Electrostatics                  8.08839024 [mEh]       5.07554151 [kcal/mol]      21.23606566 [kJ/mol]
      Elst10,r                      8.08839024 [mEh]       5.07554151 [kcal/mol]      21.23606566 [kJ/mol]

    Exchange                       -0.00014527 [mEh]      -0.00009116 [kcal/mol]      -0.00038140 [kJ/mol]
      Exch10                       -0.00014527 [mEh]      -0.00009116 [kcal/mol]      -0.00038140 [kJ/mol]
      Exch10(S^2)                  -0.00014527 [mEh]      -0.00009116 [kcal/mol]      -0.00038140 [kJ/mol]

    Induction                      -2.97313149 [mEh]      -1.86566818 [kcal/mol]      -7.80595565 [kJ/mol]
      Ind20,r                      -2.98772866 [mEh]      -1.87482804 [kcal/mol]      -7.84428052 [kJ/mol]
      Exch-Ind20,r                  0.00012657 [mEh]       0.00007943 [kcal/mol]       0.00033232 [kJ/mol]
      delta HF,r (2)                0.01447060 [mEh]       0.00908044 [kcal/mol]       0.03799255 [kJ/mol]

    Dispersion                     -0.41133169 [mEh]      -0.25811453 [kcal/mol]      -1.07995119 [kJ/mol]
      Disp20                       -0.41140536 [mEh]      -0.25816076 [kcal/mol]      -1.08014462 [kJ/mol]
      Exch-Disp20                   0.00007367 [mEh]       0.00004623 [kcal/mol]       0.00019342 [kJ/mol]
      Disp20 (SS)                  -0.20570268 [mEh]      -0.12908038 [kcal/mol]      -0.54007231 [kJ/mol]
      Disp20 (OS)                  -0.20570268 [mEh]      -0.12908038 [kcal/mol]      -0.54007231 [kJ/mol]
      Exch-Disp20 (SS)              0.00005689 [mEh]       0.00003570 [kcal/mol]       0.00014937 [kJ/mol]
      Exch-Disp20 (OS)              0.00001678 [mEh]       0.00001053 [kcal/mol]       0.00004406 [kJ/mol]

  Total HF                          5.11511349 [mEh]       3.20978217 [kcal/mol]      13.42972861 [kJ/mol]
  Total SAPT0                       4.70378180 [mEh]       2.95166764 [kcal/mol]      12.34977742 [kJ/mol]

  Special recipe for scaled SAPT0 (see Manual):
    Electrostatics sSAPT0           8.08839024 [mEh]       5.07554151 [kcal/mol]      21.23606566 [kJ/mol]
    Exchange sSAPT0                -0.00014527 [mEh]      -0.00009116 [kcal/mol]      -0.00038140 [kJ/mol]
    Induction sSAPT0               -2.97313149 [mEh]      -1.86566818 [kcal/mol]      -7.80595565 [kJ/mol]
    Dispersion sSAPT0              -0.41133169 [mEh]      -0.25811453 [kcal/mol]      -1.07995119 [kJ/mol]
  Total sSAPT0                      4.70378180 [mEh]       2.95166764 [kcal/mol]      12.34977742 [kJ/mol]
  --------------------------------------------------------------------------------------------------------

*** Psi4 exiting successfully. Buy a developer a beer!
