                               Psi4 1.9 release

  ==> Input File <==

--------------------------------------------------------------------------
memory 32 GB # how much memory is available ! Depends on the nodes/cores !

molecule dimer {
# monomer A
-1 1    # Charge and multiplicity
B -1.977592e-04  2.742729e-04 6.400034
F  1.123153e-16  1.430594e-17 7.812819
F  1.147860e+00  6.757812e-01 5.928893
F  1.191806e-02 -1.332011e+00 5.929095
F -1.159666e+00  6.560735e-01 5.929174
--
# monomer B
0 1     # Charge and multiplicity
C   1.22531237526482      0.70753866091955      0.00613762728373
C   1.22532433589282     -0.70753852257020     -0.00619318228664
C   -0.00000567409046      1.41496628609039     -0.00672680580738
C   2.45644923379077      1.41832825917820      0.00902448468363
C   0.00001130712078     -1.41497612663474      0.00347275151708
C   -1.22530046906674      0.70754574598412      0.00838914760619
C   2.45643823516184     -1.41832293188077     -0.00843833914343
C   -0.00000085313587      2.83680140328112     -0.00913035594137
C   3.68182717731192      0.70931832800114     -0.00808954934571
C   2.45512052870677      2.83422403348893     -0.00819210630633
C   3.68182158506039     -0.70933346742900      0.00798293467272
C   -1.22531311884624     -0.70752714354401     -0.00512042085974
C   1.22670006104402      3.54346985599427      0.00816696660346
C   0.00000526469929     -2.83678176723568      0.00832091913869
C   -2.45643555300670      1.41831729028492      0.00842454345199
C   2.45512389762097     -2.83422965658853      0.00783102630520
C   -1.22671388474763      3.54346943575023      0.00827029982280
C   4.91451777504333      1.42717324448953     -0.00160886631602
C   3.69315067131765      3.54279566454522     -0.00155906667985
C   -2.45643712022637     -1.41831290883911     -0.00846337726810
C   1.22670532178455     -3.54347386990643     -0.00780316414624
C   -2.45512491866593      2.83421703463423     -0.00818572995999
C   4.91452486062398     -1.42718653794377      0.00136387641845
C   1.22142509354026      4.97013443726031      0.00150231067809
C   4.89300870916237      2.82518837202648     -0.00039219795739
C   -1.22669652864725     -3.54347062507680     -0.00753595973677
C   -3.68181849668397      0.70932533873199     -0.00807686886569
C   3.69314758099218     -3.54280096939050      0.00148176697923
C   -1.22143177215231      4.97012866986289      0.00168580605083
C   6.13477145276790      0.68054831910577     -0.00083909176631
C   3.65678936045204      4.97295361556775     -0.00065042889723
C   -2.45512642789169     -2.83421472106065      0.00758666850712
C   -3.68181869921921     -0.70932533146830      0.00810055625144
C   4.89301309775526     -2.82519973363176      0.00021895393805
C   -0.00000059327114      5.65044773803267      0.00045449734393
C   6.13477559217374     -0.68055448207492      0.00042622874941
C   2.47813196269732      5.65357712333155      0.00063835075260
C   1.22142288457925     -4.97012668293268     -0.00129718634452
C   -3.69316190412301      3.54279732619245     -0.00139355922051
C   -1.22142804110313     -4.97011793159564     -0.00140994817719
C   -4.91452132810043      1.42717581899491     -0.00153192130862
C   3.65678749952045     -4.97295485423912      0.00080007163680
C   -2.47813805026426      5.65357479452875      0.00092287576113
C   -3.69314125872231     -3.54278984697859      0.00136564082345
C   -4.91451200321153     -1.42718062802730      0.00139857359209
C   -0.00000552908399     -5.65043791501335      0.00005899322272
C   -4.89302000425900      2.82518897091939     -0.00040227981744
C   2.47812647313991     -5.65357317188818     -0.00029052915548
C   -3.65679823041642      4.97295655404175     -0.00047374852278
C   -4.89299899901461     -2.82519139505969      0.00006491824035
C   -2.47812801824129     -5.65356579800621     -0.00056571680280
C   -6.13477002348955      0.68054913825639     -0.00086464346868
C   -3.65678835334731     -4.97294365097028      0.00058578382008
C   -6.13476456307132     -0.68055354348201      0.00040575295444
H   5.83528897565761      3.36927626695423      0.00396712770529
H   7.07385965258860      1.22821762089947     -0.00037744837300
H   4.60066374401555      5.51238117445323     -0.00014522814529
H   5.83528386714679     -3.36930568472863     -0.00423551337640
H   -0.00001167146422      6.73853104613662     -0.00389474766392
H   7.07386165167227     -1.22822657074368     -0.00008250934481
H   2.47331421164041      6.74068466339473      0.00017162982210
H   4.60066897122302     -5.51237575717576      0.00039007446835
H   -2.47331820069565      6.74068209160650      0.00047297644710
H   -0.00000978838621     -6.73852780445195      0.00458867820736
H   -5.83530143450167      3.36927132229595      0.00410314985360
H   2.47330840367253     -6.74068500242887      0.00027980126949
H   -4.60067436136587      5.51237839860371      0.00002010017831
H   -5.83527902699321     -3.36928859177951     -0.00451481925734
H   -2.47329986759855     -6.74067870613986     -0.00016951527498
H   -7.07385728692578      1.22822084484047     -0.00046143985387
H   -4.60067330624313     -5.51236229778631      0.00021776644566
H   -7.07385645456741     -1.22822025997701     -0.00017736581114

    units angstrom      # Angstroms are the default
    no_reorient         # Geometry fixed, default
    symmetry c1         # C1 symmetry, default
}

set {
    scf_type DF         # Density fitting, faster than exact integrals
    freeze_core True    # Freeze core electrons
    basis jun-cc-pVDZ   # Jun-cc-pVDZ basis set, recommended for sSAPT0 in https://doi.org/10.1063/1.4867135
}

energy('ssapt0')        # Compute sSAPT0 energy, includes also SAPT0
--------------------------------------------------------------------------

  //              Dimer HF             //
    Molecular point group: c1
  Charge       = -1
  Multiplicity = 1
  Basis Set: JUN-CC-PVDZ
    Blend: JUN-CC-PVDZ
  Basis Set: (JUN-CC-PVDZ AUX)
    Blend: JUN-CC-PVDZ-JKFIT
  @DF-RHF Final Energy: -2478.65781597523028
    Total Energy =                      -2478.6578159752298234
 Dipole X            :         -0.0005534            0.0000481           -0.0005053
 Dipole Y            :          0.0010679           -0.0001453            0.0009226
 Dipole Z            :         29.3786854          -39.2339791           -9.8552936
 Magnitude           :                                                    9.8552937
  //            Monomer A HF           //
    Molecular point group: c1
  Multiplicity = 1
  Basis Set: JUN-CC-PVDZ
    Blend: JUN-CC-PVDZ
  Basis Set: (JUN-CC-PVDZ AUX)
    Blend: JUN-CC-PVDZ-JKFIT
  @DF-RHF Final Energy:  -422.77150214120769
    Total Energy =                       -422.7715021412076908
  //            Monomer B HF           //
    Molecular point group: c1

    Geometry (in Angstrom), charge = 0, multiplicity = 1:

       Center              X                  Y                   Z               Mass
    ------------   -----------------  -----------------  -----------------  -----------------
      Gh(B)          -0.000198161052     0.000273808717     5.660710336786    11.009305360000
      Gh(F)          -0.000000401852    -0.000000464183     7.073495336786    18.998403162730
      Gh(F)           1.147859598148     0.675780735817     5.189569336786    18.998403162730
      Gh(F)           0.011917658148    -1.332011464183     5.189771336786    18.998403162730
      Gh(F)          -1.159666401852     0.656073035817     5.189850336786    18.998403162730
         C            1.225311973413     0.707538196736    -0.733186035930    12.000000000000
         C            1.225323934041    -0.707538986754    -0.745516845500    12.000000000000
         C           -0.000006075942     1.414965821907    -0.746050469021    12.000000000000
         C            2.456448831939     1.418327794995    -0.730299178530    12.000000000000
         C            0.000010905269    -1.414976590818    -0.735850911697    12.000000000000
         C           -1.225300870919     0.707545281801    -0.730934515608    12.000000000000
         C            2.456437833310    -1.418323396064    -0.747762002357    12.000000000000
         C           -0.000001254988     2.836800939098    -0.748454019155    12.000000000000
         C            3.681826775460     0.709317863818    -0.747413212559    12.000000000000
         C            2.455120126855     2.834223569306    -0.747515769520    12.000000000000
         C            3.681821183209    -0.709333931612    -0.731340728541    12.000000000000
         C           -1.225313520698    -0.707527607727    -0.744444084074    12.000000000000
         C            1.226699659192     3.543469391811    -0.731156696610    12.000000000000
         C            0.000004862847    -2.836782231419    -0.731002744075    12.000000000000
         C           -2.456435954859     1.418316826102    -0.730899119762    12.000000000000
         C            2.455123495769    -2.834230120772    -0.731492636909    12.000000000000
         C           -1.226714286599     3.543468971567    -0.731053363391    12.000000000000
         C            4.914517373191     1.427172780306    -0.740932529530    12.000000000000
         C            3.693150269466     3.542795200362    -0.740882729894    12.000000000000
         C           -2.456437522078    -1.418313373022    -0.747787040482    12.000000000000
         C            1.226704919933    -3.543474334090    -0.747126827360    12.000000000000
         C           -2.455125320518     2.834216570451    -0.747509393174    12.000000000000
         C            4.914524458772    -1.427187002127    -0.737959786795    12.000000000000
         C            1.221424691688     4.970133973077    -0.737821352536    12.000000000000
         C            4.893008307311     2.825187907843    -0.739715861171    12.000000000000
         C           -1.226696930499    -3.543471089260    -0.746859622951    12.000000000000
         C           -3.681818898536     0.709324874549    -0.747400532079    12.000000000000
         C            3.693147179140    -3.542801433574    -0.737841896235    12.000000000000
         C           -1.221432174004     4.970128205680    -0.737637857163    12.000000000000
         C            6.134771050916     0.680547854922    -0.740162754980    12.000000000000
         C            3.656788958600     4.972953151384    -0.739974092111    12.000000000000
         C           -2.455126829744    -2.834215185244    -0.731736994707    12.000000000000
         C           -3.681819101071    -0.709325795652    -0.731223106962    12.000000000000
         C            4.893012695903    -2.825200197815    -0.739104709276    12.000000000000
         C           -0.000000995123     5.650447273849    -0.738869165870    12.000000000000
         C            6.134775190322    -0.680554946258    -0.738897434464    12.000000000000
         C            2.478131560845     5.653576659148    -0.738685312461    12.000000000000
         C            1.221422482727    -4.970127147116    -0.740620849558    12.000000000000
         C           -3.693162305975     3.542796862009    -0.740717222434    12.000000000000
         C           -1.221428442955    -4.970118395779    -0.740733611391    12.000000000000
         C           -4.914521729952     1.427175354812    -0.740855584522    12.000000000000
         C            3.656787097669    -4.972955318422    -0.738523591577    12.000000000000
         C           -2.478138452116     5.653574330345    -0.738400787453    12.000000000000
         C           -3.693141660574    -3.542790311162    -0.737958022390    12.000000000000
         C           -4.914512405063    -1.427181092211    -0.737925089622    12.000000000000
         C           -0.000005930936    -5.650438379197    -0.739264669991    12.000000000000
         C           -4.893020406111     2.825188506736    -0.739725943031    12.000000000000
         C            2.478126071288    -5.653573636072    -0.739614192369    12.000000000000
         C           -3.656798632268     4.972956089858    -0.739797411737    12.000000000000
         C           -4.892999400866    -2.825191859243    -0.739258744973    12.000000000000
         C           -2.478128420093    -5.653566262190    -0.739889380017    12.000000000000
         C           -6.134770425341     0.680548674073    -0.740188306682    12.000000000000
         C           -3.656788755199    -4.972944115154    -0.738737879394    12.000000000000
         C           -6.134764964923    -0.680554007665    -0.738917910259    12.000000000000
         H            5.835288573806     3.369275802771    -0.735356535508     1.007825032230
         H            7.073859250737     1.228217156716    -0.739701111587     1.007825032230
         H            4.600663342164     5.512380710270    -0.739468891359     1.007825032230
         H            5.835283465295    -3.369306148912    -0.743559176590     1.007825032230
         H           -0.000012073316     6.738530581953    -0.743218410878     1.007825032230
         H            7.073861249820    -1.228227034927    -0.739406172559     1.007825032230
         H            2.473313809789     6.740684199211    -0.739152033392     1.007825032230
         H            4.600668569371    -5.512376221359    -0.738933588745     1.007825032230
         H           -2.473318602548     6.740681627423    -0.738850686767     1.007825032230
         H           -0.000010190238    -6.738528268635    -0.734734985006     1.007825032230
         H           -5.835301836354     3.369270858113    -0.735220513360     1.007825032230
         H            2.473308001821    -6.740685466612    -0.739043861944     1.007825032230
         H           -4.600674763218     5.512377934420    -0.739303563035     1.007825032230
         H           -5.835279428845    -3.369289055963    -0.743838482471     1.007825032230
         H           -2.473300269450    -6.740679170323    -0.739493178489     1.007825032230
         H           -7.073857688778     1.228220380657    -0.739785103068     1.007825032230
         H           -4.600673708095    -5.512362761970    -0.739105896768     1.007825032230
         H           -7.073856856419    -1.228220724160    -0.739501029025     1.007825032230

  Charge       = 0
  Multiplicity = 1
  Basis Set: JUN-CC-PVDZ
    Blend: JUN-CC-PVDZ
  Basis Set: (JUN-CC-PVDZ AUX)
    Blend: JUN-CC-PVDZ-JKFIT

    Orbital Energies [Eh]
    ---------------------

    Doubly Occupied:

       1A    -11.260666     2A    -11.260223     3A    -11.260221
       4A    -11.259512     5A    -11.259512     6A    -11.259342
       7A    -11.259133     8A    -11.259055     9A    -11.259054
      10A    -11.258729    11A    -11.258726    12A    -11.258657
      13A    -11.258595    14A    -11.258590    15A    -11.258587
      16A    -11.258558    17A    -11.258552    18A    -11.258536
      19A    -11.258523    20A    -11.258517    21A    -11.258512
      22A    -11.258413    23A    -11.258410    24A    -11.258111
      25A    -11.257451    26A    -11.257390    27A    -11.257389
      28A    -11.257254    29A    -11.257253    30A    -11.257169
      31A    -11.256547    32A    -11.256476    33A    -11.256475
      34A    -11.256366    35A    -11.256365    36A    -11.256318
      37A    -11.252394    38A    -11.252394    39A    -11.252392
      40A    -11.252391    41A    -11.252389    42A    -11.252387
      43A    -11.251527    44A    -11.251524    45A    -11.251523
      46A    -11.251517    47A    -11.251517    48A    -11.251512
      49A    -11.250956    50A    -11.250955    51A    -11.250953
      52A    -11.250951    53A    -11.250950    54A    -11.250948
      55A     -1.244282    56A     -1.220004    57A     -1.220003
      58A     -1.189714    59A     -1.189706    60A     -1.181153
      61A     -1.157715    62A     -1.149146    63A     -1.135693
      64A     -1.135687    65A     -1.113348    66A     -1.113343
      67A     -1.082618    68A     -1.082611    69A     -1.078800
      70A     -1.066132    71A     -1.066128    72A     -1.039569
      73A     -1.024476    74A     -1.021979    75A     -1.021936
      76A     -1.017880    77A     -1.012942    78A     -0.987209
      79A     -0.987163    80A     -0.962040    81A     -0.961991
      82A     -0.894459    83A     -0.894432    84A     -0.888151
      85A     -0.886398    86A     -0.886340    87A     -0.881588
      88A     -0.881541    89A     -0.862064    90A     -0.837546
      91A     -0.818380    92A     -0.816818    93A     -0.812327
      94A     -0.812318    95A     -0.794846    96A     -0.794835
      97A     -0.746826    98A     -0.745053    99A     -0.733619
     100A     -0.733610   101A     -0.732344   102A     -0.732321
     103A     -0.716688   104A     -0.699140   105A     -0.699130
     106A     -0.693765   107A     -0.693750   108A     -0.661391
     109A     -0.653319   110A     -0.651364   111A     -0.650409
     112A     -0.650403   113A     -0.639521   114A     -0.639518
     115A     -0.629902   116A     -0.627713   117A     -0.627697
     118A     -0.606469   119A     -0.605929   120A     -0.601854
     121A     -0.599909   122A     -0.599878   123A     -0.593813
     124A     -0.591438   125A     -0.591428   126A     -0.585413
     127A     -0.576415   128A     -0.576409   129A     -0.567471
     130A     -0.567457   131A     -0.566152   132A     -0.566133
     133A     -0.558927   134A     -0.555013   135A     -0.555007
     136A     -0.538751   137A     -0.538749   138A     -0.538283
     139A     -0.538277   140A     -0.529886   141A     -0.528204
     142A     -0.523041   143A     -0.523035   144A     -0.500660
     145A     -0.495713   146A     -0.493398   147A     -0.487942
     148A     -0.485255   149A     -0.481936   150A     -0.481928
     151A     -0.470431   152A     -0.470413   153A     -0.451236
     154A     -0.451158   155A     -0.439183   156A     -0.439174
     157A     -0.404862   158A     -0.404839   159A     -0.403484
     160A     -0.375538   161A     -0.375535   162A     -0.349241
     163A     -0.337708   164A     -0.336674   165A     -0.336617
     166A     -0.311218   167A     -0.298206   168A     -0.284473
     169A     -0.284419   170A     -0.225042   171A     -0.224976

  @DF-RHF Final Energy: -2055.89177541867775

   => Energetics <=

    Nuclear Repulsion Energy =           6452.5568002797772351
    One-Electron Energy =              -15636.4295799857063685
    Two-Electron Energy =                7127.9810042872513804
    Total Energy =                      -2055.8917754186777529
 Dipole X            :          0.0000491            0.0000419            0.0000910
 Dipole Y            :          0.0000256           -0.0000426           -0.0000170
 Dipole Z            :        477.8138733         -477.8162236           -0.0023503
 Magnitude           :                                                    0.0023521

    SAPT Results
  --------------------------------------------------------------------------------------------------------
    Electrostatics                  8.47421989 [mEh]       5.31765326 [kcal/mol]      22.24906126 [kJ/mol]
      Elst10,r                      8.47421989 [mEh]       5.31765326 [kcal/mol]      22.24906126 [kJ/mol]

    Exchange                       -0.00009091 [mEh]      -0.00005705 [kcal/mol]      -0.00023868 [kJ/mol]
      Exch10                       -0.00009091 [mEh]      -0.00005705 [kcal/mol]      -0.00023868 [kJ/mol]
      Exch10(S^2)                  -0.00009091 [mEh]      -0.00005705 [kcal/mol]      -0.00023868 [kJ/mol]

    Induction                      -3.01254433 [mEh]      -1.89040010 [kcal/mol]      -7.90943404 [kJ/mol]
      Ind20,r                      -3.03538602 [mEh]      -1.90473348 [kcal/mol]      -7.96940490 [kJ/mol]
      Exch-Ind20,r                  0.00026205 [mEh]       0.00016444 [kcal/mol]       0.00068802 [kJ/mol]
      delta HF,r (2)                0.02257964 [mEh]       0.01416894 [kcal/mol]       0.05928284 [kJ/mol]

    Dispersion                     -0.58934666 [mEh]      -0.36982061 [kcal/mol]      -1.54732944 [kJ/mol]
      Disp20                       -0.58965217 [mEh]      -0.37001232 [kcal/mol]      -1.54813155 [kJ/mol]
      Exch-Disp20                   0.00030551 [mEh]       0.00019171 [kcal/mol]       0.00080212 [kJ/mol]
      Disp20 (SS)                  -0.29482608 [mEh]      -0.18500616 [kcal/mol]      -0.77406578 [kJ/mol]
      Disp20 (OS)                  -0.29482608 [mEh]      -0.18500616 [kcal/mol]      -0.77406578 [kJ/mol]
      Exch-Disp20 (SS)              0.00023645 [mEh]       0.00014838 [kcal/mol]       0.00062081 [kJ/mol]
      Exch-Disp20 (OS)              0.00006906 [mEh]       0.00004333 [kcal/mol]       0.00018131 [kJ/mol]

  Total HF                          5.46158466 [mEh]       3.42719611 [kcal/mol]      14.33938854 [kJ/mol]
  Total SAPT0                       4.87223800 [mEh]       3.05737550 [kcal/mol]      12.79205910 [kJ/mol]

  Special recipe for scaled SAPT0 (see Manual):
    Electrostatics sSAPT0           8.47421989 [mEh]       5.31765326 [kcal/mol]      22.24906126 [kJ/mol]
    Exchange sSAPT0                -0.00009091 [mEh]      -0.00005705 [kcal/mol]      -0.00023868 [kJ/mol]
    Induction sSAPT0               -3.01254433 [mEh]      -1.89040010 [kcal/mol]      -7.90943404 [kJ/mol]
    Dispersion sSAPT0              -0.58934666 [mEh]      -0.36982061 [kcal/mol]      -1.54732944 [kJ/mol]
  Total sSAPT0                      4.87223800 [mEh]       3.05737550 [kcal/mol]      12.79205910 [kJ/mol]
  --------------------------------------------------------------------------------------------------------

*** Psi4 exiting successfully. Buy a developer a beer!
