                               Psi4 1.9 release

  ==> Input File <==

--------------------------------------------------------------------------
memory 80 GB # how much memory is available ! Depends on the nodes/cores !

molecule dimer {
# monomer A
+1 1    # Charge and multiplicity
C  0.680067 -1.215929 2.808042
C -0.680504 -1.215545 2.806014
N -1.085635  0.102779 2.805016
C  0.000108  0.884180 2.801740
C -2.477365  0.570758 2.755610
N  1.085222  0.102779 2.805016
H  1.385146 -2.033368 2.815870
H -1.385302 -2.033214 2.806204
H -0.000009  1.965269 2.799993
C  2.478117  0.567877 2.821908
H  2.490592  1.658130 2.794563
H  2.967028  0.220701 3.735354
H  3.001428  0.176405 1.946425
H -2.857359  0.490799 1.733539
H -3.082679 -0.042306 3.425694
H -2.518128  1.610706 3.082594
--
# monomer B
0 1     # Charge and multiplicity
C   -3.66844126402057      7.80375217008252      0.00190004133558
C   -4.84759871934653      7.13124183134024     -0.00046653359696
C   -4.89495929917518      5.69633040353158     -0.00103944469517
C   -3.65374067877320      4.98073034095895      0.00662099703436
C   -2.40942512149445      7.11398103667468      0.00209438359570
C   -2.42547734410473      5.68112195090346     -0.00491050527438
C   -1.19474401643570      7.78614419430947      0.00356656413763
C   0.03795902893699      7.09942164575698      0.00139585983271
C   0.03033258741920      5.66948955970466     -0.00408752508301
C   -1.20098450790502      4.96927034791531      0.00488220885047
C   1.27795782581485      7.77285944319479      0.00277170839332
C   2.48535808472416      7.08769688523756      0.00049722048857
C   2.48612868491717      5.65477081024076     -0.00644052849921
C   1.25408291964399      4.95607811366431      0.00518741308898
C   3.75171459140595      7.76391215098033      0.00062407186893
C   4.92356605618520      7.07878077698995     -0.00143240883900
C   4.95560727132542      5.64344746336949     -0.00159282164606
C   3.70680153420475      4.94121020833308      0.00349873852374
H   -3.65852113775815      8.89082741913536      0.00358502958574
H   -1.18921332975660      8.87412108735996      0.00753844057883
H   1.28429423888630      8.86083343548850      0.00693053253426
H   3.75354208679975      8.85103527897216      0.00214659618464
H   5.86995870320703      7.61379483465560     -0.00235777588134
H   -5.78823170750226      7.67630221293400     -0.00202638095293
C   -6.09197395869619      4.99326001364347     -0.00291168518608
C   -6.12866148031747      3.58258016879823     -0.00171050815740
C   -3.66457974004527      3.56418217974434     -0.00463560277484
C   -4.89429820469869      2.86108077590057      0.00453338221034
C   -2.43733499489796      2.84761165708481      0.00719617576166
C   -1.20922785759670      3.54788693497833     -0.00648285103018
C   1.24714157216223      3.53468075142962     -0.00729145743546
C   0.01517603956900      2.83311183930540      0.00439272578912
C   2.46764517244071      2.82128997725533      0.00449278391269
C   3.70254947457969      3.52466015442405     -0.00899517692985
C   6.14498038638375      4.92757236613191     -0.00282626685777
C   6.16658835886151      3.51658447594213     -0.00065971342101
C   4.92460995845939      2.80840792535402      0.00587903281610
H   7.08990550964105      5.46688776622306     -0.00658814770723
H   -7.03104175110130      5.54268795285765     -0.00714490013730
C   -7.33969804112295      2.85841153457957     -0.00333767559888
C   -7.36488195805880      1.47032337158330     -0.00157213747140
C   -4.90350460894690      1.44442681216000     -0.00628840166334
C   -6.13225715261081      0.73993935705394      0.00600164231964
C   -3.67687480051673      0.72669714267312      0.00433931473643
C   -2.44565658606518      1.42964113326212     -0.00597039546461
C   -1.22360068130162      0.71532450163492      0.00545886906656
C   0.00763786931376      1.41738314923765      0.00392452278437
C   1.23121980774686      0.70211669058719     -0.01490206287210
C   2.46082110053113      1.40329203612573      0.00460244601878
C   3.68443025419614      0.68719842821222      0.00377365974158
C   4.91870890153864      1.39173456118907     -0.00862816189375
C   7.36980207796101      2.77948220318441     -0.00242013321349
C   7.38016266612146      1.39121750785509     -0.00087345036788
C   6.13979953912259      0.67411862320065      0.00545489144369
H   -8.27919079934664      3.40711804112415     -0.00763522772059
H   8.31511347147953      3.31811809662368     -0.00663070901292
C   -8.59175593758115      0.72483255304480     -0.00123170985383
C   -8.59902460370342     -0.63263980622873      0.00089141472904
C   -6.13981313911873     -0.67413663715361     -0.00609792660607
C   -7.38018411213749     -1.39126618958160      0.00131813493501
C   -4.91868448025621     -1.39175501803000      0.00624257154343
C   -3.68443829568458     -0.68723731573599     -0.00478966852105
C   -2.46081704024768     -1.40334517882457      0.00575341766833
C   -1.23116201232071     -0.70217386488055     -0.00636696112346
C   -0.00756962538737     -1.41741884941102      0.00108956317991
C   1.22364771588843     -0.71527537726392      0.01109518512883
C   2.44567064933149     -1.42964328900682     -0.00065482763106
C   3.67686670284649     -0.72670743155550     -0.00479541202602
C   6.13224884641929     -0.73997883984993     -0.00632338623858
C   4.90351914550401     -1.44445752054090      0.00751768830159
C   8.59901484869081      0.63260386666793     -0.00101133422380
C   8.59174548810050     -0.72485086719319      0.00072504603735
C   7.36486276438985     -1.47033266560598      0.00049486934466
H   -9.52830597181814      1.27684744919284     -0.00270163681798
H   9.54141097460619      1.17457248844457     -0.00206336648518
C   -7.36983790976868     -2.77954514593389      0.00312634335708
C   -4.92459910905015     -2.80843725734101     -0.00460528907921
C   -6.16662249566744     -3.51665219282533      0.00169655107992
C   -3.70251035970491     -3.52468154912026      0.00571878010666
C   -2.46764698511392     -2.82132596280400     -0.00632585824990
C   -0.01513347410770     -2.83314164539971     -0.00604426974092
C   -1.24712184122656     -3.53473217556300      0.00551968366725
C   1.20924506964357     -3.54791467864352      0.00805871345849
C   2.43733602215464     -2.84764173817541     -0.00608104485234
C   4.89430234377080     -2.86112296828604     -0.00526030478103
C   3.66461525504104     -3.56421984553201      0.00761911515957
C   6.12863901474565     -3.58258405771778      0.00096495711699
C   7.33967266469532     -2.85841330737039      0.00248018319869
H   -9.54144911125902     -1.17456346666430      0.00226083090216
H   9.52826186807155     -1.27691907390448      0.00197485379837
H   -8.31516504384864     -3.31814985321231      0.00729857188773
H   8.27915514249207     -3.40714078989363      0.00681973918158
C   -6.14499418870218     -4.92764727278338      0.00302254913999
C   -3.70678334799751     -4.94126171411716     -0.00679841894792
C   -4.95559005800169     -5.64349397349412      0.00116871569699
C   -2.48612132622665     -5.65478557440947      0.00614125209662
C   -1.25405833548005     -4.95612205000132     -0.00503435388927
C   1.20101257386816     -4.96928038819302     -0.00385322963129
C   -0.03033667441341     -5.66952030313900      0.00398997003238
C   3.65375010132847     -4.98074377541453     -0.00309522988330
C   2.42549269587528     -5.68117463552727      0.00628170066869
C   6.09196561781097     -4.99325796338655      0.00325918379042
C   4.89497644461045     -5.69634842095790      0.00202298796027
H   -7.08989238804069     -5.46699984223871      0.00742531082125
H   7.03105520920009     -5.54265853633254      0.00683896355417
C   -4.92354532219813     -7.07882109967734      0.00061394679214
C   -2.48534208823777     -7.08772807792913     -0.00189594564379
C   -3.75168589177895     -7.76394715763627     -0.00170126671874
C   -0.03794895698805     -7.09946487446944     -0.00168022049625
C   -1.27795610040136     -7.77290438466689     -0.00366491325785
C   2.40944432072629     -7.11402201200282     -0.00081701968533
C   1.19474993715296     -7.78618536556242     -0.00296931056689
C   4.84762105249800     -7.13126211057943      0.00168979497423
C   3.66847160587561     -7.80378799294376     -0.00065863938960
H   -5.86994035041618     -7.61383059804164      0.00215798365757
H   5.78824962538815     -7.67633218931421      0.00281691445618
H   -3.75352693944918     -8.85107156923607     -0.00353718114765
H   -1.28430440589466     -8.86087539249706     -0.00809229711623
H   1.18922157469537     -8.87416062058945     -0.00706194725726
H   3.65854661482387     -8.89086063405326     -0.00231318081200

    units angstrom      # Angstroms are the default
    no_reorient         # Geometry fixed, default
    symmetry c1         # C1 symmetry, default
}

set {
    scf_type DF         # Density fitting, faster than exact integrals
    freeze_core True    # Freeze core electrons
    basis jun-cc-pVDZ   # Jun-cc-pVDZ basis set, recommended for sSAPT0 in https://doi.org/10.1063/1.4867135
}

energy('ssapt0')        # Compute sSAPT0 energy, includes also SAPT0
--------------------------------------------------------------------------

  //              Dimer HF             //
    Molecular point group: c1
  Charge       = 1
  Multiplicity = 1
  Basis Set: JUN-CC-PVDZ
    Blend: JUN-CC-PVDZ
  Basis Set: (JUN-CC-PVDZ AUX)
    Blend: JUN-CC-PVDZ-JKFIT
  @DF-RHF Final Energy: -3953.58358287693864
    Total Energy =                      -3953.5835828769377258
 Dipole X            :         -0.0053737            0.0004804           -0.0048933
 Dipole Y            :         -1.6777331            1.8866171            0.2088840
 Dipole Z            :        -14.0303223           16.9484448            2.9181224
 Magnitude           :                                                    2.9255931
  //            Monomer A HF           //
    Molecular point group: c1
  Multiplicity = 1
  Basis Set: JUN-CC-PVDZ
    Blend: JUN-CC-PVDZ
  Basis Set: (JUN-CC-PVDZ AUX)
    Blend: JUN-CC-PVDZ-JKFIT
  @DF-RHF Final Energy:  -303.30029535896188
    Total Energy =                       -303.3002953589618755
  //            Monomer B HF           //
    Molecular point group: c1

    Geometry (in Angstrom), charge = 0, multiplicity = 1:

       Center              X                  Y                   Z               Mass
    ------------   -----------------  -----------------  -----------------  -----------------
      Gh(C)           0.680062820275    -1.215917226251     2.594560517309    12.000000000000
      Gh(C)          -0.680508179725    -1.215533226251     2.592532517309    12.000000000000
      Gh(N)          -1.085639179725     0.102790773749     2.591534517309    14.003074004430
      Gh(C)           0.000103820275     0.884191773749     2.588258517309    12.000000000000
      Gh(C)          -2.477369179725     0.570769773749     2.542128517309    12.000000000000
      Gh(N)           1.085217820275     0.102790773749     2.591534517309    14.003074004430
      Gh(H)           1.385141820275    -2.033356226251     2.602388517309     1.007825032230
      Gh(H)          -1.385306179725    -2.033202226251     2.592722517309     1.007825032230
      Gh(H)          -0.000013179725     1.965280773749     2.586511517309     1.007825032230
      Gh(C)           2.478112820275     0.567888773749     2.608426517309    12.000000000000
      Gh(H)           2.490587820275     1.658141773750     2.581081517309     1.007825032230
      Gh(H)           2.967023820275     0.220712773749     3.521872517309     1.007825032230
      Gh(H)           3.001423820275     0.176416773749     1.732943517309     1.007825032230
      Gh(H)          -2.857363179725     0.490810773749     1.520057517309     1.007825032230
      Gh(H)          -3.082683179725    -0.042294226251     3.212212517309     1.007825032230
      Gh(H)          -2.518132179725     1.610717773749     2.869112517309     1.007825032230
         C           -3.668445443746     7.803763943832    -0.211581441355    12.000000000000
         C           -4.847602899072     7.131253605090    -0.213948016288    12.000000000000
         C           -4.894963478901     5.696342177281    -0.214520927386    12.000000000000
         C           -3.653744858499     4.980742114708    -0.206860485656    12.000000000000
         C           -2.409429301220     7.113992810424    -0.211387099095    12.000000000000
         C           -2.425481523830     5.681133724653    -0.218391987965    12.000000000000
         C           -1.194748196161     7.786155968059    -0.209914918553    12.000000000000
         C            0.037954849212     7.099433419506    -0.212085622858    12.000000000000
         C            0.030328407694     5.669501333454    -0.217569007774    12.000000000000
         C           -1.200988687630     4.969282121665    -0.208599273840    12.000000000000
         C            1.277953646089     7.772871216944    -0.210709774297    12.000000000000
         C            2.485353904999     7.087708658987    -0.212984262202    12.000000000000
         C            2.486124505192     5.654782583990    -0.219922011190    12.000000000000
         C            1.254078739919     4.956089887414    -0.208294069602    12.000000000000
         C            3.751710411681     7.763923924730    -0.212857410822    12.000000000000
         C            4.923561876460     7.078792550739    -0.214913891530    12.000000000000
         C            4.955603091600     5.643459237119    -0.215074304337    12.000000000000
         C            3.706797354479     4.941221982083    -0.209982744167    12.000000000000
         H           -3.658525317484     8.890839192885    -0.209896453105     1.007825032230
         H           -1.189217509482     8.874132861109    -0.205943042112     1.007825032230
         H            1.284290059161     8.860845209238    -0.206550950156     1.007825032230
         H            3.753537907074     8.851047052722    -0.211334886506     1.007825032230
         H            5.869954523482     7.613806608405    -0.215839258572     1.007825032230
         H           -5.788235887228     7.676313986684    -0.215507863644     1.007825032230
         C           -6.091978138422     4.993271787393    -0.216393167877    12.000000000000
         C           -6.128665660043     3.582591942548    -0.215191990848    12.000000000000
         C           -3.664583919771     3.564193953494    -0.218117085465    12.000000000000
         C           -4.894302384424     2.861092549650    -0.208948100480    12.000000000000
         C           -2.437339174623     2.847623430834    -0.206285306929    12.000000000000
         C           -1.209232037322     3.547898708728    -0.219964333721    12.000000000000
         C            1.247137392437     3.534692525179    -0.220772940126    12.000000000000
         C            0.015171859844     2.833123613055    -0.209088756901    12.000000000000
         C            2.467640992715     2.821301751005    -0.208988698778    12.000000000000
         C            3.702545294854     3.524671928174    -0.222476659620    12.000000000000
         C            6.144976206658     4.927584139881    -0.216307749548    12.000000000000
         C            6.166584179136     3.516596249692    -0.214141196112    12.000000000000
         C            4.924605778734     2.808419699104    -0.207602449874    12.000000000000
         H            7.089901329916     5.466899539973    -0.220069630398     1.007825032230
         H           -7.031045930827     5.542699726607    -0.220626382828     1.007825032230
         C           -7.339702220848     2.858423308329    -0.216819158289    12.000000000000
         C           -7.364886137784     1.470335145333    -0.215053620162    12.000000000000
         C           -4.903508788672     1.444438585909    -0.219769884354    12.000000000000
         C           -6.132261332336     0.739951130803    -0.207479840371    12.000000000000
         C           -3.676878980242     0.726708916423    -0.209142167954    12.000000000000
         C           -2.445660765791     1.429652907012    -0.219451878155    12.000000000000
         C           -1.223604861027     0.715336275384    -0.208022613624    12.000000000000
         C            0.007633689588     1.417394922987    -0.209556959906    12.000000000000
         C            1.231215628021     0.702128464337    -0.228383545563    12.000000000000
         C            2.460816920806     1.403303809875    -0.208879036672    12.000000000000
         C            3.684426074471     0.687210201962    -0.209707822949    12.000000000000
         C            4.918704721813     1.391746334939    -0.222109644584    12.000000000000
         C            7.369797898236     2.779493976934    -0.215901615904    12.000000000000
         C            7.380158486396     1.391229281605    -0.214354933058    12.000000000000
         C            6.139795359397     0.674130396950    -0.208026591247    12.000000000000
         H           -8.279194979072     3.407129814874    -0.221116710411     1.007825032230
         H            8.315109291754     3.318129870373    -0.220112191704     1.007825032230
         C           -8.591760117307     0.724844326794    -0.214713192544    12.000000000000
         C           -8.599028783429    -0.632628032479    -0.212590067962    12.000000000000
         C           -6.139817318844    -0.674124863404    -0.219579409297    12.000000000000
         C           -7.380188291863    -1.391254415832    -0.212163347756    12.000000000000
         C           -4.918688659982    -1.391743244281    -0.207238911147    12.000000000000
         C           -3.684442475410    -0.687225541986    -0.218271151212    12.000000000000
         C           -2.460821219973    -1.403333405075    -0.207728065022    12.000000000000
         C           -1.231166192046    -0.702162091131    -0.219848443814    12.000000000000
         C           -0.007573805113    -1.417407075662    -0.212391919511    12.000000000000
         C            1.223643536163    -0.715263603514    -0.202386297562    12.000000000000
         C            2.445666469606    -1.429631515257    -0.214136310322    12.000000000000
         C            3.676862523121    -0.726695657806    -0.218276894717    12.000000000000
         C            6.132244666694    -0.739967066100    -0.219804868929    12.000000000000
         C            4.903514965779    -1.444445746791    -0.205963794389    12.000000000000
         C            8.599010668965     0.632615640417    -0.214492816914    12.000000000000
         C            8.591741308375    -0.724839093444    -0.212756436653    12.000000000000
         C            7.364858584664    -1.470320891856    -0.212986613346    12.000000000000
         H           -9.528310151544     1.276859222942    -0.216183119509     1.007825032230
         H            9.541406794881     1.174584262194    -0.215544849176     1.007825032230
         C           -7.369842089494    -2.779533372184    -0.210355139334    12.000000000000
         C           -4.924603288776    -2.808425483592    -0.218086771770    12.000000000000
         C           -6.166626675393    -3.516640419076    -0.211784931611    12.000000000000
         C           -3.702514539430    -3.524669775371    -0.207762702584    12.000000000000
         C           -2.467651164839    -2.821314189055    -0.219807340940    12.000000000000
         C           -0.015137653833    -2.833129871650    -0.219525752432    12.000000000000
         C           -1.247126020952    -3.534720401814    -0.207961799023    12.000000000000
         C            1.209240889918    -3.547902904894    -0.205422769232    12.000000000000
         C            2.437331842429    -2.847629964426    -0.219562527543    12.000000000000
         C            4.894298164045    -2.861111194537    -0.218741787472    12.000000000000
         C            3.664611075316    -3.564208071783    -0.205862367531    12.000000000000
         C            6.128634835020    -3.582572283968    -0.212516525574    12.000000000000
         C            7.339668484970    -2.858401533621    -0.211001299492    12.000000000000
         H           -9.541453290984    -1.174551692915    -0.211220651788     1.007825032230
         H            9.528257688346    -1.276907300155    -0.211506628892     1.007825032230
         H           -8.315169223574    -3.318138079463    -0.206182910803     1.007825032230
         H            8.279150962767    -3.407129016144    -0.206661743509     1.007825032230
         C           -6.144998368428    -4.927635499034    -0.210458933551    12.000000000000
         C           -3.706787527723    -4.941249940368    -0.220279901639    12.000000000000
         C           -4.955594237727    -5.643482199745    -0.212312766994    12.000000000000
         C           -2.486125505952    -5.654773800660    -0.207340230594    12.000000000000
         C           -1.254062515205    -4.956110276252    -0.218515836580    12.000000000000
         C            1.201008394143    -4.969268614444    -0.217334712322    12.000000000000
         C           -0.030340854139    -5.669508529390    -0.209491512658    12.000000000000
         C            3.653745921603    -4.980732001665    -0.216576712574    12.000000000000
         C            2.425488516150    -5.681162861778    -0.207199782022    12.000000000000
         C            6.091961438086    -4.993246189637    -0.210222298900    12.000000000000
         C            4.894972264885    -5.696336647208    -0.211458494730    12.000000000000
         H           -7.089896567766    -5.466988068489    -0.206056171869     1.007825032230
         H            7.031051029475    -5.542646762583    -0.206642519136     1.007825032230
         C           -4.923549501924    -7.078809325928    -0.212867535898    12.000000000000
         C           -2.485346267963    -7.087716304180    -0.215377428334    12.000000000000
         C           -3.751690071504    -7.763935383887    -0.215182749409    12.000000000000
         C           -0.037953136713    -7.099453100720    -0.215161703187    12.000000000000
         C           -1.277960280127    -7.772892610917    -0.217146395948    12.000000000000
         C            2.409440141001    -7.114010238253    -0.214298502376    12.000000000000
         C            1.194745757428    -7.786173591813    -0.216450793257    12.000000000000
         C            4.847616872773    -7.131250336830    -0.211791687716    12.000000000000
         C            3.668467426150    -7.803776219194    -0.214140122080    12.000000000000
         H           -5.869944530142    -7.613818824292    -0.211323499033     1.007825032230
         H            5.788245445663    -7.676320415565    -0.210664568234     1.007825032230
         H           -3.753531119175    -8.851059795487    -0.217018663838     1.007825032230
         H           -1.284308585620    -8.860863618748    -0.221573779807     1.007825032230
         H            1.189217394970    -8.874148846840    -0.220543429948     1.007825032230
         H            3.658542435098    -8.890848860304    -0.215794663503     1.007825032230

  Charge       = 0
  Multiplicity = 1
  Basis Set: JUN-CC-PVDZ
    Blend: JUN-CC-PVDZ
  Basis Set: (JUN-CC-PVDZ AUX)
    Blend: JUN-CC-PVDZ-JKFIT

    Orbital Energies [Eh]
    ---------------------

    Doubly Occupied:

       1A    -11.264101     2A    -11.263752     3A    -11.263717
       4A    -11.263333     5A    -11.263312     6A    -11.263246
       7A    -11.263133     8A    -11.263126     9A    -11.263063
      10A    -11.262846    11A    -11.262747    12A    -11.262698
      13A    -11.262235    14A    -11.262226    15A    -11.262182
      16A    -11.262175    17A    -11.262040    18A    -11.262029
      19A    -11.262004    20A    -11.261937    21A    -11.261930
      22A    -11.261842    23A    -11.261836    24A    -11.261672
      25A    -11.261664    26A    -11.261634    27A    -11.261626
      28A    -11.261587    29A    -11.261578    30A    -11.261503
      31A    -11.261473    32A    -11.261454    33A    -11.261448
      34A    -11.261435    35A    -11.261427    36A    -11.261405
      37A    -11.261240    38A    -11.261228    39A    -11.261214
      40A    -11.261208    41A    -11.261197    42A    -11.261195
      43A    -11.261187    44A    -11.261169    45A    -11.261163
      46A    -11.261141    47A    -11.261129    48A    -11.261115
      49A    -11.260989    50A    -11.260967    51A    -11.260941
      52A    -11.260900    53A    -11.260888    54A    -11.260822
      55A    -11.259797    56A    -11.259770    57A    -11.259766
      58A    -11.259743    59A    -11.259729    60A    -11.259714
      61A    -11.259155    62A    -11.259128    63A    -11.259119
      64A    -11.259073    65A    -11.259065    66A    -11.259037
      67A    -11.258795    68A    -11.258768    69A    -11.258763
      70A    -11.258740    71A    -11.258727    72A    -11.258715
      73A    -11.254455    74A    -11.254447    75A    -11.254435
      76A    -11.254430    77A    -11.254428    78A    -11.254427
      79A    -11.253562    80A    -11.253539    81A    -11.253537
      82A    -11.253533    83A    -11.253528    84A    -11.253525
      85A    -11.253477    86A    -11.253450    87A    -11.253449
      88A    -11.253448    89A    -11.253442    90A    -11.253440
      91A    -11.252983    92A    -11.252975    93A    -11.252962
      94A    -11.252958    95A    -11.252956    96A    -11.252955
      97A     -1.253724    98A     -1.238809    99A     -1.238776
     100A     -1.220289   101A     -1.220273   102A     -1.215256
     103A     -1.200884   104A     -1.195437   105A     -1.187957
     106A     -1.187938   107A     -1.173613   108A     -1.173611
     109A     -1.155433   110A     -1.155428   111A     -1.152529
     112A     -1.144580   113A     -1.144579   114A     -1.128380
     115A     -1.114511   116A     -1.113024   117A     -1.112303
     118A     -1.112274   119A     -1.111484   120A     -1.088247
     121A     -1.088225   122A     -1.076827   123A     -1.076825
     124A     -1.067434   125A     -1.067393   126A     -1.064782
     127A     -1.046629   128A     -1.046616   129A     -1.040306
     130A     -1.038602   131A     -1.038596   132A     -1.025040
     133A     -1.021177   134A     -1.021116   135A     -1.007021
     136A     -1.006612   137A     -1.003635   138A     -1.000300
     139A     -1.000241   140A     -0.990949   141A     -0.970808
     142A     -0.970758   143A     -0.955738   144A     -0.955677
     145A     -0.905423   146A     -0.905378   147A     -0.905363
     148A     -0.905333   149A     -0.904101   150A     -0.892135
     151A     -0.892077   152A     -0.890156   153A     -0.890106
     154A     -0.889259   155A     -0.872075   156A     -0.868946
     157A     -0.851379   158A     -0.847659   159A     -0.847650
     160A     -0.845388   161A     -0.842812   162A     -0.834388
     163A     -0.834378   164A     -0.827987   165A     -0.827977
     166A     -0.784388   167A     -0.784377   168A     -0.783477
     169A     -0.783464   170A     -0.782101   171A     -0.782082
     172A     -0.781834   173A     -0.766811   174A     -0.760574
     175A     -0.750380   176A     -0.733341   177A     -0.726901
     178A     -0.726863   179A     -0.724892   180A     -0.724369
     181A     -0.724335   182A     -0.718278   183A     -0.713573
     184A     -0.713567   185A     -0.699414   186A     -0.699391
     187A     -0.685914   188A     -0.685797   189A     -0.685786
     190A     -0.682003   191A     -0.681995   192A     -0.678608
     193A     -0.653465   194A     -0.650703   195A     -0.650669
     196A     -0.649602   197A     -0.649598   198A     -0.649413
     199A     -0.640729   200A     -0.640685   201A     -0.639920
     202A     -0.639008   203A     -0.635835   204A     -0.635801
     205A     -0.628957   206A     -0.617723   207A     -0.615155
     208A     -0.615130   209A     -0.608631   210A     -0.608625
     211A     -0.599081   212A     -0.599048   213A     -0.598565
     214A     -0.598392   215A     -0.598376   216A     -0.597836
     217A     -0.594912   218A     -0.594896   219A     -0.594549
     220A     -0.594004   221A     -0.591769   222A     -0.591765
     223A     -0.587162   224A     -0.577672   225A     -0.577654
     226A     -0.575621   227A     -0.575614   228A     -0.573208
     229A     -0.569515   230A     -0.567945   231A     -0.567923
     232A     -0.566572   233A     -0.566564   234A     -0.560786
     235A     -0.558530   236A     -0.558484   237A     -0.558294
     238A     -0.554187   239A     -0.550481   240A     -0.547346
     241A     -0.544169   242A     -0.534948   243A     -0.534936
     244A     -0.533373   245A     -0.533358   246A     -0.527922
     247A     -0.527903   248A     -0.527568   249A     -0.516974
     250A     -0.516948   251A     -0.515251   252A     -0.515248
     253A     -0.509482   254A     -0.509471   255A     -0.497850
     256A     -0.496280   257A     -0.496234   258A     -0.493717
     259A     -0.493697   260A     -0.489368   261A     -0.481291
     262A     -0.477312   263A     -0.477308   264A     -0.473821
     265A     -0.469229   266A     -0.466330   267A     -0.466328
     268A     -0.458702   269A     -0.446445   270A     -0.446395
     271A     -0.440937   272A     -0.440694   273A     -0.440655
     274A     -0.434579   275A     -0.433799   276A     -0.407270
     277A     -0.407241   278A     -0.386258   279A     -0.386215
     280A     -0.385629   281A     -0.385624   282A     -0.383619
     283A     -0.354199   284A     -0.354172   285A     -0.350520
     286A     -0.337984   287A     -0.335482   288A     -0.335443
     289A     -0.332595   290A     -0.332588   291A     -0.306888
     292A     -0.301811   293A     -0.301754   294A     -0.300709
     295A     -0.286032   296A     -0.256374   297A     -0.253350
     298A     -0.253297   299A     -0.204126   300A     -0.204044

  @DF-RHF Final Energy: -3650.34339414374017

   => Energetics <=

    Nuclear Repulsion Energy =          15611.4211649754324753
    One-Electron Energy =              -36072.2362722374091391
    Two-Electron Energy =               16810.4717131182369485
    Total Energy =                      -3650.3433941437397152
 Dipole X            :          0.0001223            0.0002112            0.0003334
 Dipole Y            :          0.0013198           -0.0044281           -0.0031083
 Dipole Z            :        242.0500601         -242.0495292            0.0005309
 Magnitude           :                                                    0.0031709

    SAPT Results
  --------------------------------------------------------------------------------------------------------
    Electrostatics                -68.62614346 [mEh]     -43.06355517 [kcal/mol]    -180.17791484 [kJ/mol]
      Elst10,r                    -68.62614346 [mEh]     -43.06355517 [kcal/mol]    -180.17791484 [kJ/mol]

    Exchange                      166.04510765 [mEh]     104.19487812 [kcal/mol]     435.95137006 [kJ/mol]
      Exch10                      166.04510765 [mEh]     104.19487812 [kcal/mol]     435.95137006 [kJ/mol]
      Exch10(S^2)                 163.06717066 [mEh]     102.32619445 [kcal/mol]     428.13279759 [kJ/mol]

    Induction                     -37.31233842 [mEh]     -23.41384585 [kcal/mol]     -97.96353102 [kJ/mol]
      Ind20,r                     -90.00272986 [mEh]     -56.47756566 [kcal/mol]    -236.30213470 [kJ/mol]
      Exch-Ind20,r                 63.70910373 [mEh]      39.97806616 [kcal/mol]     167.26822880 [kJ/mol]
      delta HF,r (2)              -11.01871229 [mEh]      -6.91434635 [kcal/mol]     -28.92962512 [kJ/mol]

    Dispersion                    -84.33043878 [mEh]     -52.91814926 [kcal/mol]    -221.40953651 [kJ/mol]
      Disp20                      -98.77952797 [mEh]     -61.98508962 [kcal/mol]    -259.34561495 [kJ/mol]
      Exch-Disp20                  14.44908919 [mEh]       9.06694035 [kcal/mol]      37.93607844 [kJ/mol]
      Disp20 (SS)                 -49.38976398 [mEh]     -30.99254481 [kcal/mol]    -129.67280747 [kJ/mol]
      Disp20 (OS)                 -49.38976398 [mEh]     -30.99254481 [kcal/mol]    -129.67280747 [kJ/mol]
      Exch-Disp20 (SS)              8.62501652 [mEh]       5.41227958 [kcal/mol]      22.64497775 [kJ/mol]
      Exch-Disp20 (OS)              5.82407267 [mEh]       3.65466078 [kcal/mol]      15.29110069 [kJ/mol]

  Total HF                         60.10662576 [mEh]      37.71747710 [kcal/mol]     157.80992420 [kJ/mol]
  Total SAPT0                     -24.22381301 [mEh]     -15.20067216 [kcal/mol]     -63.59961231 [kJ/mol]

  Special recipe for scaled SAPT0 (see Manual):
    Electrostatics sSAPT0         -68.62614346 [mEh]     -43.06355517 [kcal/mol]    -180.17791484 [kJ/mol]
    Exchange sSAPT0               166.04510765 [mEh]     104.19487812 [kcal/mol]     435.95137006 [kJ/mol]
    Induction sSAPT0              -33.75783713 [mEh]     -21.18336261 [kcal/mol]     -88.63118916 [kJ/mol]
    Dispersion sSAPT0             -83.52428545 [mEh]     -52.41228041 [kcal/mol]    -219.29298123 [kJ/mol]
  Total sSAPT0                    -19.86315839 [mEh]     -12.46432007 [kcal/mol]     -52.15071517 [kJ/mol]
  --------------------------------------------------------------------------------------------------------

*** Psi4 exiting successfully. Buy a developer a beer!
