                               Psi4 1.9 release

  ==> Input File <==

--------------------------------------------------------------------------
memory 32 GB # how much memory is available ! Depends on the nodes/cores !

molecule dimer {
# monomer A
+1 1    # Charge and multiplicity
C  0.680067 -1.215929 3.608042
C -0.680504 -1.215545 3.606014
N -1.085635  0.102779 3.605016
C  0.000108  0.884180 3.601740
C -2.477365  0.570758 3.555610
N  1.085222  0.102779 3.605016
H  1.385146 -2.033368 3.615870
H -1.385302 -2.033214 3.606204
H -0.000009  1.965269 3.599993
C  2.478117  0.567877 3.621908
H  2.490592  1.658130 3.594563
H  2.967028  0.220701 4.535354
H  3.001428  0.176405 2.746425
H -2.857359  0.490799 2.533539
H -3.082679 -0.042306 4.225694
H -2.518128  1.610706 3.882594
--
# monomer B
0 1     # Charge and multiplicity
C   1.22531237526482      0.70753866091955      0.00613762728373
C   1.22532433589282     -0.70753852257020     -0.00619318228664
C   -0.00000567409046      1.41496628609039     -0.00672680580738
C   2.45644923379077      1.41832825917820      0.00902448468363
C   0.00001130712078     -1.41497612663474      0.00347275151708
C   -1.22530046906674      0.70754574598412      0.00838914760619
C   2.45643823516184     -1.41832293188077     -0.00843833914343
C   -0.00000085313587      2.83680140328112     -0.00913035594137
C   3.68182717731192      0.70931832800114     -0.00808954934571
C   2.45512052870677      2.83422403348893     -0.00819210630633
C   3.68182158506039     -0.70933346742900      0.00798293467272
C   -1.22531311884624     -0.70752714354401     -0.00512042085974
C   1.22670006104402      3.54346985599427      0.00816696660346
C   0.00000526469929     -2.83678176723568      0.00832091913869
C   -2.45643555300670      1.41831729028492      0.00842454345199
C   2.45512389762097     -2.83422965658853      0.00783102630520
C   -1.22671388474763      3.54346943575023      0.00827029982280
C   4.91451777504333      1.42717324448953     -0.00160886631602
C   3.69315067131765      3.54279566454522     -0.00155906667985
C   -2.45643712022637     -1.41831290883911     -0.00846337726810
C   1.22670532178455     -3.54347386990643     -0.00780316414624
C   -2.45512491866593      2.83421703463423     -0.00818572995999
C   4.91452486062398     -1.42718653794377      0.00136387641845
C   1.22142509354026      4.97013443726031      0.00150231067809
C   4.89300870916237      2.82518837202648     -0.00039219795739
C   -1.22669652864725     -3.54347062507680     -0.00753595973677
C   -3.68181849668397      0.70932533873199     -0.00807686886569
C   3.69314758099218     -3.54280096939050      0.00148176697923
C   -1.22143177215231      4.97012866986289      0.00168580605083
C   6.13477145276790      0.68054831910577     -0.00083909176631
C   3.65678936045204      4.97295361556775     -0.00065042889723
C   -2.45512642789169     -2.83421472106065      0.00758666850712
C   -3.68181869921921     -0.70932533146830      0.00810055625144
C   4.89301309775526     -2.82519973363176      0.00021895393805
C   -0.00000059327114      5.65044773803267      0.00045449734393
C   6.13477559217374     -0.68055448207492      0.00042622874941
C   2.47813196269732      5.65357712333155      0.00063835075260
C   1.22142288457925     -4.97012668293268     -0.00129718634452
C   -3.69316190412301      3.54279732619245     -0.00139355922051
C   -1.22142804110313     -4.97011793159564     -0.00140994817719
C   -4.91452132810043      1.42717581899491     -0.00153192130862
C   3.65678749952045     -4.97295485423912      0.00080007163680
C   -2.47813805026426      5.65357479452875      0.00092287576113
C   -3.69314125872231     -3.54278984697859      0.00136564082345
C   -4.91451200321153     -1.42718062802730      0.00139857359209
C   -0.00000552908399     -5.65043791501335      0.00005899322272
C   -4.89302000425900      2.82518897091939     -0.00040227981744
C   2.47812647313991     -5.65357317188818     -0.00029052915548
C   -3.65679823041642      4.97295655404175     -0.00047374852278
C   -4.89299899901461     -2.82519139505969      0.00006491824035
C   -2.47812801824129     -5.65356579800621     -0.00056571680280
C   -6.13477002348955      0.68054913825639     -0.00086464346868
C   -3.65678835334731     -4.97294365097028      0.00058578382008
C   -6.13476456307132     -0.68055354348201      0.00040575295444
H   5.83528897565761      3.36927626695423      0.00396712770529
H   7.07385965258860      1.22821762089947     -0.00037744837300
H   4.60066374401555      5.51238117445323     -0.00014522814529
H   5.83528386714679     -3.36930568472863     -0.00423551337640
H   -0.00001167146422      6.73853104613662     -0.00389474766392
H   7.07386165167227     -1.22822657074368     -0.00008250934481
H   2.47331421164041      6.74068466339473      0.00017162982210
H   4.60066897122302     -5.51237575717576      0.00039007446835
H   -2.47331820069565      6.74068209160650      0.00047297644710
H   -0.00000978838621     -6.73852780445195      0.00458867820736
H   -5.83530143450167      3.36927132229595      0.00410314985360
H   2.47330840367253     -6.74068500242887      0.00027980126949
H   -4.60067436136587      5.51237839860371      0.00002010017831
H   -5.83527902699321     -3.36928859177951     -0.00451481925734
H   -2.47329986759855     -6.74067870613986     -0.00016951527498
H   -7.07385728692578      1.22822084484047     -0.00046143985387
H   -4.60067330624313     -5.51236229778631      0.00021776644566
H   -7.07385645456741     -1.22822025997701     -0.00017736581114

    units angstrom      # Angstroms are the default
    no_reorient         # Geometry fixed, default
    symmetry c1         # C1 symmetry, default
}

set {
    scf_type DF         # Density fitting, faster than exact integrals
    freeze_core True    # Freeze core electrons
    basis jun-cc-pVDZ   # Jun-cc-pVDZ basis set, recommended for sSAPT0 in https://doi.org/10.1063/1.4867135
}

energy('ssapt0')        # Compute sSAPT0 energy, includes also SAPT0
--------------------------------------------------------------------------

  //              Dimer HF             //
    Molecular point group: c1
  Charge       = 1
  Multiplicity = 1
  Basis Set: JUN-CC-PVDZ
    Blend: JUN-CC-PVDZ
  Basis Set: (JUN-CC-PVDZ AUX)
    Blend: JUN-CC-PVDZ-JKFIT
  @DF-RHF Final Energy: -2359.21069903919579
    Total Energy =                      -2359.2106990391966974
 Dipole X            :          0.0036924            0.0006313            0.0043237
 Dipole Y            :         -1.5968898            1.8864948            0.2896051
 Dipole Z            :        -14.3414452           18.7097373            4.3682921
 Magnitude           :                                                    4.3778837
  //            Monomer A HF           //
    Molecular point group: c1
  Multiplicity = 1
  Basis Set: JUN-CC-PVDZ
    Blend: JUN-CC-PVDZ
  Basis Set: (JUN-CC-PVDZ AUX)
    Blend: JUN-CC-PVDZ-JKFIT
  @DF-RHF Final Energy:  -303.29885532570381
    Total Energy =                       -303.2988553257038120
  //            Monomer B HF           //
    Molecular point group: c1

    Geometry (in Angstrom), charge = 0, multiplicity = 1:

       Center              X                  Y                   Z               Mass
    ------------   -----------------  -----------------  -----------------  -----------------
      Gh(C)           0.680066520158    -1.215933861162     3.150146268810    12.000000000000
      Gh(C)          -0.680504479842    -1.215549861162     3.148118268810    12.000000000000
      Gh(N)          -1.085635479842     0.102774138838     3.147120268810    14.003074004430
      Gh(C)           0.000107520158     0.884175138838     3.143844268810    12.000000000000
      Gh(C)          -2.477365479842     0.570753138838     3.097714268810    12.000000000000
      Gh(N)           1.085221520158     0.102774138838     3.147120268810    14.003074004430
      Gh(H)           1.385145520158    -2.033372861162     3.157974268810     1.007825032230
      Gh(H)          -1.385302479842    -2.033218861162     3.148308268810     1.007825032230
      Gh(H)          -0.000009479842     1.965264138838     3.142097268810     1.007825032230
      Gh(C)           2.478116520158     0.567872138838     3.164012268810    12.000000000000
      Gh(H)           2.490591520158     1.658125138838     3.136667268810     1.007825032230
      Gh(H)           2.967027520158     0.220696138838     4.077458268810     1.007825032230
      Gh(H)           3.001427520158     0.176400138838     2.288529268810     1.007825032230
      Gh(H)          -2.857359479842     0.490794138838     2.075643268810     1.007825032230
      Gh(H)          -3.082679479842    -0.042310861162     3.767798268810     1.007825032230
      Gh(H)          -2.518128479842     1.610701138838     3.424698268810     1.007825032230
         C            1.225311895423     0.707533799757    -0.451758103906    12.000000000000
         C            1.225323856051    -0.707543383733    -0.464088913477    12.000000000000
         C           -0.000006153932     1.414961424928    -0.464622536997    12.000000000000
         C            2.456448753949     1.418323398016    -0.448871246506    12.000000000000
         C            0.000010827279    -1.414980987797    -0.454422979673    12.000000000000
         C           -1.225300948908     0.707540884822    -0.449506583584    12.000000000000
         C            2.456437755320    -1.418327793043    -0.466334070333    12.000000000000
         C           -0.000001332978     2.836796542119    -0.467026087131    12.000000000000
         C            3.681826697470     0.709313466839    -0.465985280536    12.000000000000
         C            2.455120048865     2.834219172327    -0.466087837496    12.000000000000
         C            3.681821105219    -0.709338328591    -0.449912796517    12.000000000000
         C           -1.225313598688    -0.707532004706    -0.463016152050    12.000000000000
         C            1.226699581202     3.543464994832    -0.449728764587    12.000000000000
         C            0.000004784858    -2.836786628398    -0.449574812051    12.000000000000
         C           -2.456436032848     1.418312429123    -0.449471187738    12.000000000000
         C            2.455123417779    -2.834234517751    -0.450064704885    12.000000000000
         C           -1.226714364589     3.543464574588    -0.449625431367    12.000000000000
         C            4.914517295202     1.427168383327    -0.459504597506    12.000000000000
         C            3.693150191476     3.542790803383    -0.459454797870    12.000000000000
         C           -2.456437600068    -1.418317770001    -0.466359108458    12.000000000000
         C            1.226704841943    -3.543478731069    -0.465698895336    12.000000000000
         C           -2.455125398508     2.834212173472    -0.466081461150    12.000000000000
         C            4.914524380782    -1.427191399106    -0.456531854772    12.000000000000
         C            1.221424613699     4.970129576098    -0.456393420512    12.000000000000
         C            4.893008229321     2.825183510864    -0.458287929147    12.000000000000
         C           -1.226697008489    -3.543475486239    -0.465431690927    12.000000000000
         C           -3.681818976526     0.709320477570    -0.465972600056    12.000000000000
         C            3.693147101150    -3.542805830553    -0.456413964211    12.000000000000
         C           -1.221432251994     4.970123808701    -0.456209925139    12.000000000000
         C            6.134770972926     0.680543457943    -0.458734822956    12.000000000000
         C            3.656788880610     4.972948754405    -0.458546160087    12.000000000000
         C           -2.455126907733    -2.834219582223    -0.450309062683    12.000000000000
         C           -3.681819179061    -0.709330192631    -0.449795174939    12.000000000000
         C            4.893012617914    -2.825204594794    -0.457676777252    12.000000000000
         C           -0.000001073113     5.650442876870    -0.457441233846    12.000000000000
         C            6.134775112332    -0.680559343237    -0.457469502441    12.000000000000
         C            2.478131482856     5.653572262169    -0.457257380437    12.000000000000
         C            1.221422404738    -4.970131544095    -0.459192917535    12.000000000000
         C           -3.693162383965     3.542792465030    -0.459289290411    12.000000000000
         C           -1.221428520945    -4.970122792758    -0.459305679367    12.000000000000
         C           -4.914521807942     1.427170957833    -0.459427652499    12.000000000000
         C            3.656787019679    -4.972959715401    -0.457095659553    12.000000000000
         C           -2.478138530106     5.653569933366    -0.456972855429    12.000000000000
         C           -3.693141738564    -3.542794708141    -0.456530090367    12.000000000000
         C           -4.914512483053    -1.427185489190    -0.456497157598    12.000000000000
         C           -0.000006008926    -5.650442776176    -0.457836737967    12.000000000000
         C           -4.893020484101     2.825184109757    -0.458298011007    12.000000000000
         C            2.478125993298    -5.653578033051    -0.458186260346    12.000000000000
         C           -3.656798710258     4.972951692879    -0.458369479713    12.000000000000
         C           -4.892999478856    -2.825196256222    -0.457830812950    12.000000000000
         C           -2.478128498083    -5.653570659169    -0.458461447993    12.000000000000
         C           -6.134770503331     0.680544277094    -0.458760374659    12.000000000000
         C           -3.656788833189    -4.972948512133    -0.457309947370    12.000000000000
         C           -6.134765042913    -0.680558404644    -0.457489978236    12.000000000000
         H            5.835288495816     3.369271405792    -0.453928603485     1.007825032230
         H            7.073859172747     1.228212759737    -0.458273179563     1.007825032230
         H            4.600663264174     5.512376313291    -0.458040959335     1.007825032230
         H            5.835283387305    -3.369310545891    -0.462131244566     1.007825032230
         H           -0.000012151306     6.738526184974    -0.461790478854     1.007825032230
         H            7.073861171831    -1.228231431906    -0.457978240535     1.007825032230
         H            2.473313731799     6.740679802232    -0.457724101368     1.007825032230
         H            4.600668491381    -5.512380618338    -0.457505656722     1.007825032230
         H           -2.473318680537     6.740677230444    -0.457422754743     1.007825032230
         H           -0.000010268228    -6.738532665614    -0.453307052983     1.007825032230
         H           -5.835301914343     3.369266461134    -0.453792581336     1.007825032230
         H            2.473307923831    -6.740689863591    -0.457615929921     1.007825032230
         H           -4.600674841208     5.512373537441    -0.457875631012     1.007825032230
         H           -5.835279506835    -3.369293452942    -0.462410550447     1.007825032230
         H           -2.473300347440    -6.740683567302    -0.458065246465     1.007825032230
         H           -7.073857766768     1.228215983678    -0.458357171044     1.007825032230
         H           -4.600673786085    -5.512367158949    -0.457677964744     1.007825032230
         H           -7.073856934409    -1.228225121139    -0.458073097001     1.007825032230

  Charge       = 0
  Multiplicity = 1
  Basis Set: JUN-CC-PVDZ
    Blend: JUN-CC-PVDZ
  Basis Set: (JUN-CC-PVDZ AUX)
    Blend: JUN-CC-PVDZ-JKFIT

    Orbital Energies [Eh]
    ---------------------

    Doubly Occupied:

       1A    -11.260619     2A    -11.260181     3A    -11.260155
       4A    -11.259440     5A    -11.259404     6A    -11.259236
       7A    -11.258990     8A    -11.258935     9A    -11.258892
      10A    -11.258574    11A    -11.258571    12A    -11.258445
      13A    -11.258392    14A    -11.258384    15A    -11.258381
      16A    -11.258354    17A    -11.258334    18A    -11.258326
      19A    -11.258318    20A    -11.258312    21A    -11.258308
      22A    -11.258264    23A    -11.258256    24A    -11.258036
      25A    -11.257258    26A    -11.257217    27A    -11.257177
      28A    -11.257084    29A    -11.257045    30A    -11.256983
      31A    -11.256360    32A    -11.256313    33A    -11.256263
      34A    -11.256196    35A    -11.256153    36A    -11.256126
      37A    -11.252196    38A    -11.252190    39A    -11.252188
      40A    -11.252185    41A    -11.252160    42A    -11.252146
      43A    -11.251290    44A    -11.251274    45A    -11.251270
      46A    -11.251261    47A    -11.251260    48A    -11.251253
      49A    -11.250757    50A    -11.250751    51A    -11.250750
      52A    -11.250746    53A    -11.250721    54A    -11.250707
      55A     -1.243866    56A     -1.219647    57A     -1.219620
      58A     -1.189376    59A     -1.189364    60A     -1.180757
      61A     -1.157407    62A     -1.148810    63A     -1.135320
      64A     -1.135291    65A     -1.113038    66A     -1.113035
      67A     -1.082253    68A     -1.082239    69A     -1.078417
      70A     -1.065833    71A     -1.065823    72A     -1.039234
      73A     -1.024075    74A     -1.021581    75A     -1.021519
      76A     -1.017572    77A     -1.012649    78A     -0.986847
      79A     -0.986788    80A     -0.961724    81A     -0.961665
      82A     -0.894121    83A     -0.894100    84A     -0.887725
      85A     -0.885971    86A     -0.885930    87A     -0.881198
      88A     -0.881155    89A     -0.861736    90A     -0.837268
      91A     -0.818030    92A     -0.816413    93A     -0.811942
      94A     -0.811939    95A     -0.794531    96A     -0.794519
      97A     -0.746412    98A     -0.744666    99A     -0.733220
     100A     -0.733205   101A     -0.732013   102A     -0.731996
     103A     -0.716312   104A     -0.698814   105A     -0.698777
     106A     -0.693413   107A     -0.693367   108A     -0.661064
     109A     -0.652919   110A     -0.650947   111A     -0.650097
     112A     -0.650088   113A     -0.639198   114A     -0.639175
     115A     -0.629521   116A     -0.627325   117A     -0.627317
     118A     -0.606416   119A     -0.605684   120A     -0.601461
     121A     -0.599577   122A     -0.599510   123A     -0.593440
     124A     -0.591009   125A     -0.590975   126A     -0.585134
     127A     -0.576405   128A     -0.576337   129A     -0.567173
     130A     -0.567150   131A     -0.565755   132A     -0.565750
     133A     -0.558523   134A     -0.554685   135A     -0.554674
     136A     -0.538432   137A     -0.538427   138A     -0.538167
     139A     -0.538162   140A     -0.529536   141A     -0.528118
     142A     -0.522708   143A     -0.522671   144A     -0.500341
     145A     -0.495540   146A     -0.493064   147A     -0.487766
     148A     -0.484874   149A     -0.481565   150A     -0.481564
     151A     -0.470273   152A     -0.470271   153A     -0.450796
     154A     -0.450732   155A     -0.438986   156A     -0.438978
     157A     -0.404675   158A     -0.404641   159A     -0.403293
     160A     -0.375329   161A     -0.375325   162A     -0.349042
     163A     -0.337541   164A     -0.336488   165A     -0.336438
     166A     -0.310996   167A     -0.298001   168A     -0.284250
     169A     -0.284200   170A     -0.224813   171A     -0.224759

  @DF-RHF Final Energy: -2055.89563084106567

   => Energetics <=

    Nuclear Repulsion Energy =           6452.5568002797772351
    One-Electron Energy =              -15636.5308458102044824
    Two-Electron Energy =                7128.0784146893620346
    Total Energy =                      -2055.8956308410652127
 Dipole X            :          0.0003453           -0.0000085            0.0003368
 Dipole Y            :          0.0033673           -0.0028843            0.0004830
 Dipole Z            :        295.9282627         -295.9331968           -0.0049342
 Magnitude           :                                                    0.0049692

    SAPT Results
  --------------------------------------------------------------------------------------------------------
    Electrostatics                -18.41604660 [mEh]     -11.55624371 [kcal/mol]     -48.35132368 [kJ/mol]
      Elst10,r                    -18.41604660 [mEh]     -11.55624371 [kcal/mol]     -48.35132368 [kJ/mol]

    Exchange                       14.11991619 [mEh]       8.86038118 [kcal/mol]      37.07183485 [kJ/mol]
      Exch10                       14.11991619 [mEh]       8.86038118 [kcal/mol]      37.07183485 [kJ/mol]
      Exch10(S^2)                  14.09759783 [mEh]       8.84637620 [kcal/mol]      37.01323801 [kJ/mol]

    Induction                     -11.91674202 [mEh]      -7.47786851 [kcal/mol]     -31.28740187 [kJ/mol]
      Ind20,r                     -14.45154534 [mEh]      -9.06848161 [kcal/mol]     -37.94252707 [kJ/mol]
      Exch-Ind20,r                  4.18024920 [mEh]       2.62314597 [kcal/mol]      10.97524276 [kJ/mol]
      delta HF,r (2)               -1.64544587 [mEh]      -1.03253287 [kcal/mol]      -4.32011755 [kJ/mol]

    Dispersion                    -28.01307406 [mEh]     -17.57846936 [kcal/mol]     -73.54831582 [kJ/mol]
      Disp20                      -29.73762306 [mEh]     -18.66064020 [kcal/mol]     -78.07611859 [kJ/mol]
      Exch-Disp20                   1.72454900 [mEh]       1.08217083 [kcal/mol]       4.52780277 [kJ/mol]
      Disp20 (SS)                 -14.86881153 [mEh]      -9.33032010 [kcal/mol]     -39.03805929 [kJ/mol]
      Disp20 (OS)                 -14.86881153 [mEh]      -9.33032010 [kcal/mol]     -39.03805929 [kJ/mol]
      Exch-Disp20 (SS)              1.05734689 [mEh]       0.66349519 [kcal/mol]       2.77606388 [kJ/mol]
      Exch-Disp20 (OS)              0.66720211 [mEh]       0.41867564 [kcal/mol]       1.75173889 [kJ/mol]

  Total HF                        -16.21287243 [mEh]     -10.17373104 [kcal/mol]     -42.56689069 [kJ/mol]
  Total SAPT0                     -44.22594649 [mEh]     -27.75220041 [kcal/mol]    -116.11520651 [kJ/mol]

  Special recipe for scaled SAPT0 (see Manual):
    Electrostatics sSAPT0         -18.41604660 [mEh]     -11.55624371 [kcal/mol]     -48.35132368 [kJ/mol]
    Exchange sSAPT0                14.11991619 [mEh]       8.86038118 [kcal/mol]      37.07183485 [kJ/mol]
    Induction sSAPT0              -11.89685691 [mEh]      -7.46539042 [kcal/mol]     -31.23519352 [kJ/mol]
    Dispersion sSAPT0             -28.00487052 [mEh]     -17.57332157 [kcal/mol]     -73.52677743 [kJ/mol]
  Total sSAPT0                    -44.19785784 [mEh]     -27.73457452 [kcal/mol]    -116.04145978 [kJ/mol]
  --------------------------------------------------------------------------------------------------------

*** Psi4 exiting successfully. Buy a developer a beer!
