                               Psi4 1.9 release

  ==> Input File <==

--------------------------------------------------------------------------
memory 80 GB # how much memory is available ! Depends on the nodes/cores !

molecule dimer {
# monomer A
-1 1    # Charge and multiplicity
B -1.977592e-04  2.742729e-04 3.500034
F  1.123153e-16  1.430594e-17 4.912819
F  1.147860e+00  6.757812e-01 3.028893
F  1.191806e-02 -1.332011e+00 3.029095
F -1.159666e+00  6.560735e-01 3.029174
--
# monomer B
0 1     # Charge and multiplicity
C   -3.66844126402057      7.80375217008252      0.00190004133558
C   -4.84759871934653      7.13124183134024     -0.00046653359696
C   -4.89495929917518      5.69633040353158     -0.00103944469517
C   -3.65374067877320      4.98073034095895      0.00662099703436
C   -2.40942512149445      7.11398103667468      0.00209438359570
C   -2.42547734410473      5.68112195090346     -0.00491050527438
C   -1.19474401643570      7.78614419430947      0.00356656413763
C   0.03795902893699      7.09942164575698      0.00139585983271
C   0.03033258741920      5.66948955970466     -0.00408752508301
C   -1.20098450790502      4.96927034791531      0.00488220885047
C   1.27795782581485      7.77285944319479      0.00277170839332
C   2.48535808472416      7.08769688523756      0.00049722048857
C   2.48612868491717      5.65477081024076     -0.00644052849921
C   1.25408291964399      4.95607811366431      0.00518741308898
C   3.75171459140595      7.76391215098033      0.00062407186893
C   4.92356605618520      7.07878077698995     -0.00143240883900
C   4.95560727132542      5.64344746336949     -0.00159282164606
C   3.70680153420475      4.94121020833308      0.00349873852374
H   -3.65852113775815      8.89082741913536      0.00358502958574
H   -1.18921332975660      8.87412108735996      0.00753844057883
H   1.28429423888630      8.86083343548850      0.00693053253426
H   3.75354208679975      8.85103527897216      0.00214659618464
H   5.86995870320703      7.61379483465560     -0.00235777588134
H   -5.78823170750226      7.67630221293400     -0.00202638095293
C   -6.09197395869619      4.99326001364347     -0.00291168518608
C   -6.12866148031747      3.58258016879823     -0.00171050815740
C   -3.66457974004527      3.56418217974434     -0.00463560277484
C   -4.89429820469869      2.86108077590057      0.00453338221034
C   -2.43733499489796      2.84761165708481      0.00719617576166
C   -1.20922785759670      3.54788693497833     -0.00648285103018
C   1.24714157216223      3.53468075142962     -0.00729145743546
C   0.01517603956900      2.83311183930540      0.00439272578912
C   2.46764517244071      2.82128997725533      0.00449278391269
C   3.70254947457969      3.52466015442405     -0.00899517692985
C   6.14498038638375      4.92757236613191     -0.00282626685777
C   6.16658835886151      3.51658447594213     -0.00065971342101
C   4.92460995845939      2.80840792535402      0.00587903281610
H   7.08990550964105      5.46688776622306     -0.00658814770723
H   -7.03104175110130      5.54268795285765     -0.00714490013730
C   -7.33969804112295      2.85841153457957     -0.00333767559888
C   -7.36488195805880      1.47032337158330     -0.00157213747140
C   -4.90350460894690      1.44442681216000     -0.00628840166334
C   -6.13225715261081      0.73993935705394      0.00600164231964
C   -3.67687480051673      0.72669714267312      0.00433931473643
C   -2.44565658606518      1.42964113326212     -0.00597039546461
C   -1.22360068130162      0.71532450163492      0.00545886906656
C   0.00763786931376      1.41738314923765      0.00392452278437
C   1.23121980774686      0.70211669058719     -0.01490206287210
C   2.46082110053113      1.40329203612573      0.00460244601878
C   3.68443025419614      0.68719842821222      0.00377365974158
C   4.91870890153864      1.39173456118907     -0.00862816189375
C   7.36980207796101      2.77948220318441     -0.00242013321349
C   7.38016266612146      1.39121750785509     -0.00087345036788
C   6.13979953912259      0.67411862320065      0.00545489144369
H   -8.27919079934664      3.40711804112415     -0.00763522772059
H   8.31511347147953      3.31811809662368     -0.00663070901292
C   -8.59175593758115      0.72483255304480     -0.00123170985383
C   -8.59902460370342     -0.63263980622873      0.00089141472904
C   -6.13981313911873     -0.67413663715361     -0.00609792660607
C   -7.38018411213749     -1.39126618958160      0.00131813493501
C   -4.91868448025621     -1.39175501803000      0.00624257154343
C   -3.68443829568458     -0.68723731573599     -0.00478966852105
C   -2.46081704024768     -1.40334517882457      0.00575341766833
C   -1.23116201232071     -0.70217386488055     -0.00636696112346
C   -0.00756962538737     -1.41741884941102      0.00108956317991
C   1.22364771588843     -0.71527537726392      0.01109518512883
C   2.44567064933149     -1.42964328900682     -0.00065482763106
C   3.67686670284649     -0.72670743155550     -0.00479541202602
C   6.13224884641929     -0.73997883984993     -0.00632338623858
C   4.90351914550401     -1.44445752054090      0.00751768830159
C   8.59901484869081      0.63260386666793     -0.00101133422380
C   8.59174548810050     -0.72485086719319      0.00072504603735
C   7.36486276438985     -1.47033266560598      0.00049486934466
H   -9.52830597181814      1.27684744919284     -0.00270163681798
H   9.54141097460619      1.17457248844457     -0.00206336648518
C   -7.36983790976868     -2.77954514593389      0.00312634335708
C   -4.92459910905015     -2.80843725734101     -0.00460528907921
C   -6.16662249566744     -3.51665219282533      0.00169655107992
C   -3.70251035970491     -3.52468154912026      0.00571878010666
C   -2.46764698511392     -2.82132596280400     -0.00632585824990
C   -0.01513347410770     -2.83314164539971     -0.00604426974092
C   -1.24712184122656     -3.53473217556300      0.00551968366725
C   1.20924506964357     -3.54791467864352      0.00805871345849
C   2.43733602215464     -2.84764173817541     -0.00608104485234
C   4.89430234377080     -2.86112296828604     -0.00526030478103
C   3.66461525504104     -3.56421984553201      0.00761911515957
C   6.12863901474565     -3.58258405771778      0.00096495711699
C   7.33967266469532     -2.85841330737039      0.00248018319869
H   -9.54144911125902     -1.17456346666430      0.00226083090216
H   9.52826186807155     -1.27691907390448      0.00197485379837
H   -8.31516504384864     -3.31814985321231      0.00729857188773
H   8.27915514249207     -3.40714078989363      0.00681973918158
C   -6.14499418870218     -4.92764727278338      0.00302254913999
C   -3.70678334799751     -4.94126171411716     -0.00679841894792
C   -4.95559005800169     -5.64349397349412      0.00116871569699
C   -2.48612132622665     -5.65478557440947      0.00614125209662
C   -1.25405833548005     -4.95612205000132     -0.00503435388927
C   1.20101257386816     -4.96928038819302     -0.00385322963129
C   -0.03033667441341     -5.66952030313900      0.00398997003238
C   3.65375010132847     -4.98074377541453     -0.00309522988330
C   2.42549269587528     -5.68117463552727      0.00628170066869
C   6.09196561781097     -4.99325796338655      0.00325918379042
C   4.89497644461045     -5.69634842095790      0.00202298796027
H   -7.08989238804069     -5.46699984223871      0.00742531082125
H   7.03105520920009     -5.54265853633254      0.00683896355417
C   -4.92354532219813     -7.07882109967734      0.00061394679214
C   -2.48534208823777     -7.08772807792913     -0.00189594564379
C   -3.75168589177895     -7.76394715763627     -0.00170126671874
C   -0.03794895698805     -7.09946487446944     -0.00168022049625
C   -1.27795610040136     -7.77290438466689     -0.00366491325785
C   2.40944432072629     -7.11402201200282     -0.00081701968533
C   1.19474993715296     -7.78618536556242     -0.00296931056689
C   4.84762105249800     -7.13126211057943      0.00168979497423
C   3.66847160587561     -7.80378799294376     -0.00065863938960
H   -5.86994035041618     -7.61383059804164      0.00215798365757
H   5.78824962538815     -7.67633218931421      0.00281691445618
H   -3.75352693944918     -8.85107156923607     -0.00353718114765
H   -1.28430440589466     -8.86087539249706     -0.00809229711623
H   1.18922157469537     -8.87416062058945     -0.00706194725726
H   3.65854661482387     -8.89086063405326     -0.00231318081200

    units angstrom      # Angstroms are the default
    no_reorient         # Geometry fixed, default
    symmetry c1         # C1 symmetry, default
}

set {
    scf_type DF         # Density fitting, faster than exact integrals
    freeze_core True    # Freeze core electrons
    basis jun-cc-pVDZ   # Jun-cc-pVDZ basis set, recommended for sSAPT0 in https://doi.org/10.1063/1.4867135
}

energy('ssapt0')        # Compute sSAPT0 energy, includes also SAPT0
--------------------------------------------------------------------------

  //              Dimer HF             //
    Molecular point group: c1
  Charge       = -1
  Multiplicity = 1
  Basis Set: JUN-CC-PVDZ
    Blend: JUN-CC-PVDZ
  Basis Set: (JUN-CC-PVDZ AUX)
    Blend: JUN-CC-PVDZ-JKFIT
  @DF-RHF Final Energy: -4073.11352822675963
    Total Energy =                      -4073.1135282267605362
 Dipole X            :          0.0017670           -0.0000548            0.0017122
 Dipole Y            :          0.0016463           -0.0002464            0.0013999
 Dipole Z            :         16.2663956          -20.8294024           -4.5630068
 Magnitude           :                                                    4.5630073
  //            Monomer A HF           //
    Molecular point group: c1
  Multiplicity = 1
  Basis Set: JUN-CC-PVDZ
    Blend: JUN-CC-PVDZ
  Basis Set: (JUN-CC-PVDZ AUX)
    Blend: JUN-CC-PVDZ-JKFIT
  @DF-RHF Final Energy:  -422.77380598265040
    Total Energy =                       -422.7738059826504013
  //            Monomer B HF           //
    Molecular point group: c1

    Geometry (in Angstrom), charge = 0, multiplicity = 1:

       Center              X                  Y                   Z               Mass
    ------------   -----------------  -----------------  -----------------  -----------------
      Gh(B)          -0.000201921932     0.000288800891     3.258966544492    11.009305360000
      Gh(F)          -0.000004162732     0.000014527991     4.671751544492    18.998403162730
      Gh(F)           1.147855837268     0.675795727991     2.787825544492    18.998403162730
      Gh(F)           0.011913897268    -1.331996472009     2.788027544492    18.998403162730
      Gh(F)          -1.159670162732     0.656088027991     2.788106544492    18.998403162730
         C           -3.668445426752     7.803766698073    -0.239167414173    12.000000000000
         C           -4.847602882078     7.131256359331    -0.241533989105    12.000000000000
         C           -4.894963461907     5.696344931522    -0.242106900203    12.000000000000
         C           -3.653744841505     4.980744868950    -0.234446458474    12.000000000000
         C           -2.409429284226     7.113995564665    -0.238973071912    12.000000000000
         C           -2.425481506836     5.681136478894    -0.245977960783    12.000000000000
         C           -1.194748179167     7.786158722300    -0.237500891370    12.000000000000
         C            0.037954866205     7.099436173748    -0.239671595675    12.000000000000
         C            0.030328424687     5.669504087695    -0.245154980591    12.000000000000
         C           -1.200988670637     4.969284875906    -0.236185246658    12.000000000000
         C            1.277953663083     7.772873971185    -0.238295747115    12.000000000000
         C            2.485353921992     7.087711413228    -0.240570235020    12.000000000000
         C            2.486124522185     5.654785338231    -0.247507984007    12.000000000000
         C            1.254078756912     4.956092641655    -0.235880042419    12.000000000000
         C            3.751710428674     7.763926678971    -0.240443383639    12.000000000000
         C            4.923561893453     7.078795304981    -0.242499864347    12.000000000000
         C            4.955603108594     5.643461991360    -0.242660277154    12.000000000000
         C            3.706797371473     4.941224736324    -0.237568716984    12.000000000000
         H           -3.658525300490     8.890841947126    -0.237482425922     1.007825032230
         H           -1.189217492488     8.874135615351    -0.233529014929     1.007825032230
         H            1.284290076155     8.860847963479    -0.234136922974     1.007825032230
         H            3.753537924068     8.851049806963    -0.238920859323     1.007825032230
         H            5.869954540475     7.613809362646    -0.243425231389     1.007825032230
         H           -5.788235870234     7.676316740925    -0.243093836461     1.007825032230
         C           -6.091978121428     4.993274541634    -0.243979140694    12.000000000000
         C           -6.128665643049     3.582594696789    -0.242777963666    12.000000000000
         C           -3.664583902777     3.564196707735    -0.245703058283    12.000000000000
         C           -4.894302367430     2.861095303891    -0.236534073298    12.000000000000
         C           -2.437339157630     2.847626185075    -0.233871279746    12.000000000000
         C           -1.209232020328     3.547901462969    -0.247550306538    12.000000000000
         C            1.247137409430     3.534695279420    -0.248358912944    12.000000000000
         C            0.015171876837     2.833126367296    -0.236674729719    12.000000000000
         C            2.467641009709     2.821304505246    -0.236574671595    12.000000000000
         C            3.702545311848     3.524674682415    -0.250062632438    12.000000000000
         C            6.144976223652     4.927586894122    -0.243893722366    12.000000000000
         C            6.166584196130     3.516599003933    -0.241727168929    12.000000000000
         C            4.924605795728     2.808422453345    -0.235188422692    12.000000000000
         H            7.089901346909     5.466902294214    -0.247655603215     1.007825032230
         H           -7.031045913833     5.542702480848    -0.248212355645     1.007825032230
         C           -7.339702203855     2.858426062570    -0.244405131107    12.000000000000
         C           -7.364886120791     1.470337899574    -0.242639592980    12.000000000000
         C           -4.903508771679     1.444441340151    -0.247355857171    12.000000000000
         C           -6.132261315343     0.739953885044    -0.235065813188    12.000000000000
         C           -3.676878963248     0.726711670664    -0.236728140772    12.000000000000
         C           -2.445660748797     1.429655661253    -0.247037850973    12.000000000000
         C           -1.223604844033     0.715339029625    -0.235608586442    12.000000000000
         C            0.007633706582     1.417397677228    -0.237142932724    12.000000000000
         C            1.231215645015     0.702131218578    -0.255969518380    12.000000000000
         C            2.460816937799     1.403306564116    -0.236465009489    12.000000000000
         C            3.684426091464     0.687212956203    -0.237293795767    12.000000000000
         C            4.918704738807     1.391749089180    -0.249695617402    12.000000000000
         C            7.369797915229     2.779496731175    -0.243487588722    12.000000000000
         C            7.380158503390     1.391232035846    -0.241940905876    12.000000000000
         C            6.139795376391     0.674133151191    -0.235612564064    12.000000000000
         H           -8.279194962078     3.407132569115    -0.248702683229     1.007825032230
         H            8.315109308748     3.318132624614    -0.247698164521     1.007825032230
         C           -8.591760100313     0.724847081035    -0.242299165362    12.000000000000
         C           -8.599028766435    -0.632625278238    -0.240176040779    12.000000000000
         C           -6.139817301850    -0.674122109163    -0.247165382114    12.000000000000
         C           -7.380188274869    -1.391251661591    -0.239749320573    12.000000000000
         C           -4.918688642988    -1.391740490039    -0.234824883965    12.000000000000
         C           -3.684442458416    -0.687222787745    -0.245857124029    12.000000000000
         C           -2.460821202979    -1.403330650834    -0.235314037840    12.000000000000
         C           -1.231166175052    -0.702159336890    -0.247434416632    12.000000000000
         C           -0.007573788119    -1.417404321420    -0.239977892328    12.000000000000
         C            1.223643553157    -0.715260849273    -0.229972270379    12.000000000000
         C            2.445666486600    -1.429628761016    -0.241722283139    12.000000000000
         C            3.676862540115    -0.726692903565    -0.245862867534    12.000000000000
         C            6.132244683688    -0.739964311859    -0.247390841747    12.000000000000
         C            4.903514982772    -1.444442992550    -0.233549767207    12.000000000000
         C            8.599010685959     0.632618394658    -0.242078789732    12.000000000000
         C            8.591741325369    -0.724836339203    -0.240342409471    12.000000000000
         C            7.364858601658    -1.470318137615    -0.240572586163    12.000000000000
         H           -9.528310134550     1.276861977183    -0.243769092326     1.007825032230
         H            9.541406811874     1.174587016435    -0.243130821993     1.007825032230
         C           -7.369842072500    -2.779530617943    -0.237941112151    12.000000000000
         C           -4.924603271782    -2.808422729350    -0.245672744587    12.000000000000
         C           -6.166626658399    -3.516637664835    -0.239370904428    12.000000000000
         C           -3.702514522437    -3.524667021130    -0.235348675401    12.000000000000
         C           -2.467651147846    -2.821311434813    -0.247393313758    12.000000000000
         C           -0.015137636839    -2.833127117409    -0.247111725249    12.000000000000
         C           -1.247126003958    -3.534717647572    -0.235547771841    12.000000000000
         C            1.209240906912    -3.547900150653    -0.233008742050    12.000000000000
         C            2.437331859423    -2.847627210185    -0.247148500360    12.000000000000
         C            4.894298181039    -2.861108440295    -0.246327760289    12.000000000000
         C            3.664611092309    -3.564205317541    -0.233448340349    12.000000000000
         C            6.128634852014    -3.582569529727    -0.240102498391    12.000000000000
         C            7.339668501964    -2.858398779380    -0.238587272309    12.000000000000
         H           -9.541453273991    -1.174548938674    -0.238806624606     1.007825032230
         H            9.528257705340    -1.276904545914    -0.239092601710     1.007825032230
         H           -8.315169206580    -3.318135325222    -0.233768883620     1.007825032230
         H            8.279150979760    -3.407126261903    -0.234247716327     1.007825032230
         C           -6.144998351434    -4.927632744793    -0.238044906368    12.000000000000
         C           -3.706787510729    -4.941247186127    -0.247865874456    12.000000000000
         C           -4.955594220733    -5.643479445504    -0.239898739811    12.000000000000
         C           -2.486125488958    -5.654771046419    -0.234926203412    12.000000000000
         C           -1.254062498212    -4.956107522011    -0.246101809397    12.000000000000
         C            1.201008411136    -4.969265860202    -0.244920685139    12.000000000000
         C           -0.030340837145    -5.669505775148    -0.237077485476    12.000000000000
         C            3.653745938597    -4.980729247424    -0.244162685391    12.000000000000
         C            2.425488533144    -5.681160107537    -0.234785754839    12.000000000000
         C            6.091961455079    -4.993243435396    -0.237808271718    12.000000000000
         C            4.894972281879    -5.696333892967    -0.239044467548    12.000000000000
         H           -7.089896550772    -5.466985314248    -0.233642144687     1.007825032230
         H            7.031051046468    -5.542644008342    -0.234228491954     1.007825032230
         C           -4.923549484930    -7.078806571687    -0.240453508716    12.000000000000
         C           -2.485346250970    -7.087713549939    -0.242963401152    12.000000000000
         C           -3.751690054511    -7.763932629646    -0.242768722227    12.000000000000
         C           -0.037953119720    -7.099450346479    -0.242747676004    12.000000000000
         C           -1.277960263133    -7.772889856676    -0.244732368766    12.000000000000
         C            2.409440157995    -7.114007484012    -0.241884475193    12.000000000000
         C            1.194745774421    -7.786170837572    -0.244036766075    12.000000000000
         C            4.847616889766    -7.131247582589    -0.239377660534    12.000000000000
         C            3.668467443144    -7.803773464953    -0.241726094898    12.000000000000
         H           -5.869944513148    -7.613816070051    -0.238909471851     1.007825032230
         H            5.788245462656    -7.676317661324    -0.238250541052     1.007825032230
         H           -3.753531102181    -8.851057041246    -0.244604636656     1.007825032230
         H           -1.284308568626    -8.860860864507    -0.249159752624     1.007825032230
         H            1.189217411964    -8.874146092599    -0.248129402765     1.007825032230
         H            3.658542452092    -8.890846106063    -0.243380636320     1.007825032230

  Charge       = 0
  Multiplicity = 1
  Basis Set: JUN-CC-PVDZ
    Blend: JUN-CC-PVDZ
  Basis Set: (JUN-CC-PVDZ AUX)
    Blend: JUN-CC-PVDZ-JKFIT

    Orbital Energies [Eh]
    ---------------------

    Doubly Occupied:

       1A    -11.264116     2A    -11.263763     3A    -11.263760
       4A    -11.263353     5A    -11.263349     6A    -11.263308
       7A    -11.263162     8A    -11.263148     9A    -11.263140
      10A    -11.262909    11A    -11.262787    12A    -11.262781
      13A    -11.262287    14A    -11.262284    15A    -11.262248
      16A    -11.262245    17A    -11.262131    18A    -11.262126
      19A    -11.262083    20A    -11.262038    21A    -11.262034
      22A    -11.261927    23A    -11.261922    24A    -11.261770
      25A    -11.261759    26A    -11.261740    27A    -11.261733
      28A    -11.261691    29A    -11.261681    30A    -11.261581
      31A    -11.261572    32A    -11.261562    33A    -11.261559
      34A    -11.261537    35A    -11.261535    36A    -11.261519
      37A    -11.261337    38A    -11.261328    39A    -11.261323
      40A    -11.261316    41A    -11.261310    42A    -11.261307
      43A    -11.261292    44A    -11.261276    45A    -11.261272
      46A    -11.261246    47A    -11.261243    48A    -11.261234
      49A    -11.261068    50A    -11.261043    51A    -11.261035
      52A    -11.260972    53A    -11.260968    54A    -11.260915
      55A    -11.259914    56A    -11.259900    57A    -11.259897
      58A    -11.259868    59A    -11.259866    60A    -11.259850
      61A    -11.259285    62A    -11.259259    63A    -11.259257
      64A    -11.259203    65A    -11.259201    66A    -11.259171
      67A    -11.258916    68A    -11.258898    69A    -11.258895
      70A    -11.258867    71A    -11.258865    72A    -11.258853
      73A    -11.254530    74A    -11.254530    75A    -11.254524
      76A    -11.254524    77A    -11.254523    78A    -11.254522
      79A    -11.253657    80A    -11.253657    81A    -11.253653
      82A    -11.253650    83A    -11.253647    84A    -11.253646
      85A    -11.253573    86A    -11.253572    87A    -11.253568
      88A    -11.253565    89A    -11.253563    90A    -11.253562
      91A    -11.253058    92A    -11.253058    93A    -11.253052
      94A    -11.253051    95A    -11.253050    96A    -11.253050
      97A     -1.253923    98A     -1.238987    99A     -1.238986
     100A     -1.220460   101A     -1.220454   102A     -1.215420
     103A     -1.201039   104A     -1.195606   105A     -1.188127
     106A     -1.188123   107A     -1.173766   108A     -1.173763
     109A     -1.155616   110A     -1.155614   111A     -1.152695
     112A     -1.144726   113A     -1.144723   114A     -1.128558
     115A     -1.114703   116A     -1.113165   117A     -1.112465
     118A     -1.112449   119A     -1.111622   120A     -1.088420
     121A     -1.088404   122A     -1.076963   123A     -1.076962
     124A     -1.067606   125A     -1.067578   126A     -1.064955
     127A     -1.046796   128A     -1.046788   129A     -1.040472
     130A     -1.038737   131A     -1.038736   132A     -1.025230
     133A     -1.021363   134A     -1.021311   135A     -1.007180
     136A     -1.006805   137A     -1.003793   138A     -1.000477
     139A     -1.000429   140A     -0.991077   141A     -0.970981
     142A     -0.970932   143A     -0.955881   144A     -0.955825
     145A     -0.905573   146A     -0.905553   147A     -0.905529
     148A     -0.905512   149A     -0.904307   150A     -0.892349
     151A     -0.892289   152A     -0.890350   153A     -0.890292
     154A     -0.889447   155A     -0.872217   156A     -0.869060
     157A     -0.851538   158A     -0.847853   159A     -0.847832
     160A     -0.845583   161A     -0.843008   162A     -0.834556
     163A     -0.834547   164A     -0.828116   165A     -0.828112
     166A     -0.784543   167A     -0.784532   168A     -0.783650
     169A     -0.783623   170A     -0.782278   171A     -0.782258
     172A     -0.782019   173A     -0.766988   174A     -0.760774
     175A     -0.750556   176A     -0.733484   177A     -0.727065
     178A     -0.727051   179A     -0.725075   180A     -0.724537
     181A     -0.724518   182A     -0.718468   183A     -0.713756
     184A     -0.713749   185A     -0.699568   186A     -0.699555
     187A     -0.686098   188A     -0.685954   189A     -0.685950
     190A     -0.682170   191A     -0.682160   192A     -0.678758
     193A     -0.653615   194A     -0.650862   195A     -0.650832
     196A     -0.649793   197A     -0.649777   198A     -0.649563
     199A     -0.640906   200A     -0.640879   201A     -0.640085
     202A     -0.639161   203A     -0.636004   204A     -0.635977
     205A     -0.629133   206A     -0.617720   207A     -0.615301
     208A     -0.615281   209A     -0.608796   210A     -0.608789
     211A     -0.599116   212A     -0.599084   213A     -0.598730
     214A     -0.598592   215A     -0.598571   216A     -0.598011
     217A     -0.595064   218A     -0.595051   219A     -0.594713
     220A     -0.594211   221A     -0.591939   222A     -0.591936
     223A     -0.587366   224A     -0.577795   225A     -0.577785
     226A     -0.575668   227A     -0.575665   228A     -0.573376
     229A     -0.569574   230A     -0.568119   231A     -0.568095
     232A     -0.566741   233A     -0.566730   234A     -0.560911
     235A     -0.558698   236A     -0.558679   237A     -0.558425
     238A     -0.554357   239A     -0.550543   240A     -0.547473
     241A     -0.544256   242A     -0.535030   243A     -0.534993
     244A     -0.533527   245A     -0.533505   246A     -0.528071
     247A     -0.528055   248A     -0.527765   249A     -0.517140
     250A     -0.517106   251A     -0.515343   252A     -0.515337
     253A     -0.509636   254A     -0.509620   255A     -0.498020
     256A     -0.496438   257A     -0.496412   258A     -0.493804
     259A     -0.493791   260A     -0.489429   261A     -0.481445
     262A     -0.477408   263A     -0.477406   264A     -0.473986
     265A     -0.469425   266A     -0.466512   267A     -0.466507
     268A     -0.458789   269A     -0.446658   270A     -0.446598
     271A     -0.441033   272A     -0.440760   273A     -0.440737
     274A     -0.434676   275A     -0.433903   276A     -0.407363
     277A     -0.407340   278A     -0.386388   279A     -0.386340
     280A     -0.385723   281A     -0.385722   282A     -0.383725
     283A     -0.354300   284A     -0.354283   285A     -0.350643
     286A     -0.338104   287A     -0.335576   288A     -0.335501
     289A     -0.332702   290A     -0.332696   291A     -0.307027
     292A     -0.301924   293A     -0.301862   294A     -0.300842
     295A     -0.286164   296A     -0.256468   297A     -0.253470
     298A     -0.253417   299A     -0.204255   300A     -0.204166

  @DF-RHF Final Energy: -3650.34021302547217

   => Energetics <=

    Nuclear Repulsion Energy =          15611.4211649754324753
    One-Electron Energy =              -36072.1497102215507766
    Two-Electron Energy =               16810.3883322206456796
    Total Energy =                      -3650.3402130254726217
 Dipole X            :          0.0000473            0.0002304            0.0002778
 Dipole Y            :          0.0013793           -0.0013052            0.0000741
 Dipole Z            :        273.3286115         -273.3274893            0.0011222
 Magnitude           :                                                    0.0011584

    SAPT Results
  --------------------------------------------------------------------------------------------------------
    Electrostatics                  7.87313707 [mEh]       4.94046810 [kcal/mol]      20.67091854 [kJ/mol]
      Elst10,r                      7.87313707 [mEh]       4.94046810 [kcal/mol]      20.67091854 [kJ/mol]

    Exchange                       12.61326949 [mEh]       7.91494610 [kcal/mol]      33.11613447 [kJ/mol]
      Exch10                       12.61326949 [mEh]       7.91494610 [kcal/mol]      33.11613447 [kJ/mol]
      Exch10(S^2)                  12.59850195 [mEh]       7.90567933 [kcal/mol]      33.07736231 [kJ/mol]

    Induction                     -19.99562520 [mEh]     -12.54744425 [kcal/mol]     -52.49850672 [kJ/mol]
      Ind20,r                     -22.97880981 [mEh]     -14.41942085 [kcal/mol]     -60.33085685 [kJ/mol]
      Exch-Ind20,r                  4.02806952 [mEh]       2.52765179 [kcal/mol]      10.57569507 [kJ/mol]
      delta HF,r (2)               -1.04488491 [mEh]      -0.65567518 [kcal/mol]      -2.74334494 [kJ/mol]

    Dispersion                    -12.15339627 [mEh]      -7.62637130 [kcal/mol]     -31.90873752 [kJ/mol]
      Disp20                      -13.90137109 [mEh]      -8.72324206 [kcal/mol]     -36.49804476 [kJ/mol]
      Exch-Disp20                   1.74797481 [mEh]       1.09687075 [kcal/mol]       4.58930724 [kJ/mol]
      Disp20 (SS)                  -6.95068554 [mEh]      -4.36162103 [kcal/mol]     -18.24902238 [kJ/mol]
      Disp20 (OS)                  -6.95068554 [mEh]      -4.36162103 [kcal/mol]     -18.24902238 [kJ/mol]
      Exch-Disp20 (SS)              1.02532034 [mEh]       0.64339822 [kcal/mol]       2.69197817 [kJ/mol]
      Exch-Disp20 (OS)              0.72265448 [mEh]       0.45347253 [kcal/mol]       1.89732907 [kJ/mol]

  Total HF                          0.49078136 [mEh]       0.30796995 [kcal/mol]       1.28854629 [kJ/mol]
  Total SAPT0                     -11.66261491 [mEh]      -7.31840135 [kcal/mol]     -30.62019123 [kJ/mol]

  Special recipe for scaled SAPT0 (see Manual):
    Electrostatics sSAPT0           7.87313707 [mEh]       4.94046810 [kcal/mol]      20.67091854 [kJ/mol]
    Exchange sSAPT0                12.61326949 [mEh]       7.91494610 [kcal/mol]      33.11613447 [kJ/mol]
    Induction sSAPT0              -19.98144389 [mEh]     -12.53854534 [kcal/mol]     -52.46127370 [kJ/mol]
    Dispersion sSAPT0             -12.14724232 [mEh]      -7.62250963 [kcal/mol]     -31.89258030 [kJ/mol]
  Total sSAPT0                    -11.64227964 [mEh]      -7.30564077 [kcal/mol]     -30.56680099 [kJ/mol]
  --------------------------------------------------------------------------------------------------------

*** Psi4 exiting successfully. Buy a developer a beer!
