                               Psi4 1.9 release

  ==> Input File <==

--------------------------------------------------------------------------
memory 32 GB # how much memory is available ! Depends on the nodes/cores !

molecule dimer {
# monomer A
-1 1    # Charge and multiplicity
B -1.977592e-04  2.742729e-04 4.200034
F  1.123153e-16  1.430594e-17 5.612819
F  1.147860e+00  6.757812e-01 3.728893
F  1.191806e-02 -1.332011e+00 3.729095
F -1.159666e+00  6.560735e-01 3.729174
--
# monomer B
0 1     # Charge and multiplicity
C   1.22531237526482      0.70753866091955      0.00613762728373
C   1.22532433589282     -0.70753852257020     -0.00619318228664
C   -0.00000567409046      1.41496628609039     -0.00672680580738
C   2.45644923379077      1.41832825917820      0.00902448468363
C   0.00001130712078     -1.41497612663474      0.00347275151708
C   -1.22530046906674      0.70754574598412      0.00838914760619
C   2.45643823516184     -1.41832293188077     -0.00843833914343
C   -0.00000085313587      2.83680140328112     -0.00913035594137
C   3.68182717731192      0.70931832800114     -0.00808954934571
C   2.45512052870677      2.83422403348893     -0.00819210630633
C   3.68182158506039     -0.70933346742900      0.00798293467272
C   -1.22531311884624     -0.70752714354401     -0.00512042085974
C   1.22670006104402      3.54346985599427      0.00816696660346
C   0.00000526469929     -2.83678176723568      0.00832091913869
C   -2.45643555300670      1.41831729028492      0.00842454345199
C   2.45512389762097     -2.83422965658853      0.00783102630520
C   -1.22671388474763      3.54346943575023      0.00827029982280
C   4.91451777504333      1.42717324448953     -0.00160886631602
C   3.69315067131765      3.54279566454522     -0.00155906667985
C   -2.45643712022637     -1.41831290883911     -0.00846337726810
C   1.22670532178455     -3.54347386990643     -0.00780316414624
C   -2.45512491866593      2.83421703463423     -0.00818572995999
C   4.91452486062398     -1.42718653794377      0.00136387641845
C   1.22142509354026      4.97013443726031      0.00150231067809
C   4.89300870916237      2.82518837202648     -0.00039219795739
C   -1.22669652864725     -3.54347062507680     -0.00753595973677
C   -3.68181849668397      0.70932533873199     -0.00807686886569
C   3.69314758099218     -3.54280096939050      0.00148176697923
C   -1.22143177215231      4.97012866986289      0.00168580605083
C   6.13477145276790      0.68054831910577     -0.00083909176631
C   3.65678936045204      4.97295361556775     -0.00065042889723
C   -2.45512642789169     -2.83421472106065      0.00758666850712
C   -3.68181869921921     -0.70932533146830      0.00810055625144
C   4.89301309775526     -2.82519973363176      0.00021895393805
C   -0.00000059327114      5.65044773803267      0.00045449734393
C   6.13477559217374     -0.68055448207492      0.00042622874941
C   2.47813196269732      5.65357712333155      0.00063835075260
C   1.22142288457925     -4.97012668293268     -0.00129718634452
C   -3.69316190412301      3.54279732619245     -0.00139355922051
C   -1.22142804110313     -4.97011793159564     -0.00140994817719
C   -4.91452132810043      1.42717581899491     -0.00153192130862
C   3.65678749952045     -4.97295485423912      0.00080007163680
C   -2.47813805026426      5.65357479452875      0.00092287576113
C   -3.69314125872231     -3.54278984697859      0.00136564082345
C   -4.91451200321153     -1.42718062802730      0.00139857359209
C   -0.00000552908399     -5.65043791501335      0.00005899322272
C   -4.89302000425900      2.82518897091939     -0.00040227981744
C   2.47812647313991     -5.65357317188818     -0.00029052915548
C   -3.65679823041642      4.97295655404175     -0.00047374852278
C   -4.89299899901461     -2.82519139505969      0.00006491824035
C   -2.47812801824129     -5.65356579800621     -0.00056571680280
C   -6.13477002348955      0.68054913825639     -0.00086464346868
C   -3.65678835334731     -4.97294365097028      0.00058578382008
C   -6.13476456307132     -0.68055354348201      0.00040575295444
H   5.83528897565761      3.36927626695423      0.00396712770529
H   7.07385965258860      1.22821762089947     -0.00037744837300
H   4.60066374401555      5.51238117445323     -0.00014522814529
H   5.83528386714679     -3.36930568472863     -0.00423551337640
H   -0.00001167146422      6.73853104613662     -0.00389474766392
H   7.07386165167227     -1.22822657074368     -0.00008250934481
H   2.47331421164041      6.74068466339473      0.00017162982210
H   4.60066897122302     -5.51237575717576      0.00039007446835
H   -2.47331820069565      6.74068209160650      0.00047297644710
H   -0.00000978838621     -6.73852780445195      0.00458867820736
H   -5.83530143450167      3.36927132229595      0.00410314985360
H   2.47330840367253     -6.74068500242887      0.00027980126949
H   -4.60067436136587      5.51237839860371      0.00002010017831
H   -5.83527902699321     -3.36928859177951     -0.00451481925734
H   -2.47329986759855     -6.74067870613986     -0.00016951527498
H   -7.07385728692578      1.22822084484047     -0.00046143985387
H   -4.60067330624313     -5.51236229778631      0.00021776644566
H   -7.07385645456741     -1.22822025997701     -0.00017736581114

    units angstrom      # Angstroms are the default
    no_reorient         # Geometry fixed, default
    symmetry c1         # C1 symmetry, default
}

set {
    scf_type DF         # Density fitting, faster than exact integrals
    freeze_core True    # Freeze core electrons
    basis jun-cc-pVDZ   # Jun-cc-pVDZ basis set, recommended for sSAPT0 in https://doi.org/10.1063/1.4867135
}

energy('ssapt0')        # Compute sSAPT0 energy, includes also SAPT0
--------------------------------------------------------------------------

  //              Dimer HF             //
    Molecular point group: c1
  Charge       = -1
  Multiplicity = 1
  Basis Set: JUN-CC-PVDZ
    Blend: JUN-CC-PVDZ
  Basis Set: (JUN-CC-PVDZ AUX)
    Blend: JUN-CC-PVDZ-JKFIT
  @DF-RHF Final Energy: -2478.66291559346655
    Total Energy =                      -2478.6629155934660957
 Dipole X            :         -0.0005456            0.0000481           -0.0004976
 Dipole Y            :          0.0009884           -0.0001453            0.0008431
 Dipole Z            :         19.9885408          -25.7472453           -5.7587045
 Magnitude           :                                                    5.7587046
  //            Monomer A HF           //
    Molecular point group: c1
  Multiplicity = 1
  Basis Set: JUN-CC-PVDZ
    Blend: JUN-CC-PVDZ
  Basis Set: (JUN-CC-PVDZ AUX)
    Blend: JUN-CC-PVDZ-JKFIT
  @DF-RHF Final Energy:  -422.77256949182026
    Total Energy =                       -422.7725694918202635
  //            Monomer B HF           //
    Molecular point group: c1

    Geometry (in Angstrom), charge = 0, multiplicity = 1:

       Center              X                  Y                   Z               Mass
    ------------   -----------------  -----------------  -----------------  -----------------
      Gh(B)          -0.000198161052     0.000273808717     3.714853606115    11.009305360000
      Gh(F)          -0.000000401852    -0.000000464183     5.127638606115    18.998403162730
      Gh(F)           1.147859598148     0.675780735817     3.243712606115    18.998403162730
      Gh(F)           0.011917658148    -1.332011464183     3.243914606115    18.998403162730
      Gh(F)          -1.159666401852     0.656073035817     3.243993606115    18.998403162730
         C            1.225311973413     0.707538196736    -0.479042766602    12.000000000000
         C            1.225323934041    -0.707538986754    -0.491373576172    12.000000000000
         C           -0.000006075942     1.414965821907    -0.491907199693    12.000000000000
         C            2.456448831939     1.418327794995    -0.476155909202    12.000000000000
         C            0.000010905269    -1.414976590818    -0.481707642368    12.000000000000
         C           -1.225300870919     0.707545281801    -0.476791246279    12.000000000000
         C            2.456437833310    -1.418323396064    -0.493618733029    12.000000000000
         C           -0.000001254988     2.836800939098    -0.494310749827    12.000000000000
         C            3.681826775460     0.709317863818    -0.493269943231    12.000000000000
         C            2.455120126855     2.834223569306    -0.493372500192    12.000000000000
         C            3.681821183209    -0.709333931612    -0.477197459213    12.000000000000
         C           -1.225313520698    -0.707527607727    -0.490300814745    12.000000000000
         C            1.226699659192     3.543469391811    -0.477013427282    12.000000000000
         C            0.000004862847    -2.836782231419    -0.476859474747    12.000000000000
         C           -2.456435954859     1.418316826102    -0.476755850433    12.000000000000
         C            2.455123495769    -2.834230120772    -0.477349367580    12.000000000000
         C           -1.226714286599     3.543468971567    -0.476910094063    12.000000000000
         C            4.914517373191     1.427172780306    -0.486789260201    12.000000000000
         C            3.693150269466     3.542795200362    -0.486739460565    12.000000000000
         C           -2.456437522078    -1.418313373022    -0.493643771153    12.000000000000
         C            1.226704919933    -3.543474334090    -0.492983558032    12.000000000000
         C           -2.455125320518     2.834216570451    -0.493366123845    12.000000000000
         C            4.914524458772    -1.427187002127    -0.483816517467    12.000000000000
         C            1.221424691688     4.970133973077    -0.483678083207    12.000000000000
         C            4.893008307311     2.825187907843    -0.485572591843    12.000000000000
         C           -1.226696930499    -3.543471089260    -0.492716353622    12.000000000000
         C           -3.681818898536     0.709324874549    -0.493257262751    12.000000000000
         C            3.693147179140    -3.542801433574    -0.483698626906    12.000000000000
         C           -1.221432174004     4.970128205680    -0.483494587835    12.000000000000
         C            6.134771050916     0.680547854922    -0.486019485652    12.000000000000
         C            3.656788958600     4.972953151384    -0.485830822783    12.000000000000
         C           -2.455126829744    -2.834215185244    -0.477593725378    12.000000000000
         C           -3.681819101071    -0.709325795652    -0.477079837634    12.000000000000
         C            4.893012695903    -2.825200197815    -0.484961439947    12.000000000000
         C           -0.000000995123     5.650447273849    -0.484725896541    12.000000000000
         C            6.134775190322    -0.680554946258    -0.484754165136    12.000000000000
         C            2.478131560845     5.653576659148    -0.484542043133    12.000000000000
         C            1.221422482727    -4.970127147116    -0.486477580230    12.000000000000
         C           -3.693162305975     3.542796862009    -0.486573953106    12.000000000000
         C           -1.221428442955    -4.970118395779    -0.486590342063    12.000000000000
         C           -4.914521729952     1.427175354812    -0.486712315194    12.000000000000
         C            3.656787097669    -4.972955318422    -0.484380322249    12.000000000000
         C           -2.478138452116     5.653574330345    -0.484257518124    12.000000000000
         C           -3.693141660574    -3.542790311162    -0.483814753062    12.000000000000
         C           -4.914512405063    -1.427181092211    -0.483781820293    12.000000000000
         C           -0.000005930936    -5.650438379197    -0.485121400663    12.000000000000
         C           -4.893020406111     2.825188506736    -0.485582673703    12.000000000000
         C            2.478126071288    -5.653573636072    -0.485470923041    12.000000000000
         C           -3.656798632268     4.972956089858    -0.485654142408    12.000000000000
         C           -4.892999400866    -2.825191859243    -0.485115475645    12.000000000000
         C           -2.478128420093    -5.653566262190    -0.485746110688    12.000000000000
         C           -6.134770425341     0.680548674073    -0.486045037354    12.000000000000
         C           -3.656788755199    -4.972944115154    -0.484594610065    12.000000000000
         C           -6.134764964923    -0.680554007665    -0.484774640931    12.000000000000
         H            5.835288573806     3.369275802771    -0.481213266180     1.007825032230
         H            7.073859250737     1.228217156716    -0.485557842258     1.007825032230
         H            4.600663342164     5.512380710270    -0.485325622031     1.007825032230
         H            5.835283465295    -3.369306148912    -0.489415907262     1.007825032230
         H           -0.000012073316     6.738530581953    -0.489075141549     1.007825032230
         H            7.073861249820    -1.228227034927    -0.485262903230     1.007825032230
         H            2.473313809789     6.740684199211    -0.485008764063     1.007825032230
         H            4.600668569371    -5.512376221359    -0.484790319417     1.007825032230
         H           -2.473318602548     6.740681627423    -0.484707417438     1.007825032230
         H           -0.000010190238    -6.738528268635    -0.480591715678     1.007825032230
         H           -5.835301836354     3.369270858113    -0.481077244032     1.007825032230
         H            2.473308001821    -6.740685466612    -0.484900592616     1.007825032230
         H           -4.600674763218     5.512377934420    -0.485160293707     1.007825032230
         H           -5.835279428845    -3.369289055963    -0.489695213143     1.007825032230
         H           -2.473300269450    -6.740679170323    -0.485349909160     1.007825032230
         H           -7.073857688778     1.228220380657    -0.485641833739     1.007825032230
         H           -4.600673708095    -5.512362761970    -0.484962627440     1.007825032230
         H           -7.073856856419    -1.228220724160    -0.485357759697     1.007825032230

  Charge       = 0
  Multiplicity = 1
  Basis Set: JUN-CC-PVDZ
    Blend: JUN-CC-PVDZ
  Basis Set: (JUN-CC-PVDZ AUX)
    Blend: JUN-CC-PVDZ-JKFIT

    Orbital Energies [Eh]
    ---------------------

    Doubly Occupied:

       1A    -11.260655     2A    -11.260206     3A    -11.260205
       4A    -11.259463     5A    -11.259463     6A    -11.259283
       7A    -11.259039     8A    -11.258969     9A    -11.258968
      10A    -11.258638    11A    -11.258635    12A    -11.258531
      13A    -11.258474    14A    -11.258470    15A    -11.258467
      16A    -11.258435    17A    -11.258429    18A    -11.258409
      19A    -11.258409    20A    -11.258404    21A    -11.258398
      22A    -11.258332    23A    -11.258327    24A    -11.258080
      25A    -11.257326    26A    -11.257267    27A    -11.257266
      28A    -11.257135    29A    -11.257135    30A    -11.257053
      31A    -11.256421    32A    -11.256353    33A    -11.256352
      34A    -11.256245    35A    -11.256244    36A    -11.256198
      37A    -11.252284    38A    -11.252284    39A    -11.252282
      40A    -11.252281    41A    -11.252279    42A    -11.252277
      43A    -11.251396    44A    -11.251394    45A    -11.251394
      46A    -11.251382    47A    -11.251380    48A    -11.251377
      49A    -11.250846    50A    -11.250845    51A    -11.250843
      52A    -11.250841    53A    -11.250840    54A    -11.250838
      55A     -1.244033    56A     -1.219802    57A     -1.219801
      58A     -1.189536    59A     -1.189529    60A     -1.180917
      61A     -1.157558    62A     -1.148978    63A     -1.135472
      64A     -1.135465    65A     -1.113193    66A     -1.113188
      67A     -1.082419    68A     -1.082412    69A     -1.078582
      70A     -1.065984    71A     -1.065980    72A     -1.039391
      73A     -1.024260    74A     -1.021740    75A     -1.021697
      76A     -1.017731    77A     -1.012802    78A     -0.987009
      79A     -0.986963    80A     -0.961880    81A     -0.961830
      82A     -0.894287    83A     -0.894261    84A     -0.887904
      85A     -0.886159    86A     -0.886101    87A     -0.881381
      88A     -0.881333    89A     -0.861896    90A     -0.837420
      91A     -0.818203    92A     -0.816593    93A     -0.812120
      94A     -0.812111    95A     -0.794689    96A     -0.794678
      97A     -0.746604    98A     -0.744842    99A     -0.733393
     100A     -0.733384   101A     -0.732180   102A     -0.732156
     103A     -0.716479   104A     -0.698969   105A     -0.698958
     106A     -0.693574   107A     -0.693559   108A     -0.661229
     109A     -0.653080   110A     -0.651130   111A     -0.650253
     112A     -0.650247   113A     -0.639359   114A     -0.639357
     115A     -0.629698   116A     -0.627506   117A     -0.627490
     118A     -0.606483   119A     -0.605817   120A     -0.601647
     121A     -0.599724   122A     -0.599693   123A     -0.593628
     124A     -0.591185   125A     -0.591175   126A     -0.585285
     127A     -0.576394   128A     -0.576388   129A     -0.567327
     130A     -0.567312   131A     -0.565938   132A     -0.565919
     133A     -0.558699   134A     -0.554839   135A     -0.554833
     136A     -0.538593   137A     -0.538591   138A     -0.538214
     139A     -0.538208   140A     -0.529713   141A     -0.528176
     142A     -0.522864   143A     -0.522858   144A     -0.500503
     145A     -0.495609   146A     -0.493230   147A     -0.487842
     148A     -0.485058   149A     -0.481745   150A     -0.481737
     151A     -0.470360   152A     -0.470342   153A     -0.450991
     154A     -0.450913   155A     -0.439074   156A     -0.439065
     157A     -0.404759   158A     -0.404736   159A     -0.403386
     160A     -0.375421   161A     -0.375419   162A     -0.349129
     163A     -0.337631   164A     -0.336572   165A     -0.336515
     166A     -0.311082   167A     -0.298117   168A     -0.284355
     169A     -0.284301   170A     -0.224918   171A     -0.224853

  @DF-RHF Final Energy: -2055.89372944798652

   => Energetics <=

    Nuclear Repulsion Energy =           6452.5568002797772351
    One-Electron Energy =              -15636.4837319059097354
    Two-Electron Energy =                7128.0332021781459844
    Total Energy =                      -2055.8937294479865159
 Dipole X            :          0.0000352            0.0000419            0.0000771
 Dipole Y            :          0.0000284           -0.0000426           -0.0000142
 Dipole Z            :        313.5635034         -313.5669015           -0.0033981
 Magnitude           :                                                    0.0033990

    SAPT Results
  --------------------------------------------------------------------------------------------------------
    Electrostatics                 12.47683454 [mEh]       7.82933188 [kcal/mol]      32.75792457 [kJ/mol]
      Elst10,r                     12.47683454 [mEh]       7.82933188 [kcal/mol]      32.75792457 [kJ/mol]

    Exchange                        1.10341857 [mEh]       0.69240561 [kcal/mol]       2.89702506 [kJ/mol]
      Exch10                        1.10341857 [mEh]       0.69240561 [kcal/mol]       2.89702506 [kJ/mol]
      Exch10(S^2)                   1.10347023 [mEh]       0.69243802 [kcal/mol]       2.89716068 [kJ/mol]

    Induction                     -10.19690677 [mEh]      -6.39865560 [kcal/mol]     -26.77197504 [kJ/mol]
      Ind20,r                     -10.44812397 [mEh]      -6.55629677 [kcal/mol]     -27.43154570 [kJ/mol]
      Exch-Ind20,r                  0.24043761 [mEh]       0.15087688 [kcal/mol]       0.63126885 [kJ/mol]
      delta HF,r (2)                0.01077959 [mEh]       0.00676429 [kcal/mol]       0.02830181 [kJ/mol]

    Dispersion                     -4.86915351 [mEh]      -3.05543995 [kcal/mol]     -12.78396077 [kJ/mol]
      Disp20                       -5.08909191 [mEh]      -3.19345338 [kcal/mol]     -13.36140896 [kJ/mol]
      Exch-Disp20                   0.21993840 [mEh]       0.13801343 [kcal/mol]       0.57744819 [kJ/mol]
      Disp20 (SS)                  -2.54454595 [mEh]      -1.59672669 [kcal/mol]      -6.68070448 [kJ/mol]
      Disp20 (OS)                  -2.54454595 [mEh]      -1.59672669 [kcal/mol]      -6.68070448 [kJ/mol]
      Exch-Disp20 (SS)              0.14066264 [mEh]       0.08826714 [kcal/mol]       0.36930970 [kJ/mol]
      Exch-Disp20 (OS)              0.07927576 [mEh]       0.04974629 [kcal/mol]       0.20813849 [kJ/mol]

  Total HF                          3.38334634 [mEh]       2.12308188 [kcal/mol]       8.88297459 [kJ/mol]
  Total SAPT0                      -1.48580717 [mEh]      -0.93235807 [kcal/mol]      -3.90098618 [kJ/mol]

  Special recipe for scaled SAPT0 (see Manual):
    Electrostatics sSAPT0          12.47683454 [mEh]       7.82933188 [kcal/mol]      32.75792457 [kJ/mol]
    Exchange sSAPT0                 1.10341857 [mEh]       0.69240561 [kcal/mol]       2.89702506 [kJ/mol]
    Induction sSAPT0              -10.19694053 [mEh]      -6.39867679 [kcal/mol]     -26.77206369 [kJ/mol]
    Dispersion sSAPT0              -4.86918439 [mEh]      -3.05545934 [kcal/mol]     -12.78404186 [kJ/mol]
  Total sSAPT0                     -1.48587182 [mEh]      -0.93239864 [kcal/mol]      -3.90115592 [kJ/mol]
  --------------------------------------------------------------------------------------------------------

*** Psi4 exiting successfully. Buy a developer a beer!
