                               Psi4 1.9 release

  ==> Input File <==

--------------------------------------------------------------------------
memory 64 GB # how much memory is available ! Depends on the nodes/cores !

molecule dimer {
# monomer A
-1 1    # Charge and multiplicity
B -0.000046  0.000337 5.399994
F -1.153597  0.000048 6.215641
F  1.153661 -0.000581 6.215641
F -0.000019 -1.153637 4.584360
F -0.000019  1.153978 4.584360
--
# monomer B
0 1     # Charge and multiplicity
C   -3.66844126402057      7.80375217008252      0.00190004133558
C   -4.84759871934653      7.13124183134024     -0.00046653359696
C   -4.89495929917518      5.69633040353158     -0.00103944469517
C   -3.65374067877320      4.98073034095895      0.00662099703436
C   -2.40942512149445      7.11398103667468      0.00209438359570
C   -2.42547734410473      5.68112195090346     -0.00491050527438
C   -1.19474401643570      7.78614419430947      0.00356656413763
C   0.03795902893699      7.09942164575698      0.00139585983271
C   0.03033258741920      5.66948955970466     -0.00408752508301
C   -1.20098450790502      4.96927034791531      0.00488220885047
C   1.27795782581485      7.77285944319479      0.00277170839332
C   2.48535808472416      7.08769688523756      0.00049722048857
C   2.48612868491717      5.65477081024076     -0.00644052849921
C   1.25408291964399      4.95607811366431      0.00518741308898
C   3.75171459140595      7.76391215098033      0.00062407186893
C   4.92356605618520      7.07878077698995     -0.00143240883900
C   4.95560727132542      5.64344746336949     -0.00159282164606
C   3.70680153420475      4.94121020833308      0.00349873852374
H   -3.65852113775815      8.89082741913536      0.00358502958574
H   -1.18921332975660      8.87412108735996      0.00753844057883
H   1.28429423888630      8.86083343548850      0.00693053253426
H   3.75354208679975      8.85103527897216      0.00214659618464
H   5.86995870320703      7.61379483465560     -0.00235777588134
H   -5.78823170750226      7.67630221293400     -0.00202638095293
C   -6.09197395869619      4.99326001364347     -0.00291168518608
C   -6.12866148031747      3.58258016879823     -0.00171050815740
C   -3.66457974004527      3.56418217974434     -0.00463560277484
C   -4.89429820469869      2.86108077590057      0.00453338221034
C   -2.43733499489796      2.84761165708481      0.00719617576166
C   -1.20922785759670      3.54788693497833     -0.00648285103018
C   1.24714157216223      3.53468075142962     -0.00729145743546
C   0.01517603956900      2.83311183930540      0.00439272578912
C   2.46764517244071      2.82128997725533      0.00449278391269
C   3.70254947457969      3.52466015442405     -0.00899517692985
C   6.14498038638375      4.92757236613191     -0.00282626685777
C   6.16658835886151      3.51658447594213     -0.00065971342101
C   4.92460995845939      2.80840792535402      0.00587903281610
H   7.08990550964105      5.46688776622306     -0.00658814770723
H   -7.03104175110130      5.54268795285765     -0.00714490013730
C   -7.33969804112295      2.85841153457957     -0.00333767559888
C   -7.36488195805880      1.47032337158330     -0.00157213747140
C   -4.90350460894690      1.44442681216000     -0.00628840166334
C   -6.13225715261081      0.73993935705394      0.00600164231964
C   -3.67687480051673      0.72669714267312      0.00433931473643
C   -2.44565658606518      1.42964113326212     -0.00597039546461
C   -1.22360068130162      0.71532450163492      0.00545886906656
C   0.00763786931376      1.41738314923765      0.00392452278437
C   1.23121980774686      0.70211669058719     -0.01490206287210
C   2.46082110053113      1.40329203612573      0.00460244601878
C   3.68443025419614      0.68719842821222      0.00377365974158
C   4.91870890153864      1.39173456118907     -0.00862816189375
C   7.36980207796101      2.77948220318441     -0.00242013321349
C   7.38016266612146      1.39121750785509     -0.00087345036788
C   6.13979953912259      0.67411862320065      0.00545489144369
H   -8.27919079934664      3.40711804112415     -0.00763522772059
H   8.31511347147953      3.31811809662368     -0.00663070901292
C   -8.59175593758115      0.72483255304480     -0.00123170985383
C   -8.59902460370342     -0.63263980622873      0.00089141472904
C   -6.13981313911873     -0.67413663715361     -0.00609792660607
C   -7.38018411213749     -1.39126618958160      0.00131813493501
C   -4.91868448025621     -1.39175501803000      0.00624257154343
C   -3.68443829568458     -0.68723731573599     -0.00478966852105
C   -2.46081704024768     -1.40334517882457      0.00575341766833
C   -1.23116201232071     -0.70217386488055     -0.00636696112346
C   -0.00756962538737     -1.41741884941102      0.00108956317991
C   1.22364771588843     -0.71527537726392      0.01109518512883
C   2.44567064933149     -1.42964328900682     -0.00065482763106
C   3.67686670284649     -0.72670743155550     -0.00479541202602
C   6.13224884641929     -0.73997883984993     -0.00632338623858
C   4.90351914550401     -1.44445752054090      0.00751768830159
C   8.59901484869081      0.63260386666793     -0.00101133422380
C   8.59174548810050     -0.72485086719319      0.00072504603735
C   7.36486276438985     -1.47033266560598      0.00049486934466
H   -9.52830597181814      1.27684744919284     -0.00270163681798
H   9.54141097460619      1.17457248844457     -0.00206336648518
C   -7.36983790976868     -2.77954514593389      0.00312634335708
C   -4.92459910905015     -2.80843725734101     -0.00460528907921
C   -6.16662249566744     -3.51665219282533      0.00169655107992
C   -3.70251035970491     -3.52468154912026      0.00571878010666
C   -2.46764698511392     -2.82132596280400     -0.00632585824990
C   -0.01513347410770     -2.83314164539971     -0.00604426974092
C   -1.24712184122656     -3.53473217556300      0.00551968366725
C   1.20924506964357     -3.54791467864352      0.00805871345849
C   2.43733602215464     -2.84764173817541     -0.00608104485234
C   4.89430234377080     -2.86112296828604     -0.00526030478103
C   3.66461525504104     -3.56421984553201      0.00761911515957
C   6.12863901474565     -3.58258405771778      0.00096495711699
C   7.33967266469532     -2.85841330737039      0.00248018319869
H   -9.54144911125902     -1.17456346666430      0.00226083090216
H   9.52826186807155     -1.27691907390448      0.00197485379837
H   -8.31516504384864     -3.31814985321231      0.00729857188773
H   8.27915514249207     -3.40714078989363      0.00681973918158
C   -6.14499418870218     -4.92764727278338      0.00302254913999
C   -3.70678334799751     -4.94126171411716     -0.00679841894792
C   -4.95559005800169     -5.64349397349412      0.00116871569699
C   -2.48612132622665     -5.65478557440947      0.00614125209662
C   -1.25405833548005     -4.95612205000132     -0.00503435388927
C   1.20101257386816     -4.96928038819302     -0.00385322963129
C   -0.03033667441341     -5.66952030313900      0.00398997003238
C   3.65375010132847     -4.98074377541453     -0.00309522988330
C   2.42549269587528     -5.68117463552727      0.00628170066869
C   6.09196561781097     -4.99325796338655      0.00325918379042
C   4.89497644461045     -5.69634842095790      0.00202298796027
H   -7.08989238804069     -5.46699984223871      0.00742531082125
H   7.03105520920009     -5.54265853633254      0.00683896355417
C   -4.92354532219813     -7.07882109967734      0.00061394679214
C   -2.48534208823777     -7.08772807792913     -0.00189594564379
C   -3.75168589177895     -7.76394715763627     -0.00170126671874
C   -0.03794895698805     -7.09946487446944     -0.00168022049625
C   -1.27795610040136     -7.77290438466689     -0.00366491325785
C   2.40944432072629     -7.11402201200282     -0.00081701968533
C   1.19474993715296     -7.78618536556242     -0.00296931056689
C   4.84762105249800     -7.13126211057943      0.00168979497423
C   3.66847160587561     -7.80378799294376     -0.00065863938960
H   -5.86994035041618     -7.61383059804164      0.00215798365757
H   5.78824962538815     -7.67633218931421      0.00281691445618
H   -3.75352693944918     -8.85107156923607     -0.00353718114765
H   -1.28430440589466     -8.86087539249706     -0.00809229711623
H   1.18922157469537     -8.87416062058945     -0.00706194725726
H   3.65854661482387     -8.89086063405326     -0.00231318081200

    units angstrom      # Angstroms are the default
    no_reorient         # Geometry fixed, default
    symmetry c1         # C1 symmetry, default
}

set {
    scf_type DF         # Density fitting, faster than exact integrals
    freeze_core True    # Freeze core electrons
    basis jun-cc-pVDZ   # Jun-cc-pVDZ basis set, recommended for sSAPT0 in https://doi.org/10.1063/1.4867135
}

energy('ssapt0')        # Compute sSAPT0 energy, includes also SAPT0
--------------------------------------------------------------------------

  //              Dimer HF             //
    Molecular point group: c1
  Charge       = -1
  Multiplicity = 1
  Basis Set: JUN-CC-PVDZ
    Blend: JUN-CC-PVDZ
  Basis Set: (JUN-CC-PVDZ AUX)
    Blend: JUN-CC-PVDZ-JKFIT
  @DF-RHF Final Energy: -4073.10653598206909
    Total Energy =                      -4073.1065359820677259
 Dipole X            :          0.0001946           -0.0001188            0.0000758
 Dipole Y            :          0.0012493           -0.0002727            0.0009766
 Dipole Z            :         23.8321607          -32.1365526           -8.3043919
 Magnitude           :                                                    8.3043919
  //            Monomer A HF           //
    Molecular point group: c1
  Multiplicity = 1
  Basis Set: JUN-CC-PVDZ
    Blend: JUN-CC-PVDZ
  Basis Set: (JUN-CC-PVDZ AUX)
    Blend: JUN-CC-PVDZ-JKFIT
  @DF-RHF Final Energy:  -422.77186316332126
    Total Energy =                       -422.7718631633212567
  //            Monomer B HF           //
    Molecular point group: c1

    Geometry (in Angstrom), charge = 0, multiplicity = 1:

       Center              X                  Y                   Z               Mass
    ------------   -----------------  -----------------  -----------------  -----------------
      Gh(B)          -0.000050191042     0.000351518223     5.028063088676    11.009305360000
      Gh(F)          -1.153601191042     0.000062518223     5.843710088676    18.998403162730
      Gh(F)           1.153656808958    -0.000566481777     5.843710088676    18.998403162730
      Gh(F)          -0.000023191042    -1.153622481777     4.212429088676    18.998403162730
      Gh(F)          -0.000023191042     1.153992518223     4.212429088676    18.998403162730
         C           -3.668445455062     7.803766688305    -0.370030869989    12.000000000000
         C           -4.847602910388     7.131256349563    -0.372397444921    12.000000000000
         C           -4.894963490217     5.696344921754    -0.372970356019    12.000000000000
         C           -3.653744869815     4.980744859182    -0.365309914290    12.000000000000
         C           -2.409429312536     7.113995554897    -0.369836527729    12.000000000000
         C           -2.425481535146     5.681136469126    -0.376841416599    12.000000000000
         C           -1.194748207477     7.786158712532    -0.368364347187    12.000000000000
         C            0.037954837895     7.099436163980    -0.370535051492    12.000000000000
         C            0.030328396378     5.669504077927    -0.376018436407    12.000000000000
         C           -1.200988698947     4.969284866138    -0.367048702474    12.000000000000
         C            1.277953634773     7.772873961417    -0.369159202931    12.000000000000
         C            2.485353893683     7.087711403460    -0.371433690836    12.000000000000
         C            2.486124493876     5.654785328463    -0.378371439823    12.000000000000
         C            1.254078728602     4.956092631887    -0.366743498235    12.000000000000
         C            3.751710400364     7.763926669203    -0.371306839455    12.000000000000
         C            4.923561865144     7.078795295213    -0.373363320163    12.000000000000
         C            4.955603080284     5.643461981592    -0.373523732970    12.000000000000
         C            3.706797343163     4.941224726556    -0.368432172801    12.000000000000
         H           -3.658525328800     8.890841937358    -0.368345881739     1.007825032230
         H           -1.189217520798     8.874135605583    -0.364392470745     1.007825032230
         H            1.284290047845     8.860847953711    -0.365000378790     1.007825032230
         H            3.753537895758     8.851049797195    -0.369784315140     1.007825032230
         H            5.869954512165     7.613809352878    -0.374288687206     1.007825032230
         H           -5.788235898544     7.676316731157    -0.373957292277     1.007825032230
         C           -6.091978149738     4.993274531866    -0.374842596510    12.000000000000
         C           -6.128665671359     3.582594687021    -0.373641419482    12.000000000000
         C           -3.664583931087     3.564196697967    -0.376566514099    12.000000000000
         C           -4.894302395740     2.861095294123    -0.367397529114    12.000000000000
         C           -2.437339185940     2.847626175307    -0.364734735563    12.000000000000
         C           -1.209232048638     3.547901453201    -0.378413762354    12.000000000000
         C            1.247137381121     3.534695269652    -0.379222368760    12.000000000000
         C            0.015171848527     2.833126357528    -0.367538185535    12.000000000000
         C            2.467640981399     2.821304495478    -0.367438127412    12.000000000000
         C            3.702545283538     3.524674672647    -0.380926088254    12.000000000000
         C            6.144976195342     4.927586884354    -0.374757178182    12.000000000000
         C            6.166584167820     3.516598994165    -0.372590624745    12.000000000000
         C            4.924605767418     2.808422443577    -0.366051878508    12.000000000000
         H            7.089901318599     5.466902284446    -0.378519059031     1.007825032230
         H           -7.031045942143     5.542702471080    -0.379075811462     1.007825032230
         C           -7.339702232165     2.858426052802    -0.375268586923    12.000000000000
         C           -7.364886149100     1.470337889806    -0.373503048796    12.000000000000
         C           -4.903508799989     1.444441330383    -0.378219312988    12.000000000000
         C           -6.132261343652     0.739953875277    -0.365929269005    12.000000000000
         C           -3.676878991558     0.726711660896    -0.367591596588    12.000000000000
         C           -2.445660777107     1.429655651485    -0.377901306789    12.000000000000
         C           -1.223604872343     0.715339019858    -0.366472042258    12.000000000000
         C            0.007633678272     1.417397667460    -0.368006388540    12.000000000000
         C            1.231215616705     0.702131208810    -0.386832974196    12.000000000000
         C            2.460816909489     1.403306554348    -0.367328465305    12.000000000000
         C            3.684426063155     0.687212946435    -0.368157251583    12.000000000000
         C            4.918704710497     1.391749079412    -0.380559073218    12.000000000000
         C            7.369797886919     2.779496721407    -0.374351044538    12.000000000000
         C            7.380158475080     1.391232026078    -0.372804361692    12.000000000000
         C            6.139795348081     0.674133141423    -0.366476019881    12.000000000000
         H           -8.279194990388     3.407132559347    -0.379566139045     1.007825032230
         H            8.315109280438     3.318132614846    -0.378561620337     1.007825032230
         C           -8.591760128623     0.724847071267    -0.373162621178    12.000000000000
         C           -8.599028794745    -0.632625288006    -0.371039496595    12.000000000000
         C           -6.139817330160    -0.674122118931    -0.378028837930    12.000000000000
         C           -7.380188303179    -1.391251671359    -0.370612776389    12.000000000000
         C           -4.918688671298    -1.391740499807    -0.365688339781    12.000000000000
         C           -3.684442486726    -0.687222797513    -0.376720579845    12.000000000000
         C           -2.460821231289    -1.403330660602    -0.366177493656    12.000000000000
         C           -1.231166203362    -0.702159346658    -0.378297872448    12.000000000000
         C           -0.007573816429    -1.417404331188    -0.370841348144    12.000000000000
         C            1.223643524847    -0.715260859041    -0.360835726195    12.000000000000
         C            2.445666458290    -1.429628770784    -0.372585738955    12.000000000000
         C            3.676862511805    -0.726692913333    -0.376726323350    12.000000000000
         C            6.132244655378    -0.739964321627    -0.378254297563    12.000000000000
         C            4.903514954462    -1.444443002318    -0.364413223023    12.000000000000
         C            8.599010657649     0.632618384891    -0.372942245548    12.000000000000
         C            8.591741297059    -0.724836348971    -0.371205865287    12.000000000000
         C            7.364858573348    -1.470318147383    -0.371436041980    12.000000000000
         H           -9.528310162860     1.276861967415    -0.374632548142     1.007825032230
         H            9.541406783565     1.174587006667    -0.373994277809     1.007825032230
         C           -7.369842100810    -2.779530627711    -0.368804567967    12.000000000000
         C           -4.924603300092    -2.808422739118    -0.376536200403    12.000000000000
         C           -6.166626686709    -3.516637674603    -0.370234360244    12.000000000000
         C           -3.702514550747    -3.524667030898    -0.366212131218    12.000000000000
         C           -2.467651176156    -2.821311444581    -0.378256769574    12.000000000000
         C           -0.015137665149    -2.833127127177    -0.377975181065    12.000000000000
         C           -1.247126032268    -3.534717657340    -0.366411227657    12.000000000000
         C            1.209240878602    -3.547900160421    -0.363872197866    12.000000000000
         C            2.437331831113    -2.847627219953    -0.378011956177    12.000000000000
         C            4.894298152729    -2.861108450063    -0.377191216105    12.000000000000
         C            3.664611063999    -3.564205327309    -0.364311796165    12.000000000000
         C            6.128634823704    -3.582569539495    -0.370965954207    12.000000000000
         C            7.339668473654    -2.858398789148    -0.369450728126    12.000000000000
         H           -9.541453302301    -1.174548948442    -0.369670080422     1.007825032230
         H            9.528257677030    -1.276904555682    -0.369956057526     1.007825032230
         H           -8.315169234890    -3.318135334990    -0.364632339437     1.007825032230
         H            8.279150951450    -3.407126271671    -0.365111172143     1.007825032230
         C           -6.144998379744    -4.927632754561    -0.368908362184    12.000000000000
         C           -3.706787539039    -4.941247195895    -0.378729330272    12.000000000000
         C           -4.955594249043    -5.643479455272    -0.370762195627    12.000000000000
         C           -2.486125517268    -5.654771056187    -0.365789659228    12.000000000000
         C           -1.254062526522    -4.956107531779    -0.376965265214    12.000000000000
         C            1.201008382827    -4.969265869970    -0.375784140956    12.000000000000
         C           -0.030340865455    -5.669505784916    -0.367940941292    12.000000000000
         C            3.653745910287    -4.980729257192    -0.375026141208    12.000000000000
         C            2.425488504834    -5.681160117305    -0.365649210656    12.000000000000
         C            6.091961426769    -4.993243445164    -0.368671727534    12.000000000000
         C            4.894972253569    -5.696333902735    -0.369907923364    12.000000000000
         H           -7.089896579082    -5.466985324016    -0.364505600503     1.007825032230
         H            7.031051018158    -5.542644018110    -0.365091947770     1.007825032230
         C           -4.923549513240    -7.078806581455    -0.371316964532    12.000000000000
         C           -2.485346279279    -7.087713559707    -0.373826856968    12.000000000000
         C           -3.751690082821    -7.763932639414    -0.373632178043    12.000000000000
         C           -0.037953148030    -7.099450356247    -0.373611131821    12.000000000000
         C           -1.277960291443    -7.772889866444    -0.375595824582    12.000000000000
         C            2.409440129685    -7.114007493780    -0.372747931010    12.000000000000
         C            1.194745746111    -7.786170847340    -0.374900221891    12.000000000000
         C            4.847616861456    -7.131247592357    -0.370241116350    12.000000000000
         C            3.668467414834    -7.803773474721    -0.372589550714    12.000000000000
         H           -5.869944541458    -7.613816079819    -0.369772927667     1.007825032230
         H            5.788245434347    -7.676317671092    -0.369113996868     1.007825032230
         H           -3.753531130491    -8.851057051013    -0.375468092472     1.007825032230
         H           -1.284308596936    -8.860860874274    -0.380023208440     1.007825032230
         H            1.189217383654    -8.874146102367    -0.378992858582     1.007825032230
         H            3.658542423782    -8.890846115831    -0.374244092136     1.007825032230

  Charge       = 0
  Multiplicity = 1
  Basis Set: JUN-CC-PVDZ
    Blend: JUN-CC-PVDZ
  Basis Set: (JUN-CC-PVDZ AUX)
    Blend: JUN-CC-PVDZ-JKFIT

    Orbital Energies [Eh]
    ---------------------

    Doubly Occupied:

       1A    -11.264030     2A    -11.263720     3A    -11.263692
       4A    -11.263358     5A    -11.263342     6A    -11.263314
       7A    -11.263157     8A    -11.263146     9A    -11.263128
      10A    -11.262962    11A    -11.262810    12A    -11.262804
      13A    -11.262328    14A    -11.262322    15A    -11.262263
      16A    -11.262255    17A    -11.262197    18A    -11.262170
      19A    -11.262125    20A    -11.262090    21A    -11.262083
      22A    -11.261946    23A    -11.261930    24A    -11.261814
      25A    -11.261800    26A    -11.261788    27A    -11.261780
      28A    -11.261737    29A    -11.261726    30A    -11.261649
      31A    -11.261624    32A    -11.261620    33A    -11.261594
      34A    -11.261591    35A    -11.261570    36A    -11.261536
      37A    -11.261392    38A    -11.261382    39A    -11.261375
      40A    -11.261368    41A    -11.261364    42A    -11.261356
      43A    -11.261348    44A    -11.261332    45A    -11.261328
      46A    -11.261304    47A    -11.261302    48A    -11.261297
      49A    -11.261132    50A    -11.261099    51A    -11.261097
      52A    -11.261017    53A    -11.261012    54A    -11.260945
      55A    -11.259988    56A    -11.259975    57A    -11.259972
      58A    -11.259944    59A    -11.259940    60A    -11.259925
      61A    -11.259363    62A    -11.259338    63A    -11.259335
      64A    -11.259283    65A    -11.259280    66A    -11.259251
      67A    -11.258992    68A    -11.258975    69A    -11.258971
      70A    -11.258945    71A    -11.258941    72A    -11.258930
      73A    -11.254572    74A    -11.254571    75A    -11.254570
      76A    -11.254567    77A    -11.254562    78A    -11.254560
      79A    -11.253717    80A    -11.253715    81A    -11.253711
      82A    -11.253710    83A    -11.253709    84A    -11.253704
      85A    -11.253632    86A    -11.253631    87A    -11.253627
      88A    -11.253626    89A    -11.253624    90A    -11.253619
      91A    -11.253100    92A    -11.253099    93A    -11.253098
      94A    -11.253095    95A    -11.253089    96A    -11.253089
      97A     -1.254060    98A     -1.239100    99A     -1.239090
     100A     -1.220550   101A     -1.220544   102A     -1.215540
     103A     -1.201117   104A     -1.195684   105A     -1.188244
     106A     -1.188235   107A     -1.173839   108A     -1.173834
     109A     -1.155726   110A     -1.155722   111A     -1.152815
     112A     -1.144792   113A     -1.144790   114A     -1.128658
     115A     -1.114809   116A     -1.113232   117A     -1.112576
     118A     -1.112569   119A     -1.111685   120A     -1.088519
     121A     -1.088501   122A     -1.077029   123A     -1.077028
     124A     -1.067706   125A     -1.067679   126A     -1.065067
     127A     -1.046884   128A     -1.046876   129A     -1.040567
     130A     -1.038803   131A     -1.038801   132A     -1.025337
     133A     -1.021491   134A     -1.021446   135A     -1.007257
     136A     -1.006899   137A     -1.003873   138A     -1.000584
     139A     -1.000535   140A     -0.991140   141A     -0.971076
     142A     -0.971030   143A     -0.955957   144A     -0.955901
     145A     -0.905700   146A     -0.905657   147A     -0.905613
     148A     -0.905573   149A     -0.904447   150A     -0.892472
     151A     -0.892418   152A     -0.890464   153A     -0.890402
     154A     -0.889548   155A     -0.872288   156A     -0.869112
     157A     -0.851615   158A     -0.847962   159A     -0.847940
     160A     -0.845694   161A     -0.843111   162A     -0.834646
     163A     -0.834633   164A     -0.828182   165A     -0.828180
     166A     -0.784631   167A     -0.784619   168A     -0.783751
     169A     -0.783721   170A     -0.782374   171A     -0.782357
     172A     -0.782129   173A     -0.767073   174A     -0.760895
     175A     -0.750670   176A     -0.733555   177A     -0.727151
     178A     -0.727141   179A     -0.725171   180A     -0.724620
     181A     -0.724605   182A     -0.718592   183A     -0.713867
     184A     -0.713861   185A     -0.699652   186A     -0.699644
     187A     -0.686225   188A     -0.686029   189A     -0.686027
     190A     -0.682251   191A     -0.682237   192A     -0.678859
     193A     -0.653702   194A     -0.650951   195A     -0.650923
     196A     -0.649909   197A     -0.649893   198A     -0.649636
     199A     -0.641022   200A     -0.641004   201A     -0.640161
     202A     -0.639229   203A     -0.636107   204A     -0.636084
     205A     -0.629223   206A     -0.617717   207A     -0.615371
     208A     -0.615352   209A     -0.608877   210A     -0.608870
     211A     -0.599171   212A     -0.599115   213A     -0.598825
     214A     -0.598702   215A     -0.598671   216A     -0.598132
     217A     -0.595137   218A     -0.595125   219A     -0.594800
     220A     -0.594337   221A     -0.592039   222A     -0.592036
     223A     -0.587493   224A     -0.577851   225A     -0.577842
     226A     -0.575704   227A     -0.575704   228A     -0.573455
     229A     -0.569592   230A     -0.568231   231A     -0.568212
     232A     -0.566836   233A     -0.566821   234A     -0.560970
     235A     -0.558804   236A     -0.558787   237A     -0.558486
     238A     -0.554447   239A     -0.550601   240A     -0.547530
     241A     -0.544311   242A     -0.535061   243A     -0.534974
     244A     -0.533610   245A     -0.533587   246A     -0.528145
     247A     -0.528131   248A     -0.527892   249A     -0.517252
     250A     -0.517219   251A     -0.515398   252A     -0.515392
     253A     -0.509710   254A     -0.509692   255A     -0.498100
     256A     -0.496527   257A     -0.496500   258A     -0.493819
     259A     -0.493803   260A     -0.489466   261A     -0.481518
     262A     -0.477463   263A     -0.477458   264A     -0.474066
     265A     -0.469526   266A     -0.466605   267A     -0.466600
     268A     -0.458845   269A     -0.446790   270A     -0.446728
     271A     -0.441070   272A     -0.440803   273A     -0.440783
     274A     -0.434730   275A     -0.433948   276A     -0.407417
     277A     -0.407395   278A     -0.386452   279A     -0.386403
     280A     -0.385773   281A     -0.385771   282A     -0.383798
     283A     -0.354367   284A     -0.354353   285A     -0.350706
     286A     -0.338132   287A     -0.335644   288A     -0.335555
     289A     -0.332755   290A     -0.332747   291A     -0.307126
     292A     -0.301985   293A     -0.301929   294A     -0.300884
     295A     -0.286214   296A     -0.256504   297A     -0.253547
     298A     -0.253487   299A     -0.204303   300A     -0.204217

  @DF-RHF Final Energy: -3650.33841672370454

   => Energetics <=

    Nuclear Repulsion Energy =          15611.4211649754324753
    One-Electron Energy =              -36072.1032972386892652
    Two-Electron Energy =               16810.3437155395513400
    Total Energy =                      -3650.3384167237054498
 Dipole X            :         -0.0007630            0.0001983           -0.0005646
 Dipole Y            :          0.0011179           -0.0013163           -0.0001984
 Dipole Z            :        421.6987456         -421.7051441           -0.0063985
 Magnitude           :                                                    0.0064264

    SAPT Results
  --------------------------------------------------------------------------------------------------------
    Electrostatics                 10.57544001 [mEh]       6.63618879 [kcal/mol]      27.76581392 [kJ/mol]
      Elst10,r                     10.57544001 [mEh]       6.63618879 [kcal/mol]      27.76581392 [kJ/mol]

    Exchange                        0.02516865 [mEh]       0.01579357 [kcal/mol]       0.06608028 [kJ/mol]
      Exch10                        0.02516865 [mEh]       0.01579357 [kcal/mol]       0.06608028 [kJ/mol]
      Exch10(S^2)                   0.02516904 [mEh]       0.01579381 [kcal/mol]       0.06608131 [kJ/mol]

    Induction                      -6.85670370 [mEh]      -4.30264653 [kcal/mol]     -18.00227309 [kJ/mol]
      Ind20,r                      -6.91179473 [mEh]      -4.33721667 [kcal/mol]     -18.14691457 [kJ/mol]
      Exch-Ind20,r                  0.00793672 [mEh]       0.00498037 [kcal/mol]       0.02083786 [kJ/mol]
      delta HF,r (2)                0.04715431 [mEh]       0.02958978 [kcal/mol]       0.12380363 [kJ/mol]

    Dispersion                     -1.67729500 [mEh]      -1.05251850 [kcal/mol]      -4.40373742 [kJ/mol]
      Disp20                       -1.68827685 [mEh]      -1.05940972 [kcal/mol]      -4.43257025 [kJ/mol]
      Exch-Disp20                   0.01098184 [mEh]       0.00689121 [kcal/mol]       0.02883283 [kJ/mol]
      Disp20 (SS)                  -0.84413842 [mEh]      -0.52970486 [kcal/mol]      -2.21628513 [kJ/mol]
      Disp20 (OS)                  -0.84413842 [mEh]      -0.52970486 [kcal/mol]      -2.21628513 [kJ/mol]
      Exch-Disp20 (SS)              0.00799748 [mEh]       0.00501850 [kcal/mol]       0.02099739 [kJ/mol]
      Exch-Disp20 (OS)              0.00298436 [mEh]       0.00187271 [kcal/mol]       0.00783543 [kJ/mol]

  Total HF                          3.74390496 [mEh]       2.34933583 [kcal/mol]       9.82962111 [kJ/mol]
  Total SAPT0                       2.06660995 [mEh]       1.29681732 [kcal/mol]       5.42588369 [kJ/mol]

  Special recipe for scaled SAPT0 (see Manual):
    Electrostatics sSAPT0          10.57544001 [mEh]       6.63618879 [kcal/mol]      27.76581392 [kJ/mol]
    Exchange sSAPT0                 0.02516865 [mEh]       0.01579357 [kcal/mol]       0.06608028 [kJ/mol]
    Induction sSAPT0               -6.85670407 [mEh]      -4.30264677 [kcal/mol]     -18.00227407 [kJ/mol]
    Dispersion sSAPT0              -1.67729552 [mEh]      -1.05251883 [kcal/mol]      -4.40373878 [kJ/mol]
  Total sSAPT0                      2.06660906 [mEh]       1.29681677 [kcal/mol]       5.42588135 [kJ/mol]
  --------------------------------------------------------------------------------------------------------

*** Psi4 exiting successfully. Buy a developer a beer!
