                               Psi4 1.9 release

  ==> Input File <==

--------------------------------------------------------------------------
memory 47 GB # how much memory is available ! Depends on the nodes/cores !

molecule dimer {
# monomer A
-1 1    # Charge and multiplicity
B -1.977592e-04  2.742729e-04 -2.199966
F  1.123153e-16  1.430594e-17 -0.787181
F  1.147860e+00  6.757812e-01 -2.671107
F  1.191806e-02 -1.332011e+00 -2.670905
F -1.159666e+00  6.560735e-01 -2.670826
--
# monomer B
0 1     # Charge and multiplicity
C   -3.66844126402057      7.80375217008252      0.00190004133558
C   -4.84759871934653      7.13124183134024     -0.00046653359696
C   -4.89495929917518      5.69633040353158     -0.00103944469517
C   -3.65374067877320      4.98073034095895      0.00662099703436
C   -2.40942512149445      7.11398103667468      0.00209438359570
C   -2.42547734410473      5.68112195090346     -0.00491050527438
C   -1.19474401643570      7.78614419430947      0.00356656413763
C   0.03795902893699      7.09942164575698      0.00139585983271
C   0.03033258741920      5.66948955970466     -0.00408752508301
C   -1.20098450790502      4.96927034791531      0.00488220885047
C   1.27795782581485      7.77285944319479      0.00277170839332
C   2.48535808472416      7.08769688523756      0.00049722048857
C   2.48612868491717      5.65477081024076     -0.00644052849921
C   1.25408291964399      4.95607811366431      0.00518741308898
C   3.75171459140595      7.76391215098033      0.00062407186893
C   4.92356605618520      7.07878077698995     -0.00143240883900
C   4.95560727132542      5.64344746336949     -0.00159282164606
C   3.70680153420475      4.94121020833308      0.00349873852374
H   -3.65852113775815      8.89082741913536      0.00358502958574
H   -1.18921332975660      8.87412108735996      0.00753844057883
H   1.28429423888630      8.86083343548850      0.00693053253426
H   3.75354208679975      8.85103527897216      0.00214659618464
H   5.86995870320703      7.61379483465560     -0.00235777588134
H   -5.78823170750226      7.67630221293400     -0.00202638095293
C   -6.09197395869619      4.99326001364347     -0.00291168518608
C   -6.12866148031747      3.58258016879823     -0.00171050815740
C   -3.66457974004527      3.56418217974434     -0.00463560277484
C   -4.89429820469869      2.86108077590057      0.00453338221034
C   -2.43733499489796      2.84761165708481      0.00719617576166
C   -1.20922785759670      3.54788693497833     -0.00648285103018
C   1.24714157216223      3.53468075142962     -0.00729145743546
C   0.01517603956900      2.83311183930540      0.00439272578912
C   2.46764517244071      2.82128997725533      0.00449278391269
C   3.70254947457969      3.52466015442405     -0.00899517692985
C   6.14498038638375      4.92757236613191     -0.00282626685777
C   6.16658835886151      3.51658447594213     -0.00065971342101
C   4.92460995845939      2.80840792535402      0.00587903281610
H   7.08990550964105      5.46688776622306     -0.00658814770723
H   -7.03104175110130      5.54268795285765     -0.00714490013730
C   -7.33969804112295      2.85841153457957     -0.00333767559888
C   -7.36488195805880      1.47032337158330     -0.00157213747140
C   -4.90350460894690      1.44442681216000     -0.00628840166334
C   -6.13225715261081      0.73993935705394      0.00600164231964
C   -3.67687480051673      0.72669714267312      0.00433931473643
C   -2.44565658606518      1.42964113326212     -0.00597039546461
C   -1.22360068130162      0.71532450163492      0.00545886906656
C   0.00763786931376      1.41738314923765      0.00392452278437
C   1.23121980774686      0.70211669058719     -0.01490206287210
C   2.46082110053113      1.40329203612573      0.00460244601878
C   3.68443025419614      0.68719842821222      0.00377365974158
C   4.91870890153864      1.39173456118907     -0.00862816189375
C   7.36980207796101      2.77948220318441     -0.00242013321349
C   7.38016266612146      1.39121750785509     -0.00087345036788
C   6.13979953912259      0.67411862320065      0.00545489144369
H   -8.27919079934664      3.40711804112415     -0.00763522772059
H   8.31511347147953      3.31811809662368     -0.00663070901292
C   -8.59175593758115      0.72483255304480     -0.00123170985383
C   -8.59902460370342     -0.63263980622873      0.00089141472904
C   -6.13981313911873     -0.67413663715361     -0.00609792660607
C   -7.38018411213749     -1.39126618958160      0.00131813493501
C   -4.91868448025621     -1.39175501803000      0.00624257154343
C   -3.68443829568458     -0.68723731573599     -0.00478966852105
C   -2.46081704024768     -1.40334517882457      0.00575341766833
C   -1.23116201232071     -0.70217386488055     -0.00636696112346
C   -0.00756962538737     -1.41741884941102      0.00108956317991
C   1.22364771588843     -0.71527537726392      0.01109518512883
C   2.44567064933149     -1.42964328900682     -0.00065482763106
C   3.67686670284649     -0.72670743155550     -0.00479541202602
C   6.13224884641929     -0.73997883984993     -0.00632338623858
C   4.90351914550401     -1.44445752054090      0.00751768830159
C   8.59901484869081      0.63260386666793     -0.00101133422380
C   8.59174548810050     -0.72485086719319      0.00072504603735
C   7.36486276438985     -1.47033266560598      0.00049486934466
H   -9.52830597181814      1.27684744919284     -0.00270163681798
H   9.54141097460619      1.17457248844457     -0.00206336648518
C   -7.36983790976868     -2.77954514593389      0.00312634335708
C   -4.92459910905015     -2.80843725734101     -0.00460528907921
C   -6.16662249566744     -3.51665219282533      0.00169655107992
C   -3.70251035970491     -3.52468154912026      0.00571878010666
C   -2.46764698511392     -2.82132596280400     -0.00632585824990
C   -0.01513347410770     -2.83314164539971     -0.00604426974092
C   -1.24712184122656     -3.53473217556300      0.00551968366725
C   1.20924506964357     -3.54791467864352      0.00805871345849
C   2.43733602215464     -2.84764173817541     -0.00608104485234
C   4.89430234377080     -2.86112296828604     -0.00526030478103
C   3.66461525504104     -3.56421984553201      0.00761911515957
C   6.12863901474565     -3.58258405771778      0.00096495711699
C   7.33967266469532     -2.85841330737039      0.00248018319869
H   -9.54144911125902     -1.17456346666430      0.00226083090216
H   9.52826186807155     -1.27691907390448      0.00197485379837
H   -8.31516504384864     -3.31814985321231      0.00729857188773
H   8.27915514249207     -3.40714078989363      0.00681973918158
C   -6.14499418870218     -4.92764727278338      0.00302254913999
C   -3.70678334799751     -4.94126171411716     -0.00679841894792
C   -4.95559005800169     -5.64349397349412      0.00116871569699
C   -2.48612132622665     -5.65478557440947      0.00614125209662
C   -1.25405833548005     -4.95612205000132     -0.00503435388927
C   1.20101257386816     -4.96928038819302     -0.00385322963129
C   -0.03033667441341     -5.66952030313900      0.00398997003238
C   3.65375010132847     -4.98074377541453     -0.00309522988330
C   2.42549269587528     -5.68117463552727      0.00628170066869
C   6.09196561781097     -4.99325796338655      0.00325918379042
C   4.89497644461045     -5.69634842095790      0.00202298796027
H   -7.08989238804069     -5.46699984223871      0.00742531082125
H   7.03105520920009     -5.54265853633254      0.00683896355417
C   -4.92354532219813     -7.07882109967734      0.00061394679214
C   -2.48534208823777     -7.08772807792913     -0.00189594564379
C   -3.75168589177895     -7.76394715763627     -0.00170126671874
C   -0.03794895698805     -7.09946487446944     -0.00168022049625
C   -1.27795610040136     -7.77290438466689     -0.00366491325785
C   2.40944432072629     -7.11402201200282     -0.00081701968533
C   1.19474993715296     -7.78618536556242     -0.00296931056689
C   4.84762105249800     -7.13126211057943      0.00168979497423
C   3.66847160587561     -7.80378799294376     -0.00065863938960
H   -5.86994035041618     -7.61383059804164      0.00215798365757
H   5.78824962538815     -7.67633218931421      0.00281691445618
H   -3.75352693944918     -8.85107156923607     -0.00353718114765
H   -1.28430440589466     -8.86087539249706     -0.00809229711623
H   1.18922157469537     -8.87416062058945     -0.00706194725726
H   3.65854661482387     -8.89086063405326     -0.00231318081200

    units angstrom      # Angstroms are the default
    no_reorient         # Geometry fixed, default
    symmetry c1         # C1 symmetry, default
}

set {
    scf_type DF         # Density fitting, faster than exact integrals
    freeze_core True    # Freeze core electrons
    basis jun-cc-pVDZ   # Jun-cc-pVDZ basis set, recommended for sSAPT0 in https://doi.org/10.1063/1.4867135
}

energy('ssapt0')        # Compute sSAPT0 energy, includes also SAPT0
--------------------------------------------------------------------------

  //              Dimer HF             //
    Molecular point group: c1
  Charge       = -1
  Multiplicity = 1
  Basis Set: JUN-CC-PVDZ
    Blend: JUN-CC-PVDZ
  Basis Set: (JUN-CC-PVDZ AUX)
    Blend: JUN-CC-PVDZ-JKFIT
  @DF-RHF Final Energy: -4072.37702149224970
    Total Energy =                      -4072.3770214922515152
 Dipole X            :         -0.0007938           -0.0000548           -0.0008485
 Dipole Y            :         -0.0003749           -0.0002464           -0.0006212
 Dipole Z            :        -11.3315501           13.0921048            1.7605548
 Magnitude           :                                                    1.7605551
  //            Monomer A HF           //
    Molecular point group: c1
  Multiplicity = 1
  Basis Set: JUN-CC-PVDZ
    Blend: JUN-CC-PVDZ
  Basis Set: (JUN-CC-PVDZ AUX)
    Blend: JUN-CC-PVDZ-JKFIT
  @DF-RHF Final Energy:  -422.77971667286886
    Total Energy =                       -422.7797166728688580
  //            Monomer B HF           //
    Molecular point group: c1

    Geometry (in Angstrom), charge = 0, multiplicity = 1:

       Center              X                  Y                   Z               Mass
    ------------   -----------------  -----------------  -----------------  -----------------
      Gh(B)          -0.000201921932     0.000288800891    -2.048442989724    11.009305360000
      Gh(F)          -0.000004162732     0.000014527991    -0.635657989724    18.998403162730
      Gh(F)           1.147855837268     0.675795727991    -2.519583989724    18.998403162730
      Gh(F)           0.011913897268    -1.331996472009    -2.519381989724    18.998403162730
      Gh(F)          -1.159670162732     0.656088027991    -2.519302989724    18.998403162730
         C           -3.668445426752     7.803766698073     0.153423051612    12.000000000000
         C           -4.847602882078     7.131256359331     0.151056476679    12.000000000000
         C           -4.894963461907     5.696344931522     0.150483565581    12.000000000000
         C           -3.653744841505     4.980744868950     0.158144007311    12.000000000000
         C           -2.409429284226     7.113995564665     0.153617393872    12.000000000000
         C           -2.425481506836     5.681136478894     0.146612505002    12.000000000000
         C           -1.194748179167     7.786158722300     0.155089574414    12.000000000000
         C            0.037954866205     7.099436173748     0.152918870109    12.000000000000
         C            0.030328424687     5.669504087695     0.147435485193    12.000000000000
         C           -1.200988670637     4.969284875906     0.156405219127    12.000000000000
         C            1.277953663083     7.772873971185     0.154294718670    12.000000000000
         C            2.485353921992     7.087711413228     0.152020230765    12.000000000000
         C            2.486124522185     5.654785338231     0.145082481777    12.000000000000
         C            1.254078756912     4.956092641655     0.156710423365    12.000000000000
         C            3.751710428674     7.763926678971     0.152147082145    12.000000000000
         C            4.923561893453     7.078795304981     0.150090601437    12.000000000000
         C            4.955603108594     5.643461991360     0.149930188630    12.000000000000
         C            3.706797371473     4.941224736324     0.155021748800    12.000000000000
         H           -3.658525300490     8.890841947126     0.155108039862     1.007825032230
         H           -1.189217492488     8.874135615351     0.159061450855     1.007825032230
         H            1.284290076155     8.860847963479     0.158453542811     1.007825032230
         H            3.753537924068     8.851049806963     0.153669606461     1.007825032230
         H            5.869954540475     7.613809362646     0.149165234395     1.007825032230
         H           -5.788235870234     7.676316740925     0.149496629323     1.007825032230
         C           -6.091978121428     4.993274541634     0.148611325090    12.000000000000
         C           -6.128665643049     3.582594696789     0.149812502119    12.000000000000
         C           -3.664583902777     3.564196707735     0.146887407502    12.000000000000
         C           -4.894302367430     2.861095303891     0.156056392487    12.000000000000
         C           -2.437339157630     2.847626185075     0.158719186038    12.000000000000
         C           -1.209232020328     3.547901462969     0.145040159246    12.000000000000
         C            1.247137409430     3.534695279420     0.144231552841    12.000000000000
         C            0.015171876837     2.833126367296     0.155915736065    12.000000000000
         C            2.467641009709     2.821304505246     0.156015794189    12.000000000000
         C            3.702545311848     3.524674682415     0.142527833347    12.000000000000
         C            6.144976223652     4.927586894122     0.148696743419    12.000000000000
         C            6.166584196130     3.516599003933     0.150863296855    12.000000000000
         C            4.924605795728     2.808422453345     0.157402043092    12.000000000000
         H            7.089901346909     5.466902294214     0.144934862569     1.007825032230
         H           -7.031045913833     5.542702480848     0.144378110139     1.007825032230
         C           -7.339702203855     2.858426062570     0.148185334677    12.000000000000
         C           -7.364886120791     1.470337899574     0.149950872805    12.000000000000
         C           -4.903508771679     1.444441340151     0.145234608613    12.000000000000
         C           -6.132261315343     0.739953885044     0.157524652596    12.000000000000
         C           -3.676878963248     0.726711670664     0.155862325013    12.000000000000
         C           -2.445660748797     1.429655661253     0.145552614812    12.000000000000
         C           -1.223604844033     0.715339029625     0.156981879343    12.000000000000
         C            0.007633706582     1.417397677228     0.155447533061    12.000000000000
         C            1.231215645015     0.702131218578     0.136620947404    12.000000000000
         C            2.460816937799     1.403306564116     0.156125456295    12.000000000000
         C            3.684426091464     0.687212956203     0.155296670018    12.000000000000
         C            4.918704738807     1.391749089180     0.142894848383    12.000000000000
         C            7.369797915229     2.779496731175     0.149102877063    12.000000000000
         C            7.380158503390     1.391232035846     0.150649559908    12.000000000000
         C            6.139795376391     0.674133151191     0.156977901720    12.000000000000
         H           -8.279194962078     3.407132569115     0.143887782556     1.007825032230
         H            8.315109308748     3.318132624614     0.144892301263     1.007825032230
         C           -8.591760100313     0.724847081035     0.150291300423    12.000000000000
         C           -8.599028766435    -0.632625278238     0.152414425005    12.000000000000
         C           -6.139817301850    -0.674122109163     0.145425083670    12.000000000000
         C           -7.380188274869    -1.391251661591     0.152841145211    12.000000000000
         C           -4.918688642988    -1.391740490039     0.157765581820    12.000000000000
         C           -3.684442458416    -0.687222787745     0.146733341755    12.000000000000
         C           -2.460821202979    -1.403330650834     0.157276427945    12.000000000000
         C           -1.231166175052    -0.702159336890     0.145156049153    12.000000000000
         C           -0.007573788119    -1.417404321420     0.152612573456    12.000000000000
         C            1.223643553157    -0.715260849273     0.162618195405    12.000000000000
         C            2.445666486600    -1.429628761016     0.150868182645    12.000000000000
         C            3.676862540115    -0.726692903565     0.146727598250    12.000000000000
         C            6.132244683688    -0.739964311859     0.145199624038    12.000000000000
         C            4.903514982772    -1.444442992550     0.159040698578    12.000000000000
         C            8.599010685959     0.632618394658     0.150511676053    12.000000000000
         C            8.591741325369    -0.724836339203     0.152248056314    12.000000000000
         C            7.364858601658    -1.470318137615     0.152017879621    12.000000000000
         H           -9.528310134550     1.276861977183     0.148821373458     1.007825032230
         H            9.541406811874     1.174587016435     0.149459643791     1.007825032230
         C           -7.369842072500    -2.779530617943     0.154649353633    12.000000000000
         C           -4.924603271782    -2.808422729350     0.146917721197    12.000000000000
         C           -6.166626658399    -3.516637664835     0.153219561356    12.000000000000
         C           -3.702514522437    -3.524667021130     0.157241790383    12.000000000000
         C           -2.467651147846    -2.821311434813     0.145197152026    12.000000000000
         C           -0.015137636839    -2.833127117409     0.145478740535    12.000000000000
         C           -1.247126003958    -3.534717647572     0.157042693944    12.000000000000
         C            1.209240906912    -3.547900150653     0.159581723735    12.000000000000
         C            2.437331859423    -2.847627210185     0.145441965424    12.000000000000
         C            4.894298181039    -2.861108440295     0.146262705495    12.000000000000
         C            3.664611092309    -3.564205317541     0.159142125436    12.000000000000
         C            6.128634852014    -3.582569529727     0.152487967393    12.000000000000
         C            7.339668501964    -2.858398779380     0.154003193475    12.000000000000
         H           -9.541453273991    -1.174548938674     0.153783841179     1.007825032230
         H            9.528257705340    -1.276904545914     0.153497864075     1.007825032230
         H           -8.315169206580    -3.318135325222     0.158821582164     1.007825032230
         H            8.279150979760    -3.407126261903     0.158342749458     1.007825032230
         C           -6.144998351434    -4.927632744793     0.154545559416    12.000000000000
         C           -3.706787510729    -4.941247186127     0.144724591328    12.000000000000
         C           -4.955594220733    -5.643479445504     0.152691725973    12.000000000000
         C           -2.486125488958    -5.654771046419     0.157664262373    12.000000000000
         C           -1.254062498212    -4.956107522011     0.146488656387    12.000000000000
         C            1.201008411136    -4.969265860202     0.147669780645    12.000000000000
         C           -0.030340837145    -5.669505775148     0.155512980309    12.000000000000
         C            3.653745938597    -4.980729247424     0.148427780393    12.000000000000
         C            2.425488533144    -5.681160107537     0.157804710945    12.000000000000
         C            6.091961455079    -4.993243435396     0.154782194067    12.000000000000
         C            4.894972281879    -5.696333892967     0.153545998237    12.000000000000
         H           -7.089896550772    -5.466985314248     0.158948321098     1.007825032230
         H            7.031051046468    -5.542644008342     0.158361973831     1.007825032230
         C           -4.923549484930    -7.078806571687     0.152136957069    12.000000000000
         C           -2.485346250970    -7.087713549939     0.149627064633    12.000000000000
         C           -3.751690054511    -7.763932629646     0.149821743558    12.000000000000
         C           -0.037953119720    -7.099450346479     0.149842789780    12.000000000000
         C           -1.277960263133    -7.772889856676     0.147858097019    12.000000000000
         C            2.409440157995    -7.114007484012     0.150705990591    12.000000000000
         C            1.194745774421    -7.786170837572     0.148553699709    12.000000000000
         C            4.847616889766    -7.131247582589     0.153212805251    12.000000000000
         C            3.668467443144    -7.803773464953     0.150864370887    12.000000000000
         H           -5.869944513148    -7.613816070051     0.153680993934     1.007825032230
         H            5.788245462656    -7.676317661324     0.154339924733     1.007825032230
         H           -3.753531102181    -8.851057041246     0.147985829129     1.007825032230
         H           -1.284308568626    -8.860860864507     0.143430713160     1.007825032230
         H            1.189217411964    -8.874146092599     0.144461063019     1.007825032230
         H            3.658542452092    -8.890846106063     0.149209829464     1.007825032230

  Charge       = 0
  Multiplicity = 1
  Basis Set: JUN-CC-PVDZ
    Blend: JUN-CC-PVDZ
  Basis Set: (JUN-CC-PVDZ AUX)
    Blend: JUN-CC-PVDZ-JKFIT

    Orbital Energies [Eh]
    ---------------------

    Doubly Occupied:

       1A    -11.264033     2A    -11.263672     3A    -11.263672
       4A    -11.263254     5A    -11.263252     6A    -11.263213
       7A    -11.263067     8A    -11.263061     9A    -11.263057
      10A    -11.262824    11A    -11.262701    12A    -11.262696
      13A    -11.262208    14A    -11.262205    15A    -11.262178
      16A    -11.262177    17A    -11.262069    18A    -11.262066
      19A    -11.262023    20A    -11.261984    21A    -11.261982
      22A    -11.261874    23A    -11.261869    24A    -11.261728
      25A    -11.261716    26A    -11.261699    27A    -11.261692
      28A    -11.261651    29A    -11.261643    30A    -11.261544
      31A    -11.261523    32A    -11.261520    33A    -11.261503
      34A    -11.261492    35A    -11.261490    36A    -11.261470
      37A    -11.261311    38A    -11.261303    39A    -11.261298
      40A    -11.261292    41A    -11.261287    42A    -11.261283
      43A    -11.261259    44A    -11.261241    45A    -11.261237
      46A    -11.261213    47A    -11.261210    48A    -11.261203
      49A    -11.261007    50A    -11.260975    51A    -11.260971
      52A    -11.260894    53A    -11.260892    54A    -11.260834
      55A    -11.259885    56A    -11.259871    57A    -11.259869
      58A    -11.259839    59A    -11.259837    60A    -11.259821
      61A    -11.259254    62A    -11.259229    63A    -11.259226
      64A    -11.259173    65A    -11.259170    66A    -11.259140
      67A    -11.258886    68A    -11.258868    69A    -11.258866
      70A    -11.258837    71A    -11.258835    72A    -11.258823
      73A    -11.254515    74A    -11.254512    75A    -11.254509
      76A    -11.254509    77A    -11.254507    78A    -11.254506
      79A    -11.253631    80A    -11.253630    81A    -11.253628
      82A    -11.253626    83A    -11.253623    84A    -11.253622
      85A    -11.253546    86A    -11.253545    87A    -11.253543
      88A    -11.253542    89A    -11.253539    90A    -11.253537
      91A    -11.253042    92A    -11.253040    93A    -11.253037
      94A    -11.253037    95A    -11.253035    96A    -11.253034
      97A     -1.253803    98A     -1.238926    99A     -1.238924
     100A     -1.220416   101A     -1.220411   102A     -1.215278
     103A     -1.201007   104A     -1.195567   105A     -1.188037
     106A     -1.188034   107A     -1.173732   108A     -1.173729
     109A     -1.155552   110A     -1.155548   111A     -1.152557
     112A     -1.144693   113A     -1.144690   114A     -1.128511
     115A     -1.114641   116A     -1.113124   117A     -1.112365
     118A     -1.112350   119A     -1.111594   120A     -1.088367
     121A     -1.088352   122A     -1.076928   123A     -1.076926
     124A     -1.067546   125A     -1.067517   126A     -1.064844
     127A     -1.046749   128A     -1.046741   129A     -1.040425
     130A     -1.038705   131A     -1.038703   132A     -1.025155
     133A     -1.021238   134A     -1.021188   135A     -1.007131
     136A     -1.006763   137A     -1.003747   138A     -1.000411
     139A     -1.000363   140A     -0.991048   141A     -0.970906
     142A     -0.970858   143A     -0.955841   144A     -0.955785
     145A     -0.905524   146A     -0.905490   147A     -0.905484
     148A     -0.905448   149A     -0.904187   150A     -0.892261
     151A     -0.892202   152A     -0.890275   153A     -0.890218
     154A     -0.889394   155A     -0.872173   156A     -0.869037
     157A     -0.851497   158A     -0.847773   159A     -0.847751
     160A     -0.845513   161A     -0.842957   162A     -0.834516
     163A     -0.834503   164A     -0.828074   165A     -0.828071
     166A     -0.784494   167A     -0.784483   168A     -0.783579
     169A     -0.783552   170A     -0.782215   171A     -0.782194
     172A     -0.781939   173A     -0.766947   174A     -0.760690
     175A     -0.750487   176A     -0.733447   177A     -0.727012
     178A     -0.726999   179A     -0.725022   180A     -0.724495
     181A     -0.724477   182A     -0.718382   183A     -0.713660
     184A     -0.713654   185A     -0.699522   186A     -0.699510
     187A     -0.685999   188A     -0.685920   189A     -0.685916
     190A     -0.682132   191A     -0.682122   192A     -0.678694
     193A     -0.653566   194A     -0.650797   195A     -0.650767
     196A     -0.649714   197A     -0.649698   198A     -0.649525
     199A     -0.640797   200A     -0.640770   201A     -0.640049
     202A     -0.639131   203A     -0.635940   204A     -0.635913
     205A     -0.629088   206A     -0.617755   207A     -0.615268
     208A     -0.615248   209A     -0.608747   210A     -0.608741
     211A     -0.599102   212A     -0.599067   213A     -0.598668
     214A     -0.598540   215A     -0.598518   216A     -0.597938
     217A     -0.595027   218A     -0.595015   219A     -0.594665
     220A     -0.594136   221A     -0.591873   222A     -0.591870
     223A     -0.587287   224A     -0.577770   225A     -0.577760
     226A     -0.575627   227A     -0.575623   228A     -0.573338
     229A     -0.569599   230A     -0.568003   231A     -0.567979
     232A     -0.566679   233A     -0.566668   234A     -0.560884
     235A     -0.558639   236A     -0.558620   237A     -0.558397
     238A     -0.554310   239A     -0.550514   240A     -0.547448
     241A     -0.544226   242A     -0.534997   243A     -0.534961
     244A     -0.533470   245A     -0.533449   246A     -0.528026
     247A     -0.528011   248A     -0.527696   249A     -0.517052
     250A     -0.517018   251A     -0.515318   252A     -0.515312
     253A     -0.509598   254A     -0.509582   255A     -0.497979
     256A     -0.496386   257A     -0.496359   258A     -0.493741
     259A     -0.493730   260A     -0.489426   261A     -0.481410
     262A     -0.477387   263A     -0.477384   264A     -0.473946
     265A     -0.469376   266A     -0.466455   267A     -0.466450
     268A     -0.458741   269A     -0.446563   270A     -0.446503
     271A     -0.440985   272A     -0.440738   273A     -0.440711
     274A     -0.434655   275A     -0.433879   276A     -0.407326
     277A     -0.407303   278A     -0.386339   279A     -0.386290
     280A     -0.385706   281A     -0.385704   282A     -0.383692
     283A     -0.354287   284A     -0.354270   285A     -0.350601
     286A     -0.338011   287A     -0.335493   288A     -0.335422
     289A     -0.332684   290A     -0.332677   291A     -0.306982
     292A     -0.301857   293A     -0.301796   294A     -0.300818
     295A     -0.286124   296A     -0.256456   297A     -0.253393
     298A     -0.253340   299A     -0.204213   300A     -0.204124

  @DF-RHF Final Energy: -3650.34171224312558

   => Energetics <=

    Nuclear Repulsion Energy =          15611.4211649754324753
    One-Electron Energy =              -36072.1828405812993878
    Two-Electron Energy =               16810.4199633627395087
    Total Energy =                      -3650.3417122431274038
 Dipole X            :          0.0004947            0.0002304            0.0007251
 Dipole Y            :          0.0014076           -0.0013052            0.0001024
 Dipole Z            :       -171.8095962          171.8055866           -0.0040097
 Magnitude           :                                                    0.0040760

    SAPT Results
  --------------------------------------------------------------------------------------------------------
    Electrostatics               -599.03320703 [mEh]    -375.89901252 [kcal/mol]   -1572.76146837 [kJ/mol]
      Elst10,r                   -599.03320703 [mEh]    -375.89901252 [kcal/mol]   -1572.76146837 [kJ/mol]

    Exchange                     1352.11569073 [mEh]     848.46540558 [kcal/mol]    3549.97925693 [kJ/mol]
      Exch10                     1352.11569073 [mEh]     848.46540558 [kcal/mol]    3549.97925693 [kJ/mol]
      Exch10(S^2)                1209.68152158 [mEh]     759.08661505 [kcal/mol]    3176.01839735 [kJ/mol]

    Induction                      -8.67505996 [mEh]      -5.44368231 [kcal/mol]     -22.77636678 [kJ/mol]
      Ind20,r                    -815.62543771 [mEh]    -511.81268922 [kcal/mol]   -2141.42429168 [kJ/mol]
      Exch-Ind20,r                504.09573986 [mEh]     316.32485245 [kcal/mol]    1323.50318267 [kJ/mol]
      delta HF,r (2)              302.85463789 [mEh]     190.04415445 [kcal/mol]     795.14474223 [kJ/mol]

    Dispersion                   -103.53961435 [mEh]     -64.97208892 [kcal/mol]    -271.84322002 [kJ/mol]
      Disp20                     -175.26315124 [mEh]    -109.97928781 [kcal/mol]    -460.15334018 [kJ/mol]
      Exch-Disp20                  71.72353689 [mEh]      45.00719889 [kcal/mol]     188.31012016 [kJ/mol]
      Disp20 (SS)                 -87.63157562 [mEh]     -54.98964390 [kcal/mol]    -230.07667009 [kJ/mol]
      Disp20 (OS)                 -87.63157562 [mEh]     -54.98964390 [kcal/mol]    -230.07667009 [kJ/mol]
      Exch-Disp20 (SS)             32.40455538 [mEh]      20.33416549 [kcal/mol]      85.07814843 [kJ/mol]
      Exch-Disp20 (OS)             39.31898151 [mEh]      24.67303340 [kcal/mol]     103.23197173 [kJ/mol]

  Total HF                        744.40742374 [mEh]     467.12271075 [kcal/mol]    1954.44142178 [kJ/mol]
  Total SAPT0                     640.86780939 [mEh]     402.15062183 [kcal/mol]    1682.59820175 [kJ/mol]

  Special recipe for scaled SAPT0 (see Manual):
    Electrostatics sSAPT0        -599.03320703 [mEh]    -375.89901252 [kcal/mol]   -1572.76146837 [kJ/mol]
    Exchange sSAPT0              1352.11569073 [mEh]     848.46540558 [kcal/mol]    3549.97925693 [kJ/mol]
    Induction sSAPT0              191.17860342 [mEh]     119.96638483 [kcal/mol]     501.93935413 [kJ/mol]
    Dispersion sSAPT0             -75.10411993 [mEh]     -47.12854678 [kcal/mol]    -197.18583971 [kJ/mol]
  Total sSAPT0                    869.15696719 [mEh]     545.40423111 [kcal/mol]    2281.97130297 [kJ/mol]
  --------------------------------------------------------------------------------------------------------

*** Psi4 exiting successfully. Buy a developer a beer!
