                               Psi4 1.9 release

  ==> Input File <==

--------------------------------------------------------------------------
memory 48 GB # how much memory is available ! Depends on the nodes/cores !

molecule dimer {
# monomer A
-1 1    # Charge and multiplicity
B -0.000046  0.000337 3.099994
F -1.153597  0.000048 3.915641
F  1.153661 -0.000581 3.915641
F -0.000019 -1.153637 2.284360
F -0.000019  1.153978 2.284360
--
# monomer B
0 1     # Charge and multiplicity
C   1.22531237526482      0.70753866091955      0.00613762728373
C   1.22532433589282     -0.70753852257020     -0.00619318228664
C   -0.00000567409046      1.41496628609039     -0.00672680580738
C   2.45644923379077      1.41832825917820      0.00902448468363
C   0.00001130712078     -1.41497612663474      0.00347275151708
C   -1.22530046906674      0.70754574598412      0.00838914760619
C   2.45643823516184     -1.41832293188077     -0.00843833914343
C   -0.00000085313587      2.83680140328112     -0.00913035594137
C   3.68182717731192      0.70931832800114     -0.00808954934571
C   2.45512052870677      2.83422403348893     -0.00819210630633
C   3.68182158506039     -0.70933346742900      0.00798293467272
C   -1.22531311884624     -0.70752714354401     -0.00512042085974
C   1.22670006104402      3.54346985599427      0.00816696660346
C   0.00000526469929     -2.83678176723568      0.00832091913869
C   -2.45643555300670      1.41831729028492      0.00842454345199
C   2.45512389762097     -2.83422965658853      0.00783102630520
C   -1.22671388474763      3.54346943575023      0.00827029982280
C   4.91451777504333      1.42717324448953     -0.00160886631602
C   3.69315067131765      3.54279566454522     -0.00155906667985
C   -2.45643712022637     -1.41831290883911     -0.00846337726810
C   1.22670532178455     -3.54347386990643     -0.00780316414624
C   -2.45512491866593      2.83421703463423     -0.00818572995999
C   4.91452486062398     -1.42718653794377      0.00136387641845
C   1.22142509354026      4.97013443726031      0.00150231067809
C   4.89300870916237      2.82518837202648     -0.00039219795739
C   -1.22669652864725     -3.54347062507680     -0.00753595973677
C   -3.68181849668397      0.70932533873199     -0.00807686886569
C   3.69314758099218     -3.54280096939050      0.00148176697923
C   -1.22143177215231      4.97012866986289      0.00168580605083
C   6.13477145276790      0.68054831910577     -0.00083909176631
C   3.65678936045204      4.97295361556775     -0.00065042889723
C   -2.45512642789169     -2.83421472106065      0.00758666850712
C   -3.68181869921921     -0.70932533146830      0.00810055625144
C   4.89301309775526     -2.82519973363176      0.00021895393805
C   -0.00000059327114      5.65044773803267      0.00045449734393
C   6.13477559217374     -0.68055448207492      0.00042622874941
C   2.47813196269732      5.65357712333155      0.00063835075260
C   1.22142288457925     -4.97012668293268     -0.00129718634452
C   -3.69316190412301      3.54279732619245     -0.00139355922051
C   -1.22142804110313     -4.97011793159564     -0.00140994817719
C   -4.91452132810043      1.42717581899491     -0.00153192130862
C   3.65678749952045     -4.97295485423912      0.00080007163680
C   -2.47813805026426      5.65357479452875      0.00092287576113
C   -3.69314125872231     -3.54278984697859      0.00136564082345
C   -4.91451200321153     -1.42718062802730      0.00139857359209
C   -0.00000552908399     -5.65043791501335      0.00005899322272
C   -4.89302000425900      2.82518897091939     -0.00040227981744
C   2.47812647313991     -5.65357317188818     -0.00029052915548
C   -3.65679823041642      4.97295655404175     -0.00047374852278
C   -4.89299899901461     -2.82519139505969      0.00006491824035
C   -2.47812801824129     -5.65356579800621     -0.00056571680280
C   -6.13477002348955      0.68054913825639     -0.00086464346868
C   -3.65678835334731     -4.97294365097028      0.00058578382008
C   -6.13476456307132     -0.68055354348201      0.00040575295444
H   5.83528897565761      3.36927626695423      0.00396712770529
H   7.07385965258860      1.22821762089947     -0.00037744837300
H   4.60066374401555      5.51238117445323     -0.00014522814529
H   5.83528386714679     -3.36930568472863     -0.00423551337640
H   -0.00001167146422      6.73853104613662     -0.00389474766392
H   7.07386165167227     -1.22822657074368     -0.00008250934481
H   2.47331421164041      6.74068466339473      0.00017162982210
H   4.60066897122302     -5.51237575717576      0.00039007446835
H   -2.47331820069565      6.74068209160650      0.00047297644710
H   -0.00000978838621     -6.73852780445195      0.00458867820736
H   -5.83530143450167      3.36927132229595      0.00410314985360
H   2.47330840367253     -6.74068500242887      0.00027980126949
H   -4.60067436136587      5.51237839860371      0.00002010017831
H   -5.83527902699321     -3.36928859177951     -0.00451481925734
H   -2.47329986759855     -6.74067870613986     -0.00016951527498
H   -7.07385728692578      1.22822084484047     -0.00046143985387
H   -4.60067330624313     -5.51236229778631      0.00021776644566
H   -7.07385645456741     -1.22822025997701     -0.00017736581114

    units angstrom      # Angstroms are the default
    no_reorient         # Geometry fixed, default
    symmetry c1         # C1 symmetry, default
}

set {
    scf_type DF         # Density fitting, faster than exact integrals
    freeze_core True    # Freeze core electrons
    basis jun-cc-pVDZ   # Jun-cc-pVDZ basis set, recommended for sSAPT0 in https://doi.org/10.1063/1.4867135
}

energy('ssapt0')        # Compute sSAPT0 energy, includes also SAPT0
--------------------------------------------------------------------------

  //              Dimer HF             //
    Molecular point group: c1
  Charge       = -1
  Multiplicity = 1
  Basis Set: JUN-CC-PVDZ
    Blend: JUN-CC-PVDZ
  Basis Set: (JUN-CC-PVDZ AUX)
    Blend: JUN-CC-PVDZ-JKFIT
  @DF-RHF Final Energy: -2478.62820558709927
    Total Energy =                      -2478.6282055870997283
 Dipole X            :         -0.0001869           -0.0000160           -0.0002029
 Dipole Y            :         -0.0004665           -0.0001716           -0.0006381
 Dipole Z            :         15.4537829          -19.0038594           -3.5500765
 Magnitude           :                                                    3.5500766
  //            Monomer A HF           //
    Molecular point group: c1
  Multiplicity = 1
  Basis Set: JUN-CC-PVDZ
    Blend: JUN-CC-PVDZ
  Basis Set: (JUN-CC-PVDZ AUX)
    Blend: JUN-CC-PVDZ-JKFIT
  @DF-RHF Final Energy:  -422.77473627291562
    Total Energy =                       -422.7747362729156180
  //            Monomer B HF           //
    Molecular point group: c1

    Geometry (in Angstrom), charge = 0, multiplicity = 1:

       Center              X                  Y                   Z               Mass
    ------------   -----------------  -----------------  -----------------  -----------------
      Gh(B)          -0.000046449334     0.000336519434     2.741885295756    11.009305360000
      Gh(F)          -1.153597449334     0.000047519434     3.557532295756    18.998403162730
      Gh(F)           1.153660550666    -0.000581480566     3.557532295756    18.998403162730
      Gh(F)          -0.000019449334    -1.153637480566     1.926251295756    18.998403162730
      Gh(F)          -0.000019449334     1.153977519434     1.926251295756    18.998403162730
         C            1.225311925931     0.707538180353    -0.351971076960    12.000000000000
         C            1.225323886559    -0.707539003137    -0.364301886531    12.000000000000
         C           -0.000006123424     1.414965805524    -0.364835510051    12.000000000000
         C            2.456448784457     1.418327778612    -0.349084219560    12.000000000000
         C            0.000010857787    -1.414976607201    -0.354635952727    12.000000000000
         C           -1.225300918401     0.707545265418    -0.349719556638    12.000000000000
         C            2.456437785828    -1.418323412447    -0.366547043387    12.000000000000
         C           -0.000001302470     2.836800922715    -0.367239060185    12.000000000000
         C            3.681826727978     0.709317847435    -0.366198253590    12.000000000000
         C            2.455120079373     2.834223552923    -0.366300810550    12.000000000000
         C            3.681821135726    -0.709333947995    -0.350125769571    12.000000000000
         C           -1.225313568180    -0.707527624110    -0.363229125104    12.000000000000
         C            1.226699611710     3.543469375428    -0.349941737641    12.000000000000
         C            0.000004815365    -2.836782247802    -0.349787785105    12.000000000000
         C           -2.456436002341     1.418316809719    -0.349684160792    12.000000000000
         C            2.455123448287    -2.834230137155    -0.350277677939    12.000000000000
         C           -1.226714334082     3.543468955184    -0.349838404421    12.000000000000
         C            4.914517325709     1.427172763923    -0.359717570560    12.000000000000
         C            3.693150221984     3.542795183979    -0.359667770924    12.000000000000
         C           -2.456437569560    -1.418313389406    -0.366572081512    12.000000000000
         C            1.226704872451    -3.543474350473    -0.365911868390    12.000000000000
         C           -2.455125368000     2.834216554068    -0.366294434204    12.000000000000
         C            4.914524411290    -1.427187018510    -0.356744827826    12.000000000000
         C            1.221424644206     4.970133956694    -0.356606393566    12.000000000000
         C            4.893008259828     2.825187891460    -0.358500902201    12.000000000000
         C           -1.226696977981    -3.543471105643    -0.365644663981    12.000000000000
         C           -3.681818946018     0.709324858166    -0.366185573110    12.000000000000
         C            3.693147131658    -3.542801449957    -0.356626937265    12.000000000000
         C           -1.221432221486     4.970128189296    -0.356422898193    12.000000000000
         C            6.134771003434     0.680547838539    -0.358947796010    12.000000000000
         C            3.656788911118     4.972953135001    -0.358759133141    12.000000000000
         C           -2.455126877226    -2.834215201627    -0.350522035737    12.000000000000
         C           -3.681819148553    -0.709325812035    -0.350008147993    12.000000000000
         C            4.893012648421    -2.825200214198    -0.357889750306    12.000000000000
         C           -0.000001042605     5.650447257466    -0.357654206900    12.000000000000
         C            6.134775142840    -0.680554962641    -0.357682475495    12.000000000000
         C            2.478131513363     5.653576642765    -0.357470353491    12.000000000000
         C            1.221422435245    -4.970127163499    -0.359405890589    12.000000000000
         C           -3.693162353457     3.542796845626    -0.359502263465    12.000000000000
         C           -1.221428490437    -4.970118412162    -0.359518652421    12.000000000000
         C           -4.914521777434     1.427175338429    -0.359640625553    12.000000000000
         C            3.656787050187    -4.972955334806    -0.357308632607    12.000000000000
         C           -2.478138499598     5.653574313962    -0.357185828483    12.000000000000
         C           -3.693141708056    -3.542790327545    -0.356743063421    12.000000000000
         C           -4.914512452545    -1.427181108594    -0.356710130652    12.000000000000
         C           -0.000005978418    -5.650438395580    -0.358049711021    12.000000000000
         C           -4.893020453593     2.825188490353    -0.358510984061    12.000000000000
         C            2.478126023806    -5.653573652455    -0.358399233399    12.000000000000
         C           -3.656798679750     4.972956073475    -0.358582452767    12.000000000000
         C           -4.892999448349    -2.825191875626    -0.358043786004    12.000000000000
         C           -2.478128467575    -5.653566278573    -0.358674421047    12.000000000000
         C           -6.134770472823     0.680548657690    -0.358973347713    12.000000000000
         C           -3.656788802681    -4.972944131537    -0.357522920424    12.000000000000
         C           -6.134765012405    -0.680554024048    -0.357702951290    12.000000000000
         H            5.835288526324     3.369275786388    -0.354141576539     1.007825032230
         H            7.073859203255     1.228217140333    -0.358486152617     1.007825032230
         H            4.600663294682     5.512380693887    -0.358253932389     1.007825032230
         H            5.835283417813    -3.369306165295    -0.362344217620     1.007825032230
         H           -0.000012120798     6.738530565570    -0.362003451908     1.007825032230
         H            7.073861202338    -1.228227051310    -0.358191213589     1.007825032230
         H            2.473313762307     6.740684182828    -0.357937074422     1.007825032230
         H            4.600668521889    -5.512376237742    -0.357718629776     1.007825032230
         H           -2.473318650030     6.740681611040    -0.357635727797     1.007825032230
         H           -0.000010237720    -6.738528285018    -0.353520026037     1.007825032230
         H           -5.835301883836     3.369270841730    -0.354005554390     1.007825032230
         H            2.473307954339    -6.740685482995    -0.357828902975     1.007825032230
         H           -4.600674810700     5.512377918037    -0.358088604066     1.007825032230
         H           -5.835279476327    -3.369289072346    -0.362623523501     1.007825032230
         H           -2.473300316932    -6.740679186706    -0.358278219519     1.007825032230
         H           -7.073857736260     1.228220364274    -0.358570144098     1.007825032230
         H           -4.600673755577    -5.512362778353    -0.357890937798     1.007825032230
         H           -7.073856903901    -1.228220740543    -0.358286070055     1.007825032230

  Charge       = 0
  Multiplicity = 1
  Basis Set: JUN-CC-PVDZ
    Blend: JUN-CC-PVDZ
  Basis Set: (JUN-CC-PVDZ AUX)
    Blend: JUN-CC-PVDZ-JKFIT

    Orbital Energies [Eh]
    ---------------------

    Doubly Occupied:

       1A    -11.260722     2A    -11.260341     3A    -11.260181
       4A    -11.259523     5A    -11.259422     6A    -11.259265
       7A    -11.259020     8A    -11.258971     9A    -11.258923
      10A    -11.258667    11A    -11.258612    12A    -11.258511
      13A    -11.258461    14A    -11.258458    15A    -11.258453
      16A    -11.258418    17A    -11.258413    18A    -11.258394
      19A    -11.258394    20A    -11.258390    21A    -11.258377
      22A    -11.258343    23A    -11.258303    24A    -11.258106
      25A    -11.257290    26A    -11.257233    27A    -11.257228
      28A    -11.257102    29A    -11.257094    30A    -11.257015
      31A    -11.256381    32A    -11.256313    33A    -11.256311
      34A    -11.256206    35A    -11.256203    36A    -11.256158
      37A    -11.252282    38A    -11.252281    39A    -11.252278
      40A    -11.252276    41A    -11.252275    42A    -11.252273
      43A    -11.251374    44A    -11.251373    45A    -11.251367
      46A    -11.251365    47A    -11.251349    48A    -11.251347
      49A    -11.250844    50A    -11.250842    51A    -11.250839
      52A    -11.250837    53A    -11.250836    54A    -11.250834
      55A     -1.243986    56A     -1.219774    57A     -1.219756
      58A     -1.189511    59A     -1.189501    60A     -1.180880
      61A     -1.157543    62A     -1.148948    63A     -1.135430
      64A     -1.135421    65A     -1.113176    66A     -1.113167
      67A     -1.082378    68A     -1.082377    69A     -1.078547
      70A     -1.065966    71A     -1.065963    72A     -1.039371
      73A     -1.024208    74A     -1.021695    75A     -1.021660
      76A     -1.017716    77A     -1.012783    78A     -0.986975
      79A     -0.986925    80A     -0.961855    81A     -0.961808
      82A     -0.894269    83A     -0.894243    84A     -0.887868
      85A     -0.886116    86A     -0.886054    87A     -0.881350
      88A     -0.881306    89A     -0.861873    90A     -0.837409
      91A     -0.818179    92A     -0.816547    93A     -0.812093
      94A     -0.812081    95A     -0.794667    96A     -0.794659
      97A     -0.746573    98A     -0.744806    99A     -0.733353
     100A     -0.733346   101A     -0.732160   102A     -0.732136
     103A     -0.716451   104A     -0.698946   105A     -0.698942
     106A     -0.693545   107A     -0.693534   108A     -0.661204
     109A     -0.653034   110A     -0.651088   111A     -0.650235
     112A     -0.650231   113A     -0.639341   114A     -0.639338
     115A     -0.629670   116A     -0.627480   117A     -0.627455
     118A     -0.606469   119A     -0.605811   120A     -0.601614
     121A     -0.599702   122A     -0.599679   123A     -0.593603
     124A     -0.591140   125A     -0.591137   126A     -0.585273
     127A     -0.576392   128A     -0.576359   129A     -0.567311
     130A     -0.567298   131A     -0.565901   132A     -0.565877
     133A     -0.558662   134A     -0.554816   135A     -0.554811
     136A     -0.538574   137A     -0.538570   138A     -0.538170
     139A     -0.538162   140A     -0.529690   141A     -0.528190
     142A     -0.522840   143A     -0.522835   144A     -0.500483
     145A     -0.495585   146A     -0.493212   147A     -0.487820
     148A     -0.485034   149A     -0.481718   150A     -0.481711
     151A     -0.470376   152A     -0.470312   153A     -0.450954
     154A     -0.450871   155A     -0.439064   156A     -0.439051
     157A     -0.404721   158A     -0.404679   159A     -0.403349
     160A     -0.375421   161A     -0.375413   162A     -0.349122
     163A     -0.337534   164A     -0.336533   165A     -0.336473
     166A     -0.311055   167A     -0.298110   168A     -0.284289
     169A     -0.284236   170A     -0.224881   171A     -0.224819

  @DF-RHF Final Energy: -2055.89416848331166

   => Energetics <=

    Nuclear Repulsion Energy =           6452.5568002797781446
    One-Electron Energy =              -15636.4925179879828647
    Two-Electron Energy =                7128.0415492248939699
    Total Energy =                      -2055.8941684833116597
 Dipole X            :          0.0000540            0.0000112            0.0000652
 Dipole Y            :          0.0002060           -0.0000531            0.0001528
 Dipole Z            :        231.4433029         -231.4422049            0.0010980
 Magnitude           :                                                    0.0011105

    SAPT Results
  --------------------------------------------------------------------------------------------------------
    Electrostatics                -27.81284857 [mEh]     -17.45282597 [kcal/mol]     -73.02262387 [kJ/mol]
      Elst10,r                    -27.81284857 [mEh]     -17.45282597 [kcal/mol]     -73.02262387 [kJ/mol]

    Exchange                       97.09457236 [mEh]      60.92776401 [kcal/mol]     254.92176461 [kJ/mol]
      Exch10                       97.09457236 [mEh]      60.92776401 [kcal/mol]     254.92176461 [kJ/mol]
      Exch10(S^2)                  95.61681256 [mEh]      60.00045573 [kcal/mol]     251.04190678 [kJ/mol]

    Induction                     -28.58255466 [mEh]     -17.93582383 [kcal/mol]     -75.04348691 [kJ/mol]
      Ind20,r                     -65.08985651 [mEh]     -40.84450160 [kcal/mol]    -170.89339471 [kJ/mol]
      Exch-Ind20,r                 43.00605615 [mEh]      26.98670766 [kcal/mol]     112.91238487 [kJ/mol]
      delta HF,r (2)               -6.49875430 [mEh]      -4.07802989 [kcal/mol]     -17.06247707 [kJ/mol]

    Dispersion                    -24.32227487 [mEh]     -15.26245791 [kcal/mol]     -63.85812388 [kJ/mol]
      Disp20                      -32.91205488 [mEh]     -20.65262624 [kcal/mol]     -86.41058819 [kJ/mol]
      Exch-Disp20                   8.58978001 [mEh]       5.39016833 [kcal/mol]      22.55246431 [kJ/mol]
      Disp20 (SS)                 -16.45602744 [mEh]     -10.32631312 [kcal/mol]     -43.20529410 [kJ/mol]
      Disp20 (OS)                 -16.45602744 [mEh]     -10.32631312 [kcal/mol]     -43.20529410 [kJ/mol]
      Exch-Disp20 (SS)              4.59836184 [mEh]       2.88551562 [kcal/mol]      12.07299736 [kJ/mol]
      Exch-Disp20 (OS)              3.99141817 [mEh]       2.50465271 [kcal/mol]      10.47946695 [kJ/mol]

  Total HF                         40.69916913 [mEh]      25.53911420 [kcal/mol]     106.85565382 [kJ/mol]
  Total SAPT0                      16.37689425 [mEh]      10.27665630 [kcal/mol]      42.99752994 [kJ/mol]

  Special recipe for scaled SAPT0 (see Manual):
    Electrostatics sSAPT0         -27.81284857 [mEh]     -17.45282597 [kcal/mol]     -73.02262387 [kJ/mol]
    Exchange sSAPT0                97.09457236 [mEh]      60.92776401 [kcal/mol]     254.92176461 [kJ/mol]
    Induction sSAPT0              -26.55760047 [mEh]     -16.66514590 [kcal/mol]     -69.72697044 [kJ/mol]
    Dispersion sSAPT0             -23.91782228 [mEh]     -15.00866007 [kcal/mol]     -62.79623374 [kJ/mol]
  Total sSAPT0                     18.80630103 [mEh]      11.80113207 [kcal/mol]      49.37593656 [kJ/mol]
  --------------------------------------------------------------------------------------------------------

*** Psi4 exiting successfully. Buy a developer a beer!
