                               Psi4 1.9 release

  ==> Input File <==

--------------------------------------------------------------------------
memory 47 GB # how much memory is available ! Depends on the nodes/cores !

molecule dimer {
# monomer A
+1 1    # Charge and multiplicity
C  0.680067 1.417258 -7.615929
C -0.680504 1.419286 -7.615545
N -1.085635 1.420284 -6.297221
C  0.000108 1.423560 -5.515820
C -2.477365 1.469690 -5.829242
N  1.085222 1.420284 -6.297221
H  1.385146 1.409430 -8.433368
H -1.385302 1.419096 -8.433214
H -0.000009 1.425307 -4.434731
C  2.478117 1.403392 -5.832123
H  2.490592 1.430737 -4.741870
H  2.967028 0.489946 -6.179299
H  3.001428 2.278875 -6.223595
H -2.857359 2.491761 -5.909201
H -3.082679 0.799606 -6.442306
H -2.518128 1.142706 -4.789294
--
# monomer B
0 1     # Charge and multiplicity
C   -3.66844126402057      7.80375217008252      0.00190004133558
C   -4.84759871934653      7.13124183134024     -0.00046653359696
C   -4.89495929917518      5.69633040353158     -0.00103944469517
C   -3.65374067877320      4.98073034095895      0.00662099703436
C   -2.40942512149445      7.11398103667468      0.00209438359570
C   -2.42547734410473      5.68112195090346     -0.00491050527438
C   -1.19474401643570      7.78614419430947      0.00356656413763
C   0.03795902893699      7.09942164575698      0.00139585983271
C   0.03033258741920      5.66948955970466     -0.00408752508301
C   -1.20098450790502      4.96927034791531      0.00488220885047
C   1.27795782581485      7.77285944319479      0.00277170839332
C   2.48535808472416      7.08769688523756      0.00049722048857
C   2.48612868491717      5.65477081024076     -0.00644052849921
C   1.25408291964399      4.95607811366431      0.00518741308898
C   3.75171459140595      7.76391215098033      0.00062407186893
C   4.92356605618520      7.07878077698995     -0.00143240883900
C   4.95560727132542      5.64344746336949     -0.00159282164606
C   3.70680153420475      4.94121020833308      0.00349873852374
H   -3.65852113775815      8.89082741913536      0.00358502958574
H   -1.18921332975660      8.87412108735996      0.00753844057883
H   1.28429423888630      8.86083343548850      0.00693053253426
H   3.75354208679975      8.85103527897216      0.00214659618464
H   5.86995870320703      7.61379483465560     -0.00235777588134
H   -5.78823170750226      7.67630221293400     -0.00202638095293
C   -6.09197395869619      4.99326001364347     -0.00291168518608
C   -6.12866148031747      3.58258016879823     -0.00171050815740
C   -3.66457974004527      3.56418217974434     -0.00463560277484
C   -4.89429820469869      2.86108077590057      0.00453338221034
C   -2.43733499489796      2.84761165708481      0.00719617576166
C   -1.20922785759670      3.54788693497833     -0.00648285103018
C   1.24714157216223      3.53468075142962     -0.00729145743546
C   0.01517603956900      2.83311183930540      0.00439272578912
C   2.46764517244071      2.82128997725533      0.00449278391269
C   3.70254947457969      3.52466015442405     -0.00899517692985
C   6.14498038638375      4.92757236613191     -0.00282626685777
C   6.16658835886151      3.51658447594213     -0.00065971342101
C   4.92460995845939      2.80840792535402      0.00587903281610
H   7.08990550964105      5.46688776622306     -0.00658814770723
H   -7.03104175110130      5.54268795285765     -0.00714490013730
C   -7.33969804112295      2.85841153457957     -0.00333767559888
C   -7.36488195805880      1.47032337158330     -0.00157213747140
C   -4.90350460894690      1.44442681216000     -0.00628840166334
C   -6.13225715261081      0.73993935705394      0.00600164231964
C   -3.67687480051673      0.72669714267312      0.00433931473643
C   -2.44565658606518      1.42964113326212     -0.00597039546461
C   -1.22360068130162      0.71532450163492      0.00545886906656
C   0.00763786931376      1.41738314923765      0.00392452278437
C   1.23121980774686      0.70211669058719     -0.01490206287210
C   2.46082110053113      1.40329203612573      0.00460244601878
C   3.68443025419614      0.68719842821222      0.00377365974158
C   4.91870890153864      1.39173456118907     -0.00862816189375
C   7.36980207796101      2.77948220318441     -0.00242013321349
C   7.38016266612146      1.39121750785509     -0.00087345036788
C   6.13979953912259      0.67411862320065      0.00545489144369
H   -8.27919079934664      3.40711804112415     -0.00763522772059
H   8.31511347147953      3.31811809662368     -0.00663070901292
C   -8.59175593758115      0.72483255304480     -0.00123170985383
C   -8.59902460370342     -0.63263980622873      0.00089141472904
C   -6.13981313911873     -0.67413663715361     -0.00609792660607
C   -7.38018411213749     -1.39126618958160      0.00131813493501
C   -4.91868448025621     -1.39175501803000      0.00624257154343
C   -3.68443829568458     -0.68723731573599     -0.00478966852105
C   -2.46081704024768     -1.40334517882457      0.00575341766833
C   -1.23116201232071     -0.70217386488055     -0.00636696112346
C   -0.00756962538737     -1.41741884941102      0.00108956317991
C   1.22364771588843     -0.71527537726392      0.01109518512883
C   2.44567064933149     -1.42964328900682     -0.00065482763106
C   3.67686670284649     -0.72670743155550     -0.00479541202602
C   6.13224884641929     -0.73997883984993     -0.00632338623858
C   4.90351914550401     -1.44445752054090      0.00751768830159
C   8.59901484869081      0.63260386666793     -0.00101133422380
C   8.59174548810050     -0.72485086719319      0.00072504603735
C   7.36486276438985     -1.47033266560598      0.00049486934466
H   -9.52830597181814      1.27684744919284     -0.00270163681798
H   9.54141097460619      1.17457248844457     -0.00206336648518
C   -7.36983790976868     -2.77954514593389      0.00312634335708
C   -4.92459910905015     -2.80843725734101     -0.00460528907921
C   -6.16662249566744     -3.51665219282533      0.00169655107992
C   -3.70251035970491     -3.52468154912026      0.00571878010666
C   -2.46764698511392     -2.82132596280400     -0.00632585824990
C   -0.01513347410770     -2.83314164539971     -0.00604426974092
C   -1.24712184122656     -3.53473217556300      0.00551968366725
C   1.20924506964357     -3.54791467864352      0.00805871345849
C   2.43733602215464     -2.84764173817541     -0.00608104485234
C   4.89430234377080     -2.86112296828604     -0.00526030478103
C   3.66461525504104     -3.56421984553201      0.00761911515957
C   6.12863901474565     -3.58258405771778      0.00096495711699
C   7.33967266469532     -2.85841330737039      0.00248018319869
H   -9.54144911125902     -1.17456346666430      0.00226083090216
H   9.52826186807155     -1.27691907390448      0.00197485379837
H   -8.31516504384864     -3.31814985321231      0.00729857188773
H   8.27915514249207     -3.40714078989363      0.00681973918158
C   -6.14499418870218     -4.92764727278338      0.00302254913999
C   -3.70678334799751     -4.94126171411716     -0.00679841894792
C   -4.95559005800169     -5.64349397349412      0.00116871569699
C   -2.48612132622665     -5.65478557440947      0.00614125209662
C   -1.25405833548005     -4.95612205000132     -0.00503435388927
C   1.20101257386816     -4.96928038819302     -0.00385322963129
C   -0.03033667441341     -5.66952030313900      0.00398997003238
C   3.65375010132847     -4.98074377541453     -0.00309522988330
C   2.42549269587528     -5.68117463552727      0.00628170066869
C   6.09196561781097     -4.99325796338655      0.00325918379042
C   4.89497644461045     -5.69634842095790      0.00202298796027
H   -7.08989238804069     -5.46699984223871      0.00742531082125
H   7.03105520920009     -5.54265853633254      0.00683896355417
C   -4.92354532219813     -7.07882109967734      0.00061394679214
C   -2.48534208823777     -7.08772807792913     -0.00189594564379
C   -3.75168589177895     -7.76394715763627     -0.00170126671874
C   -0.03794895698805     -7.09946487446944     -0.00168022049625
C   -1.27795610040136     -7.77290438466689     -0.00366491325785
C   2.40944432072629     -7.11402201200282     -0.00081701968533
C   1.19474993715296     -7.78618536556242     -0.00296931056689
C   4.84762105249800     -7.13126211057943      0.00168979497423
C   3.66847160587561     -7.80378799294376     -0.00065863938960
H   -5.86994035041618     -7.61383059804164      0.00215798365757
H   5.78824962538815     -7.67633218931421      0.00281691445618
H   -3.75352693944918     -8.85107156923607     -0.00353718114765
H   -1.28430440589466     -8.86087539249706     -0.00809229711623
H   1.18922157469537     -8.87416062058945     -0.00706194725726
H   3.65854661482387     -8.89086063405326     -0.00231318081200

    units angstrom      # Angstroms are the default
    no_reorient         # Geometry fixed, default
    symmetry c1         # C1 symmetry, default
}

set {
    scf_type DF         # Density fitting, faster than exact integrals
    freeze_core True    # Freeze core electrons
    basis jun-cc-pVDZ   # Jun-cc-pVDZ basis set, recommended for sSAPT0 in https://doi.org/10.1063/1.4867135
}

energy('ssapt0')        # Compute sSAPT0 energy, includes also SAPT0
--------------------------------------------------------------------------

  //              Dimer HF             //
    Molecular point group: c1
  Charge       = 1
  Multiplicity = 1
  Basis Set: JUN-CC-PVDZ
    Blend: JUN-CC-PVDZ
  Basis Set: (JUN-CC-PVDZ AUX)
    Blend: JUN-CC-PVDZ-JKFIT
  @DF-RHF Final Energy: -3953.65025646689173
    Total Energy =                      -3953.6502564668917330
 Dipole X            :         -0.0027323            0.0004804           -0.0022519
 Dipole Y            :         -6.9589670            8.7122315            1.7532645
 Dipole Z            :         27.4795543          -36.9822915           -9.5027372
 Magnitude           :                                                    9.6631235
  //            Monomer A HF           //
    Molecular point group: c1
  Multiplicity = 1
  Basis Set: JUN-CC-PVDZ
    Blend: JUN-CC-PVDZ
  Basis Set: (JUN-CC-PVDZ AUX)
    Blend: JUN-CC-PVDZ-JKFIT
  @DF-RHF Final Energy:  -303.29736530289051
    Total Energy =                       -303.2973653028905119
  //            Monomer B HF           //
    Molecular point group: c1

    Geometry (in Angstrom), charge = 0, multiplicity = 1:

       Center              X                  Y                   Z               Mass
    ------------   -----------------  -----------------  -----------------  -----------------
      Gh(C)           0.680062820275     1.308604348936    -7.127984214047    12.000000000000
      Gh(C)          -0.680508179725     1.310632348936    -7.127600214047    12.000000000000
      Gh(N)          -1.085639179725     1.311630348936    -5.809276214047    14.003074004430
      Gh(C)           0.000103820275     1.314906348936    -5.027875214047    12.000000000000
      Gh(C)          -2.477369179725     1.361036348936    -5.341297214047    12.000000000000
      Gh(N)           1.085217820275     1.311630348936    -5.809276214047    14.003074004430
      Gh(H)           1.385141820275     1.300776348936    -7.945423214047     1.007825032230
      Gh(H)          -1.385306179725     1.310442348936    -7.945269214047     1.007825032230
      Gh(H)          -0.000013179725     1.316653348936    -3.946786214047     1.007825032230
      Gh(C)           2.478112820275     1.294738348936    -5.344178214047    12.000000000000
      Gh(H)           2.490587820275     1.322083348936    -4.253925214047     1.007825032230
      Gh(H)           2.967023820275     0.381292348936    -5.691354214047     1.007825032230
      Gh(H)           3.001423820275     2.170221348936    -5.735650214047     1.007825032230
      Gh(H)          -2.857363179725     2.383107348936    -5.421256214047     1.007825032230
      Gh(H)          -3.082683179725     0.690952348936    -5.954361214047     1.007825032230
      Gh(H)          -2.518132179725     1.034052348936    -4.301349214047     1.007825032230
         C           -3.668445443746     7.695098519018     0.489844827289    12.000000000000
         C           -4.847602899072     7.022588180276     0.487478252356    12.000000000000
         C           -4.894963478901     5.587676752467     0.486905341258    12.000000000000
         C           -3.653744858499     4.872076689895     0.494565782987    12.000000000000
         C           -2.409429301220     7.005327385610     0.490039169549    12.000000000000
         C           -2.425481523830     5.572468299839     0.483034280679    12.000000000000
         C           -1.194748196161     7.677490543245     0.491511350091    12.000000000000
         C            0.037954849212     6.990767994693     0.489340645786    12.000000000000
         C            0.030328407694     5.560835908640     0.483857260870    12.000000000000
         C           -1.200988687630     4.860616696851     0.492826994804    12.000000000000
         C            1.277953646089     7.664205792130     0.490716494346    12.000000000000
         C            2.485353904999     6.979043234173     0.488442006442    12.000000000000
         C            2.486124505192     5.546117159176     0.481504257454    12.000000000000
         C            1.254078739919     4.847424462600     0.493132199042    12.000000000000
         C            3.751710411681     7.655258499916     0.488568857822    12.000000000000
         C            4.923561876460     6.970127125926     0.486512377114    12.000000000000
         C            4.955603091600     5.534793812305     0.486351964307    12.000000000000
         C            3.706797354479     4.832556557269     0.491443524477    12.000000000000
         H           -3.658525317484     8.782173768071     0.491529815539     1.007825032230
         H           -1.189217509482     8.765467436296     0.495483226532     1.007825032230
         H            1.284290059161     8.752179784424     0.494875318487     1.007825032230
         H            3.753537907074     8.742381627908     0.490091382138     1.007825032230
         H            5.869954523482     7.505141183591     0.485587010072     1.007825032230
         H           -5.788235887228     7.567648561870     0.485918405000     1.007825032230
         C           -6.091978138422     4.884606362579     0.485033100767    12.000000000000
         C           -6.128665660043     3.473926517734     0.486234277796    12.000000000000
         C           -3.664583919771     3.455528528680     0.483309183178    12.000000000000
         C           -4.894302384424     2.752427124836     0.492478168163    12.000000000000
         C           -2.437339174623     2.738958006020     0.495140961715    12.000000000000
         C           -1.209232037322     3.439233283914     0.481461934923    12.000000000000
         C            1.247137392437     3.426027100365     0.480653328518    12.000000000000
         C            0.015171859844     2.724458188241     0.492337511742    12.000000000000
         C            2.467640992715     2.712636326191     0.492437569866    12.000000000000
         C            3.702545294854     3.416006503360     0.478949609023    12.000000000000
         C            6.144976206658     4.818918715067     0.485118519095    12.000000000000
         C            6.166584179136     3.407930824878     0.487285072532    12.000000000000
         C            4.924605778734     2.699754274290     0.493823818769    12.000000000000
         H            7.089901329916     5.358234115159     0.481356638246     1.007825032230
         H           -7.031045930827     5.434034301793     0.480799885816     1.007825032230
         C           -7.339702220848     2.749757883515     0.484607110354    12.000000000000
         C           -7.364886137784     1.361669720519     0.486372648482    12.000000000000
         C           -4.903508788672     1.335773161096     0.481656384290    12.000000000000
         C           -6.132261332336     0.631285705989     0.493946428273    12.000000000000
         C           -3.676878980242     0.618043491609     0.492284100690    12.000000000000
         C           -2.445660765791     1.320987482198     0.481974390489    12.000000000000
         C           -1.223604861027     0.606670850570     0.493403655020    12.000000000000
         C            0.007633689588     1.308729498173     0.491869308737    12.000000000000
         C            1.231215628021     0.593463039523     0.473042723081    12.000000000000
         C            2.460816920806     1.294638385061     0.492547231972    12.000000000000
         C            3.684426074471     0.578544777148     0.491718445695    12.000000000000
         C            4.918704721813     1.283080910125     0.479316624059    12.000000000000
         C            7.369797898236     2.670828552120     0.485524652740    12.000000000000
         C            7.380158486396     1.282563856791     0.487071335585    12.000000000000
         C            6.139795359397     0.565464972136     0.493399677397    12.000000000000
         H           -8.279194979072     3.298464390060     0.480309558233     1.007825032230
         H            8.315109291754     3.209464445559     0.481314076940     1.007825032230
         C           -8.591760117307     0.616178901980     0.486713076099    12.000000000000
         C           -8.599028783429    -0.741293457293     0.488836200682    12.000000000000
         C           -6.139817318844    -0.782790288218     0.481846859347    12.000000000000
         C           -7.380188291863    -1.499919840646     0.489262920888    12.000000000000
         C           -4.918688659982    -1.500408669094     0.494187357497    12.000000000000
         C           -3.684442475410    -0.795890966800     0.483155117432    12.000000000000
         C           -2.460821219973    -1.511998829889     0.493698203621    12.000000000000
         C           -1.231166192046    -0.810827515945     0.481577824830    12.000000000000
         C           -0.007573805113    -1.526072500475     0.489034349133    12.000000000000
         C            1.223643536163    -0.823929028328     0.499039971082    12.000000000000
         C            2.445666469606    -1.538296940071     0.487289958322    12.000000000000
         C            3.676862523121    -0.835361082620     0.483149373927    12.000000000000
         C            6.132244666694    -0.848632490914     0.481621399715    12.000000000000
         C            4.903514965779    -1.553111171605     0.495462474255    12.000000000000
         C            8.599010668965     0.523950215603     0.486933451729    12.000000000000
         C            8.591741308375    -0.833504518258     0.488669831990    12.000000000000
         C            7.364858584664    -1.578986316670     0.488439655298    12.000000000000
         H           -9.528310151544     1.168193798128     0.485243149135     1.007825032230
         H            9.541406794881     1.065918837380     0.485881419468     1.007825032230
         C           -7.369842089494    -2.888198796998     0.491071129310    12.000000000000
         C           -4.924603288776    -2.917090908405     0.483339496874    12.000000000000
         C           -6.166626675393    -3.625305843890     0.489641337033    12.000000000000
         C           -3.702514539430    -3.633335200185     0.493663566060    12.000000000000
         C           -2.467651164839    -2.929979613868     0.481618927703    12.000000000000
         C           -0.015137653833    -2.941795296464     0.481900516212    12.000000000000
         C           -1.247126020952    -3.643385826627     0.493464469620    12.000000000000
         C            1.209240889918    -3.656568329708     0.496003499412    12.000000000000
         C            2.437331842429    -2.956295389240     0.481863741101    12.000000000000
         C            4.894298164045    -2.969776619350     0.482684481172    12.000000000000
         C            3.664611075316    -3.672873496596     0.495563901113    12.000000000000
         C            6.128634835020    -3.691237708782     0.488909743070    12.000000000000
         C            7.339668484970    -2.967066958435     0.490424969152    12.000000000000
         H           -9.541453290984    -1.283217117729     0.490205616855     1.007825032230
         H            9.528257688346    -1.385572724969     0.489919639751     1.007825032230
         H           -8.315169223574    -3.426803504277     0.495243357841     1.007825032230
         H            8.279150962767    -3.515794440958     0.494764525135     1.007825032230
         C           -6.144998368428    -5.036300923848     0.490967335093    12.000000000000
         C           -3.706787527723    -5.049915365182     0.481146367005    12.000000000000
         C           -4.955594237727    -5.752147624559     0.489113501650    12.000000000000
         C           -2.486125505952    -5.763439225474     0.494086038050    12.000000000000
         C           -1.254062515205    -5.064775701066     0.482910432064    12.000000000000
         C            1.201008394143    -5.077934039257     0.484091556322    12.000000000000
         C           -0.030340854139    -5.778173954203     0.491934755985    12.000000000000
         C            3.653745921603    -5.089397426479     0.484849556070    12.000000000000
         C            2.425488516150    -5.789828286592     0.494226486622    12.000000000000
         C            6.091961438086    -5.101911614451     0.491203969744    12.000000000000
         C            4.894972264885    -5.805002072022     0.489967773913    12.000000000000
         H           -7.089896567766    -5.575653493303     0.495370096774     1.007825032230
         H            7.031051029475    -5.651312187397     0.494783749507     1.007825032230
         C           -4.923549501924    -7.187474750742     0.488558732745    12.000000000000
         C           -2.485346267963    -7.196381728994     0.486048840309    12.000000000000
         C           -3.751690071504    -7.872600808701     0.486243519234    12.000000000000
         C           -0.037953136713    -7.208118525534     0.486264565457    12.000000000000
         C           -1.277960280127    -7.881558035731     0.484279872695    12.000000000000
         C            2.409440141001    -7.222675663067     0.487127766268    12.000000000000
         C            1.194745757428    -7.894839016627     0.484975475386    12.000000000000
         C            4.847616872773    -7.239915761644     0.489634580927    12.000000000000
         C            3.668467426150    -7.912441644008     0.487286146564    12.000000000000
         H           -5.869944530142    -7.722484249106     0.490102769611     1.007825032230
         H            5.788245445663    -7.784985840379     0.490761700409     1.007825032230
         H           -3.753531119175    -8.959725220301     0.484407604805     1.007825032230
         H           -1.284308585620    -8.969529043562     0.479852488837     1.007825032230
         H            1.189217394970    -8.982814271654     0.480882838696     1.007825032230
         H            3.658542435098    -8.999514285118     0.485631605141     1.007825032230

  Charge       = 0
  Multiplicity = 1
  Basis Set: JUN-CC-PVDZ
    Blend: JUN-CC-PVDZ
  Basis Set: (JUN-CC-PVDZ AUX)
    Blend: JUN-CC-PVDZ-JKFIT

    Orbital Energies [Eh]
    ---------------------

    Doubly Occupied:

       1A    -11.264009     2A    -11.263695     3A    -11.263688
       4A    -11.263347     5A    -11.263344     6A    -11.263310
       7A    -11.263152     8A    -11.263132     9A    -11.263122
      10A    -11.262966    11A    -11.262809    12A    -11.262801
      13A    -11.262327    14A    -11.262320    15A    -11.262254
      16A    -11.262248    17A    -11.262197    18A    -11.262165
      19A    -11.262119    20A    -11.262082    21A    -11.262079
      22A    -11.261930    23A    -11.261922    24A    -11.261807
      25A    -11.261794    26A    -11.261777    27A    -11.261773
      28A    -11.261727    29A    -11.261717    30A    -11.261646
      31A    -11.261617    32A    -11.261614    33A    -11.261588
      34A    -11.261586    35A    -11.261565    36A    -11.261518
      37A    -11.261386    38A    -11.261376    39A    -11.261368
      40A    -11.261361    41A    -11.261354    42A    -11.261346
      43A    -11.261341    44A    -11.261326    45A    -11.261322
      46A    -11.261302    47A    -11.261294    48A    -11.261288
      49A    -11.261132    50A    -11.261099    51A    -11.261095
      52A    -11.261016    53A    -11.261011    54A    -11.260942
      55A    -11.259984    56A    -11.259966    57A    -11.259963
      58A    -11.259937    59A    -11.259932    60A    -11.259914
      61A    -11.259359    62A    -11.259330    63A    -11.259329
      64A    -11.259278    65A    -11.259274    66A    -11.259244
      67A    -11.258987    68A    -11.258966    69A    -11.258963
      70A    -11.258939    71A    -11.258934    72A    -11.258919
      73A    -11.254569    74A    -11.254565    75A    -11.254563
      76A    -11.254562    77A    -11.254554    78A    -11.254552
      79A    -11.253714    80A    -11.253709    81A    -11.253705
      82A    -11.253703    83A    -11.253700    84A    -11.253693
      85A    -11.253630    86A    -11.253625    87A    -11.253621
      88A    -11.253619    89A    -11.253616    90A    -11.253608
      91A    -11.253097    92A    -11.253093    93A    -11.253091
      94A    -11.253090    95A    -11.253082    96A    -11.253080
      97A     -1.254060    98A     -1.239088    99A     -1.239083
     100A     -1.220539   101A     -1.220533   102A     -1.215545
     103A     -1.201106   104A     -1.195672   105A     -1.188240
     106A     -1.188237   107A     -1.173827   108A     -1.173824
     109A     -1.155718   110A     -1.155714   111A     -1.152816
     112A     -1.144782   113A     -1.144778   114A     -1.128647
     115A     -1.114801   116A     -1.113222   117A     -1.112580
     118A     -1.112565   119A     -1.111674   120A     -1.088510
     121A     -1.088493   122A     -1.077020   123A     -1.077018
     124A     -1.067699   125A     -1.067668   126A     -1.065063
     127A     -1.046872   128A     -1.046864   129A     -1.040557
     130A     -1.038793   131A     -1.038792   132A     -1.025331
     133A     -1.021492   134A     -1.021441   135A     -1.007245
     136A     -1.006883   137A     -1.003864   138A     -1.000577
     139A     -1.000527   140A     -0.991130   141A     -0.971069
     142A     -0.971020   143A     -0.955948   144A     -0.955892
     145A     -0.905693   146A     -0.905653   147A     -0.905603
     148A     -0.905562   149A     -0.904444   150A     -0.892465
     151A     -0.892407   152A     -0.890455   153A     -0.890398
     154A     -0.889536   155A     -0.872279   156A     -0.869103
     157A     -0.851604   158A     -0.847953   159A     -0.847933
     160A     -0.845687   161A     -0.843097   162A     -0.834635
     163A     -0.834622   164A     -0.828175   165A     -0.828170
     166A     -0.784623   167A     -0.784613   168A     -0.783744
     169A     -0.783720   170A     -0.782365   171A     -0.782346
     172A     -0.782121   173A     -0.767059   174A     -0.760889
     175A     -0.750667   176A     -0.733545   177A     -0.727142
     178A     -0.727125   179A     -0.725160   180A     -0.724609
     181A     -0.724589   182A     -0.718591   183A     -0.713860
     184A     -0.713854   185A     -0.699646   186A     -0.699632
     187A     -0.686224   188A     -0.686016   189A     -0.686013
     190A     -0.682236   191A     -0.682226   192A     -0.678859
     193A     -0.653697   194A     -0.650944   195A     -0.650914
     196A     -0.649902   197A     -0.649890   198A     -0.649624
     199A     -0.641024   200A     -0.640995   201A     -0.640147
     202A     -0.639216   203A     -0.636104   204A     -0.636076
     205A     -0.629210   206A     -0.617733   207A     -0.615360
     208A     -0.615339   209A     -0.608866   210A     -0.608859
     211A     -0.599163   212A     -0.599138   213A     -0.598817
     214A     -0.598684   215A     -0.598663   216A     -0.598132
     217A     -0.595125   218A     -0.595112   219A     -0.594790
     220A     -0.594330   221A     -0.592032   222A     -0.592029
     223A     -0.587488   224A     -0.577842   225A     -0.577830
     226A     -0.575716   227A     -0.575712   228A     -0.573441
     229A     -0.569573   230A     -0.568231   231A     -0.568209
     232A     -0.566824   233A     -0.566815   234A     -0.560960
     235A     -0.558799   236A     -0.558775   237A     -0.558475
     238A     -0.554437   239A     -0.550603   240A     -0.547520
     241A     -0.544313   242A     -0.535017   243A     -0.534985
     244A     -0.533602   245A     -0.533581   246A     -0.528135
     247A     -0.528119   248A     -0.527886   249A     -0.517252
     250A     -0.517220   251A     -0.515395   252A     -0.515389
     253A     -0.509697   254A     -0.509682   255A     -0.498087
     256A     -0.496518   257A     -0.496488   258A     -0.493813
     259A     -0.493802   260A     -0.489452   261A     -0.481506
     262A     -0.477456   263A     -0.477454   264A     -0.474054
     265A     -0.469512   266A     -0.466592   267A     -0.466589
     268A     -0.458844   269A     -0.446783   270A     -0.446724
     271A     -0.441066   272A     -0.440791   273A     -0.440771
     274A     -0.434724   275A     -0.433941   276A     -0.407412
     277A     -0.407389   278A     -0.386446   279A     -0.386400
     280A     -0.385765   281A     -0.385764   282A     -0.383790
     283A     -0.354364   284A     -0.354345   285A     -0.350700
     286A     -0.338125   287A     -0.335629   288A     -0.335553
     289A     -0.332747   290A     -0.332742   291A     -0.307121
     292A     -0.301983   293A     -0.301921   294A     -0.300877
     295A     -0.286206   296A     -0.256498   297A     -0.253536
     298A     -0.253483   299A     -0.204296   300A     -0.204209

  @DF-RHF Final Energy: -3650.33852033827543

   => Energetics <=

    Nuclear Repulsion Energy =          15611.4211649754306563
    One-Electron Energy =              -36072.1079095324093942
    Two-Electron Energy =               16810.3482242187055817
    Total Energy =                      -3650.3385203382749751
 Dipole X            :         -0.0008521            0.0002112           -0.0006409
 Dipole Y            :        123.2146793         -123.2131634            0.0015159
 Dipole Z            :       -553.2432559          553.2525978            0.0093419
 Magnitude           :                                                    0.0094858

    SAPT Results
  --------------------------------------------------------------------------------------------------------
    Electrostatics                 -9.41222067 [mEh]      -5.90625764 [kcal/mol]     -24.71178197 [kJ/mol]
      Elst10,r                     -9.41222067 [mEh]      -5.90625764 [kcal/mol]     -24.71178197 [kJ/mol]

    Exchange                        0.00891070 [mEh]       0.00559155 [kcal/mol]       0.02339503 [kJ/mol]
      Exch10                        0.00891070 [mEh]       0.00559155 [kcal/mol]       0.02339503 [kJ/mol]
      Exch10(S^2)                   0.00891065 [mEh]       0.00559152 [kcal/mol]       0.02339491 [kJ/mol]

    Induction                      -4.96751575 [mEh]      -3.11716319 [kcal/mol]     -13.04221080 [kJ/mol]
      Ind20,r                      -4.83592602 [mEh]      -3.03458939 [kcal/mol]     -12.69672202 [kJ/mol]
      Exch-Ind20,r                  0.00357526 [mEh]       0.00224351 [kcal/mol]       0.00938685 [kJ/mol]
      delta HF,r (2)               -0.13516499 [mEh]      -0.08481731 [kcal/mol]      -0.35487563 [kJ/mol]

    Dispersion                     -2.89045004 [mEh]      -1.81378478 [kcal/mol]      -7.58887554 [kJ/mol]
      Disp20                       -2.89236921 [mEh]      -1.81498908 [kcal/mol]      -7.59391432 [kJ/mol]
      Exch-Disp20                   0.00191917 [mEh]       0.00120430 [kcal/mol]       0.00503878 [kJ/mol]
      Disp20 (SS)                  -1.44618461 [mEh]      -0.90749454 [kcal/mol]      -3.79695716 [kJ/mol]
      Disp20 (OS)                  -1.44618461 [mEh]      -0.90749454 [kcal/mol]      -3.79695716 [kJ/mol]
      Exch-Disp20 (SS)              0.00135391 [mEh]       0.00084959 [kcal/mol]       0.00355469 [kJ/mol]
      Exch-Disp20 (OS)              0.00056526 [mEh]       0.00035471 [kcal/mol]       0.00148409 [kJ/mol]

  Total HF                        -14.37082573 [mEh]      -9.01782929 [kcal/mol]     -37.73059775 [kJ/mol]
  Total SAPT0                     -17.26127577 [mEh]     -10.83161407 [kcal/mol]     -45.31947328 [kJ/mol]

  Special recipe for scaled SAPT0 (see Manual):
    Electrostatics sSAPT0          -9.41222067 [mEh]      -5.90625764 [kcal/mol]     -24.71178197 [kJ/mol]
    Exchange sSAPT0                 0.00891070 [mEh]       0.00559155 [kcal/mol]       0.02339503 [kJ/mol]
    Induction sSAPT0               -4.96751575 [mEh]      -3.11716319 [kcal/mol]     -13.04221080 [kJ/mol]
    Dispersion sSAPT0              -2.89045004 [mEh]      -1.81378478 [kcal/mol]      -7.58887554 [kJ/mol]
  Total sSAPT0                    -17.26127577 [mEh]     -10.83161407 [kcal/mol]     -45.31947328 [kJ/mol]
  --------------------------------------------------------------------------------------------------------

*** Psi4 exiting successfully. Buy a developer a beer!
