                               Psi4 1.9 release

  ==> Input File <==

--------------------------------------------------------------------------
memory 64 GB # how much memory is available ! Depends on the nodes/cores !

molecule dimer {
# monomer A
-1 1    # Charge and multiplicity
B -1.977592e-04  2.742729e-04 -5.199966
F  1.123153e-16  1.430594e-17 -3.787181
F  1.147860e+00  6.757812e-01 -5.671107
F  1.191806e-02 -1.332011e+00 -5.670905
F -1.159666e+00  6.560735e-01 -5.670826
--
# monomer B
0 1     # Charge and multiplicity
C   -3.66844126402057      7.80375217008252      0.00190004133558
C   -4.84759871934653      7.13124183134024     -0.00046653359696
C   -4.89495929917518      5.69633040353158     -0.00103944469517
C   -3.65374067877320      4.98073034095895      0.00662099703436
C   -2.40942512149445      7.11398103667468      0.00209438359570
C   -2.42547734410473      5.68112195090346     -0.00491050527438
C   -1.19474401643570      7.78614419430947      0.00356656413763
C   0.03795902893699      7.09942164575698      0.00139585983271
C   0.03033258741920      5.66948955970466     -0.00408752508301
C   -1.20098450790502      4.96927034791531      0.00488220885047
C   1.27795782581485      7.77285944319479      0.00277170839332
C   2.48535808472416      7.08769688523756      0.00049722048857
C   2.48612868491717      5.65477081024076     -0.00644052849921
C   1.25408291964399      4.95607811366431      0.00518741308898
C   3.75171459140595      7.76391215098033      0.00062407186893
C   4.92356605618520      7.07878077698995     -0.00143240883900
C   4.95560727132542      5.64344746336949     -0.00159282164606
C   3.70680153420475      4.94121020833308      0.00349873852374
H   -3.65852113775815      8.89082741913536      0.00358502958574
H   -1.18921332975660      8.87412108735996      0.00753844057883
H   1.28429423888630      8.86083343548850      0.00693053253426
H   3.75354208679975      8.85103527897216      0.00214659618464
H   5.86995870320703      7.61379483465560     -0.00235777588134
H   -5.78823170750226      7.67630221293400     -0.00202638095293
C   -6.09197395869619      4.99326001364347     -0.00291168518608
C   -6.12866148031747      3.58258016879823     -0.00171050815740
C   -3.66457974004527      3.56418217974434     -0.00463560277484
C   -4.89429820469869      2.86108077590057      0.00453338221034
C   -2.43733499489796      2.84761165708481      0.00719617576166
C   -1.20922785759670      3.54788693497833     -0.00648285103018
C   1.24714157216223      3.53468075142962     -0.00729145743546
C   0.01517603956900      2.83311183930540      0.00439272578912
C   2.46764517244071      2.82128997725533      0.00449278391269
C   3.70254947457969      3.52466015442405     -0.00899517692985
C   6.14498038638375      4.92757236613191     -0.00282626685777
C   6.16658835886151      3.51658447594213     -0.00065971342101
C   4.92460995845939      2.80840792535402      0.00587903281610
H   7.08990550964105      5.46688776622306     -0.00658814770723
H   -7.03104175110130      5.54268795285765     -0.00714490013730
C   -7.33969804112295      2.85841153457957     -0.00333767559888
C   -7.36488195805880      1.47032337158330     -0.00157213747140
C   -4.90350460894690      1.44442681216000     -0.00628840166334
C   -6.13225715261081      0.73993935705394      0.00600164231964
C   -3.67687480051673      0.72669714267312      0.00433931473643
C   -2.44565658606518      1.42964113326212     -0.00597039546461
C   -1.22360068130162      0.71532450163492      0.00545886906656
C   0.00763786931376      1.41738314923765      0.00392452278437
C   1.23121980774686      0.70211669058719     -0.01490206287210
C   2.46082110053113      1.40329203612573      0.00460244601878
C   3.68443025419614      0.68719842821222      0.00377365974158
C   4.91870890153864      1.39173456118907     -0.00862816189375
C   7.36980207796101      2.77948220318441     -0.00242013321349
C   7.38016266612146      1.39121750785509     -0.00087345036788
C   6.13979953912259      0.67411862320065      0.00545489144369
H   -8.27919079934664      3.40711804112415     -0.00763522772059
H   8.31511347147953      3.31811809662368     -0.00663070901292
C   -8.59175593758115      0.72483255304480     -0.00123170985383
C   -8.59902460370342     -0.63263980622873      0.00089141472904
C   -6.13981313911873     -0.67413663715361     -0.00609792660607
C   -7.38018411213749     -1.39126618958160      0.00131813493501
C   -4.91868448025621     -1.39175501803000      0.00624257154343
C   -3.68443829568458     -0.68723731573599     -0.00478966852105
C   -2.46081704024768     -1.40334517882457      0.00575341766833
C   -1.23116201232071     -0.70217386488055     -0.00636696112346
C   -0.00756962538737     -1.41741884941102      0.00108956317991
C   1.22364771588843     -0.71527537726392      0.01109518512883
C   2.44567064933149     -1.42964328900682     -0.00065482763106
C   3.67686670284649     -0.72670743155550     -0.00479541202602
C   6.13224884641929     -0.73997883984993     -0.00632338623858
C   4.90351914550401     -1.44445752054090      0.00751768830159
C   8.59901484869081      0.63260386666793     -0.00101133422380
C   8.59174548810050     -0.72485086719319      0.00072504603735
C   7.36486276438985     -1.47033266560598      0.00049486934466
H   -9.52830597181814      1.27684744919284     -0.00270163681798
H   9.54141097460619      1.17457248844457     -0.00206336648518
C   -7.36983790976868     -2.77954514593389      0.00312634335708
C   -4.92459910905015     -2.80843725734101     -0.00460528907921
C   -6.16662249566744     -3.51665219282533      0.00169655107992
C   -3.70251035970491     -3.52468154912026      0.00571878010666
C   -2.46764698511392     -2.82132596280400     -0.00632585824990
C   -0.01513347410770     -2.83314164539971     -0.00604426974092
C   -1.24712184122656     -3.53473217556300      0.00551968366725
C   1.20924506964357     -3.54791467864352      0.00805871345849
C   2.43733602215464     -2.84764173817541     -0.00608104485234
C   4.89430234377080     -2.86112296828604     -0.00526030478103
C   3.66461525504104     -3.56421984553201      0.00761911515957
C   6.12863901474565     -3.58258405771778      0.00096495711699
C   7.33967266469532     -2.85841330737039      0.00248018319869
H   -9.54144911125902     -1.17456346666430      0.00226083090216
H   9.52826186807155     -1.27691907390448      0.00197485379837
H   -8.31516504384864     -3.31814985321231      0.00729857188773
H   8.27915514249207     -3.40714078989363      0.00681973918158
C   -6.14499418870218     -4.92764727278338      0.00302254913999
C   -3.70678334799751     -4.94126171411716     -0.00679841894792
C   -4.95559005800169     -5.64349397349412      0.00116871569699
C   -2.48612132622665     -5.65478557440947      0.00614125209662
C   -1.25405833548005     -4.95612205000132     -0.00503435388927
C   1.20101257386816     -4.96928038819302     -0.00385322963129
C   -0.03033667441341     -5.66952030313900      0.00398997003238
C   3.65375010132847     -4.98074377541453     -0.00309522988330
C   2.42549269587528     -5.68117463552727      0.00628170066869
C   6.09196561781097     -4.99325796338655      0.00325918379042
C   4.89497644461045     -5.69634842095790      0.00202298796027
H   -7.08989238804069     -5.46699984223871      0.00742531082125
H   7.03105520920009     -5.54265853633254      0.00683896355417
C   -4.92354532219813     -7.07882109967734      0.00061394679214
C   -2.48534208823777     -7.08772807792913     -0.00189594564379
C   -3.75168589177895     -7.76394715763627     -0.00170126671874
C   -0.03794895698805     -7.09946487446944     -0.00168022049625
C   -1.27795610040136     -7.77290438466689     -0.00366491325785
C   2.40944432072629     -7.11402201200282     -0.00081701968533
C   1.19474993715296     -7.78618536556242     -0.00296931056689
C   4.84762105249800     -7.13126211057943      0.00168979497423
C   3.66847160587561     -7.80378799294376     -0.00065863938960
H   -5.86994035041618     -7.61383059804164      0.00215798365757
H   5.78824962538815     -7.67633218931421      0.00281691445618
H   -3.75352693944918     -8.85107156923607     -0.00353718114765
H   -1.28430440589466     -8.86087539249706     -0.00809229711623
H   1.18922157469537     -8.87416062058945     -0.00706194725726
H   3.65854661482387     -8.89086063405326     -0.00231318081200

    units angstrom      # Angstroms are the default
    no_reorient         # Geometry fixed, default
    symmetry c1         # C1 symmetry, default
}

set {
    scf_type DF         # Density fitting, faster than exact integrals
    freeze_core True    # Freeze core electrons
    basis jun-cc-pVDZ   # Jun-cc-pVDZ basis set, recommended for sSAPT0 in https://doi.org/10.1063/1.4867135
}

energy('ssapt0')        # Compute sSAPT0 energy, includes also SAPT0
--------------------------------------------------------------------------

  //              Dimer HF             //
    Molecular point group: c1
  Charge       = -1
  Multiplicity = 1
  Basis Set: JUN-CC-PVDZ
    Blend: JUN-CC-PVDZ
  Basis Set: (JUN-CC-PVDZ AUX)
    Blend: JUN-CC-PVDZ-JKFIT
  @DF-RHF Final Energy: -4073.10786186958467
    Total Energy =                      -4073.1078618695864861
 Dipole X            :         -0.0001002           -0.0000548           -0.0001550
 Dipole Y            :          0.0009417           -0.0002464            0.0006954
 Dipole Z            :        -23.0350398           30.9455297            7.9104898
 Magnitude           :                                                    7.9104899
  //            Monomer A HF           //
    Molecular point group: c1
  Multiplicity = 1
  Basis Set: JUN-CC-PVDZ
    Blend: JUN-CC-PVDZ
  Basis Set: (JUN-CC-PVDZ AUX)
    Blend: JUN-CC-PVDZ-JKFIT
  @DF-RHF Final Energy:  -422.77202840713289
    Total Energy =                       -422.7720284071328933
  //            Monomer B HF           //
    Molecular point group: c1

    Geometry (in Angstrom), charge = 0, multiplicity = 1:

       Center              X                  Y                   Z               Mass
    ------------   -----------------  -----------------  -----------------  -----------------
      Gh(B)          -0.000201921932     0.000288800891    -4.841816428784    11.009305360000
      Gh(F)          -0.000004162732     0.000014527991    -3.429031428784    18.998403162730
      Gh(F)           1.147855837268     0.675795727991    -5.312957428784    18.998403162730
      Gh(F)           0.011913897268    -1.331996472009    -5.312755428784    18.998403162730
      Gh(F)          -1.159670162732     0.656088027991    -5.312676428784    18.998403162730
         C           -3.668445426752     7.803766698073     0.360049612551    12.000000000000
         C           -4.847602882078     7.131256359331     0.357683037619    12.000000000000
         C           -4.894963461907     5.696344931522     0.357110126520    12.000000000000
         C           -3.653744841505     4.980744868950     0.364770568250    12.000000000000
         C           -2.409429284226     7.113995564665     0.360243954811    12.000000000000
         C           -2.425481506836     5.681136478894     0.353239065941    12.000000000000
         C           -1.194748179167     7.786158722300     0.361716135353    12.000000000000
         C            0.037954866205     7.099436173748     0.359545431048    12.000000000000
         C            0.030328424687     5.669504087695     0.354062046133    12.000000000000
         C           -1.200988670637     4.969284875906     0.363031780066    12.000000000000
         C            1.277953663083     7.772873971185     0.360921279609    12.000000000000
         C            2.485353921992     7.087711413228     0.358646791704    12.000000000000
         C            2.486124522185     5.654785338231     0.351709042716    12.000000000000
         C            1.254078756912     4.956092641655     0.363336984305    12.000000000000
         C            3.751710428674     7.763926678971     0.358773643085    12.000000000000
         C            4.923561893453     7.078795304981     0.356717162377    12.000000000000
         C            4.955603108594     5.643461991360     0.356556749570    12.000000000000
         C            3.706797371473     4.941224736324     0.361648309739    12.000000000000
         H           -3.658525300490     8.890841947126     0.361734600801     1.007825032230
         H           -1.189217492488     8.874135615351     0.365688011794     1.007825032230
         H            1.284290076155     8.860847963479     0.365080103750     1.007825032230
         H            3.753537924068     8.851049806963     0.360296167400     1.007825032230
         H            5.869954540475     7.613809362646     0.355791795334     1.007825032230
         H           -5.788235870234     7.676316740925     0.356123190263     1.007825032230
         C           -6.091978121428     4.993274541634     0.355237886030    12.000000000000
         C           -6.128665643049     3.582594696789     0.356439063058    12.000000000000
         C           -3.664583902777     3.564196707735     0.353513968441    12.000000000000
         C           -4.894302367430     2.861095303891     0.362682953426    12.000000000000
         C           -2.437339157630     2.847626185075     0.365345746977    12.000000000000
         C           -1.209232020328     3.547901462969     0.351666720185    12.000000000000
         C            1.247137409430     3.534695279420     0.350858113780    12.000000000000
         C            0.015171876837     2.833126367296     0.362542297005    12.000000000000
         C            2.467641009709     2.821304505246     0.362642355128    12.000000000000
         C            3.702545311848     3.524674682415     0.349154394286    12.000000000000
         C            6.144976223652     4.927586894122     0.355323304358    12.000000000000
         C            6.166584196130     3.516599003933     0.357489857795    12.000000000000
         C            4.924605795728     2.808422453345     0.364028604032    12.000000000000
         H            7.089901346909     5.466902294214     0.351561423508     1.007825032230
         H           -7.031045913833     5.542702480848     0.351004671078     1.007825032230
         C           -7.339702203855     2.858426062570     0.354811895617    12.000000000000
         C           -7.364886120791     1.470337899574     0.356577433744    12.000000000000
         C           -4.903508771679     1.444441340151     0.351861169552    12.000000000000
         C           -6.132261315343     0.739953885044     0.364151213535    12.000000000000
         C           -3.676878963248     0.726711670664     0.362488885952    12.000000000000
         C           -2.445660748797     1.429655661253     0.352179175751    12.000000000000
         C           -1.223604844033     0.715339029625     0.363608440282    12.000000000000
         C            0.007633706582     1.417397677228     0.362074094000    12.000000000000
         C            1.231215645015     0.702131218578     0.343247508343    12.000000000000
         C            2.460816937799     1.403306564116     0.362752017234    12.000000000000
         C            3.684426091464     0.687212956203     0.361923230957    12.000000000000
         C            4.918704738807     1.391749089180     0.349521409322    12.000000000000
         C            7.369797915229     2.779496731175     0.355729438002    12.000000000000
         C            7.380158503390     1.391232035846     0.357276120848    12.000000000000
         C            6.139795376391     0.674133151191     0.363604462659    12.000000000000
         H           -8.279194962078     3.407132569115     0.350514343495     1.007825032230
         H            8.315109308748     3.318132624614     0.351518862203     1.007825032230
         C           -8.591760100313     0.724847081035     0.356917861362    12.000000000000
         C           -8.599028766435    -0.632625278238     0.359040985945    12.000000000000
         C           -6.139817301850    -0.674122109163     0.352051644610    12.000000000000
         C           -7.380188274869    -1.391251661591     0.359467706151    12.000000000000
         C           -4.918688642988    -1.391740490039     0.364392142759    12.000000000000
         C           -3.684442458416    -0.687222787745     0.353359902695    12.000000000000
         C           -2.460821202979    -1.403330650834     0.363902988884    12.000000000000
         C           -1.231166175052    -0.702159336890     0.351782610092    12.000000000000
         C           -0.007573788119    -1.417404321420     0.359239134395    12.000000000000
         C            1.223643553157    -0.715260849273     0.369244756344    12.000000000000
         C            2.445666486600    -1.429628761016     0.357494743585    12.000000000000
         C            3.676862540115    -0.726692903565     0.353354159190    12.000000000000
         C            6.132244683688    -0.739964311859     0.351826184977    12.000000000000
         C            4.903514982772    -1.444442992550     0.365667259517    12.000000000000
         C            8.599010685959     0.632618394658     0.357138236992    12.000000000000
         C            8.591741325369    -0.724836339203     0.358874617253    12.000000000000
         C            7.364858601658    -1.470318137615     0.358644440560    12.000000000000
         H           -9.528310134550     1.276861977183     0.355447934398     1.007825032230
         H            9.541406811874     1.174587016435     0.356086204730     1.007825032230
         C           -7.369842072500    -2.779530617943     0.361275914573    12.000000000000
         C           -4.924603271782    -2.808422729350     0.353544282136    12.000000000000
         C           -6.166626658399    -3.516637664835     0.359846122296    12.000000000000
         C           -3.702514522437    -3.524667021130     0.363868351322    12.000000000000
         C           -2.467651147846    -2.821311434813     0.351823712966    12.000000000000
         C           -0.015137636839    -2.833127117409     0.352105301475    12.000000000000
         C           -1.247126003958    -3.534717647572     0.363669254883    12.000000000000
         C            1.209240906912    -3.547900150653     0.366208284674    12.000000000000
         C            2.437331859423    -2.847627210185     0.352068526363    12.000000000000
         C            4.894298181039    -2.861108440295     0.352889266435    12.000000000000
         C            3.664611092309    -3.564205317541     0.365768686375    12.000000000000
         C            6.128634852014    -3.582569529727     0.359114528333    12.000000000000
         C            7.339668501964    -2.858398779380     0.360629754414    12.000000000000
         H           -9.541453273991    -1.174548938674     0.360410402118     1.007825032230
         H            9.528257705340    -1.276904545914     0.360124425014     1.007825032230
         H           -8.315169206580    -3.318135325222     0.365448143103     1.007825032230
         H            8.279150979760    -3.407126261903     0.364969310397     1.007825032230
         C           -6.144998351434    -4.927632744793     0.361172120356    12.000000000000
         C           -3.706787510729    -4.941247186127     0.351351152268    12.000000000000
         C           -4.955594220733    -5.643479445504     0.359318286913    12.000000000000
         C           -2.486125488958    -5.654771046419     0.364290823312    12.000000000000
         C           -1.254062498212    -4.956107522011     0.353115217326    12.000000000000
         C            1.201008411136    -4.969265860202     0.354296341584    12.000000000000
         C           -0.030340837145    -5.669505775148     0.362139541248    12.000000000000
         C            3.653745938597    -4.980729247424     0.355054341332    12.000000000000
         C            2.425488533144    -5.681160107537     0.364431271884    12.000000000000
         C            6.091961455079    -4.993243435396     0.361408755006    12.000000000000
         C            4.894972281879    -5.696333892967     0.360172559176    12.000000000000
         H           -7.089896550772    -5.466985314248     0.365574882037     1.007825032230
         H            7.031051046468    -5.542644008342     0.364988534770     1.007825032230
         C           -4.923549484930    -7.078806571687     0.358763518008    12.000000000000
         C           -2.485346250970    -7.087713549939     0.356253625572    12.000000000000
         C           -3.751690054511    -7.763932629646     0.356448304497    12.000000000000
         C           -0.037953119720    -7.099450346479     0.356469350719    12.000000000000
         C           -1.277960263133    -7.772889856676     0.354484657958    12.000000000000
         C            2.409440157995    -7.114007484012     0.357332551530    12.000000000000
         C            1.194745774421    -7.786170837572     0.355180260649    12.000000000000
         C            4.847616889766    -7.131247582589     0.359839366190    12.000000000000
         C            3.668467443144    -7.803773464953     0.357490931826    12.000000000000
         H           -5.869944513148    -7.613816070051     0.360307554873     1.007825032230
         H            5.788245462656    -7.676317661324     0.360966485672     1.007825032230
         H           -3.753531102181    -8.851057041246     0.354612390068     1.007825032230
         H           -1.284308568626    -8.860860864507     0.350057274099     1.007825032230
         H            1.189217411964    -8.874146092599     0.351087623958     1.007825032230
         H            3.658542452092    -8.890846106063     0.355836390404     1.007825032230

  Charge       = 0
  Multiplicity = 1
  Basis Set: JUN-CC-PVDZ
    Blend: JUN-CC-PVDZ
  Basis Set: (JUN-CC-PVDZ AUX)
    Blend: JUN-CC-PVDZ-JKFIT

    Orbital Energies [Eh]
    ---------------------

    Doubly Occupied:

       1A    -11.264105     2A    -11.263748     3A    -11.263747
       4A    -11.263344     5A    -11.263341     6A    -11.263317
       7A    -11.263166     8A    -11.263162     9A    -11.263146
      10A    -11.262950    11A    -11.262812    12A    -11.262807
      13A    -11.262319    14A    -11.262316    15A    -11.262284
      16A    -11.262284    17A    -11.262189    18A    -11.262174
      19A    -11.262116    20A    -11.262082    21A    -11.262080
      22A    -11.261963    23A    -11.261960    24A    -11.261806
      25A    -11.261804    26A    -11.261782    27A    -11.261775
      28A    -11.261738    29A    -11.261730    30A    -11.261644
      31A    -11.261621    32A    -11.261618    33A    -11.261591
      34A    -11.261587    35A    -11.261585    36A    -11.261562
      37A    -11.261387    38A    -11.261377    39A    -11.261371
      40A    -11.261364    41A    -11.261360    42A    -11.261353
      43A    -11.261343    44A    -11.261327    45A    -11.261322
      46A    -11.261301    47A    -11.261297    48A    -11.261293
      49A    -11.261124    50A    -11.261090    51A    -11.261086
      52A    -11.261005    53A    -11.261004    54A    -11.260941
      55A    -11.259983    56A    -11.259970    57A    -11.259967
      58A    -11.259938    59A    -11.259936    60A    -11.259920
      61A    -11.259357    62A    -11.259332    63A    -11.259330
      64A    -11.259277    65A    -11.259275    66A    -11.259246
      67A    -11.258987    68A    -11.258969    69A    -11.258967
      70A    -11.258939    71A    -11.258937    72A    -11.258926
      73A    -11.254569    74A    -11.254568    75A    -11.254566
      76A    -11.254564    77A    -11.254559    78A    -11.254557
      79A    -11.253711    80A    -11.253710    81A    -11.253708
      82A    -11.253706    83A    -11.253704    84A    -11.253699
      85A    -11.253627    86A    -11.253625    87A    -11.253623
      88A    -11.253622    89A    -11.253620    90A    -11.253614
      91A    -11.253097    92A    -11.253096    93A    -11.253094
      94A    -11.253092    95A    -11.253087    96A    -11.253085
      97A     -1.254043    98A     -1.239087    99A     -1.239087
     100A     -1.220544   101A     -1.220539   102A     -1.215517
     103A     -1.201113   104A     -1.195680   105A     -1.188224
     106A     -1.188222   107A     -1.173833   108A     -1.173830
     109A     -1.155716   110A     -1.155713   111A     -1.152795
     112A     -1.144787   113A     -1.144784   114A     -1.128654
     115A     -1.114803   116A     -1.113226   117A     -1.112558
     118A     -1.112544   119A     -1.111681   120A     -1.088511
     121A     -1.088496   122A     -1.077023   123A     -1.077022
     124A     -1.067696   125A     -1.067667   126A     -1.065051
     127A     -1.046877   128A     -1.046870   129A     -1.040562
     130A     -1.038797   131A     -1.038796   132A     -1.025326
     133A     -1.021472   134A     -1.021422   135A     -1.007250
     136A     -1.006895   137A     -1.003866   138A     -1.000573
     139A     -1.000525   140A     -0.991135   141A     -0.971066
     142A     -0.971018   143A     -0.955949   144A     -0.955894
     145A     -0.905683   146A     -0.905641   147A     -0.905609
     148A     -0.905568   149A     -0.904427   150A     -0.892465
     151A     -0.892406   152A     -0.890446   153A     -0.890388
     154A     -0.889540   155A     -0.872281   156A     -0.869108
     157A     -0.851608   158A     -0.847951   159A     -0.847929
     160A     -0.845681   161A     -0.843107   162A     -0.834639
     163A     -0.834626   164A     -0.828176   165A     -0.828172
     166A     -0.784620   167A     -0.784609   168A     -0.783734
     169A     -0.783707   170A     -0.782367   171A     -0.782347
     172A     -0.782117   173A     -0.767066   174A     -0.760884
     175A     -0.750651   176A     -0.733548   177A     -0.727146
     178A     -0.727133   179A     -0.725166   180A     -0.724616
     181A     -0.724597   182A     -0.718574   183A     -0.713853
     184A     -0.713847   185A     -0.699647   186A     -0.699635
     187A     -0.686209   188A     -0.686025   189A     -0.686022
     190A     -0.682244   191A     -0.682234   192A     -0.678837
     193A     -0.653689   194A     -0.650942   195A     -0.650912
     196A     -0.649892   197A     -0.649876   198A     -0.649629
     199A     -0.641011   200A     -0.640985   201A     -0.640156
     202A     -0.639225   203A     -0.636096   204A     -0.636069
     205A     -0.629219   206A     -0.617742   207A     -0.615366
     208A     -0.615347   209A     -0.608870   210A     -0.608863
     211A     -0.599153   212A     -0.599116   213A     -0.598815
     214A     -0.598693   215A     -0.598668   216A     -0.598107
     217A     -0.595132   218A     -0.595120   219A     -0.594794
     220A     -0.594318   221A     -0.592030   222A     -0.592027
     223A     -0.587481   224A     -0.577848   225A     -0.577838
     226A     -0.575698   227A     -0.575695   228A     -0.573450
     229A     -0.569614   230A     -0.568214   231A     -0.568191
     232A     -0.566826   233A     -0.566815   234A     -0.560966
     235A     -0.558795   236A     -0.558777   237A     -0.558481
     238A     -0.554441   239A     -0.550597   240A     -0.547526
     241A     -0.544306   242A     -0.535034   243A     -0.534995
     244A     -0.533597   245A     -0.533575   246A     -0.528139
     247A     -0.528124   248A     -0.527879   249A     -0.517233
     250A     -0.517199   251A     -0.515393   252A     -0.515388
     253A     -0.509704   254A     -0.509688   255A     -0.498095
     256A     -0.496517   257A     -0.496491   258A     -0.493801
     259A     -0.493791   260A     -0.489478   261A     -0.481514
     262A     -0.477458   263A     -0.477455   264A     -0.474061
     265A     -0.469520   266A     -0.466598   267A     -0.466593
     268A     -0.458839   269A     -0.446773   270A     -0.446712
     271A     -0.441063   272A     -0.440810   273A     -0.440787
     274A     -0.434727   275A     -0.433946   276A     -0.407411
     277A     -0.407386   278A     -0.386440   279A     -0.386392
     280A     -0.385769   281A     -0.385768   282A     -0.383793
     283A     -0.354362   284A     -0.354346   285A     -0.350701
     286A     -0.338111   287A     -0.335640   288A     -0.335570
     289A     -0.332750   290A     -0.332744   291A     -0.307121
     292A     -0.301974   293A     -0.301911   294A     -0.300883
     295A     -0.286206   296A     -0.256501   297A     -0.253543
     298A     -0.253490   299A     -0.204295   300A     -0.204206

  @DF-RHF Final Energy: -3650.33871778975436

   => Energetics <=

    Nuclear Repulsion Energy =          15611.4211649754324753
    One-Electron Energy =              -36072.1073814806004521
    Two-Electron Energy =               16810.3474987154149858
    Total Energy =                      -3650.3387177897529909
 Dipole X            :         -0.0007247            0.0002304           -0.0004943
 Dipole Y            :          0.0011275           -0.0013052           -0.0001777
 Dipole Z            :       -406.0837759          406.0861528            0.0023770
 Magnitude           :                                                    0.0024343

    SAPT Results
  --------------------------------------------------------------------------------------------------------
    Electrostatics                 10.65827163 [mEh]       6.68816642 [kcal/mol]      27.98328830 [kJ/mol]
      Elst10,r                     10.65827163 [mEh]       6.68816642 [kcal/mol]      27.98328830 [kJ/mol]

    Exchange                        0.21393513 [mEh]       0.13424632 [kcal/mol]       0.56168661 [kJ/mol]
      Exch10                        0.21393513 [mEh]       0.13424632 [kcal/mol]       0.56168661 [kJ/mol]
      Exch10(S^2)                   0.21394742 [mEh]       0.13425404 [kcal/mol]       0.56171889 [kJ/mol]

    Induction                      -7.98787945 [mEh]      -5.01247003 [kcal/mol]     -20.97217462 [kJ/mol]
      Ind20,r                      -8.05988574 [mEh]      -5.05765466 [kcal/mol]     -21.16122710 [kJ/mol]
      Exch-Ind20,r                  0.03358215 [mEh]       0.02107312 [kcal/mol]       0.08816993 [kJ/mol]
      delta HF,r (2)                0.03842413 [mEh]       0.02411151 [kcal/mol]       0.10088255 [kJ/mol]

    Dispersion                     -2.34430806 [mEh]      -1.47107552 [kcal/mol]      -6.15497998 [kJ/mol]
      Disp20                       -2.39465336 [mEh]      -1.50266767 [kcal/mol]      -6.28716154 [kJ/mol]
      Exch-Disp20                   0.05034530 [mEh]       0.03159215 [kcal/mol]       0.13218156 [kJ/mol]
      Disp20 (SS)                  -1.19732668 [mEh]      -0.75133384 [kcal/mol]      -3.14358077 [kJ/mol]
      Disp20 (OS)                  -1.19732668 [mEh]      -0.75133384 [kcal/mol]      -3.14358077 [kJ/mol]
      Exch-Disp20 (SS)              0.03337701 [mEh]       0.02094439 [kcal/mol]       0.08763134 [kJ/mol]
      Exch-Disp20 (OS)              0.01696829 [mEh]       0.01064776 [kcal/mol]       0.04455023 [kJ/mol]

  Total HF                          2.88432730 [mEh]       1.80994271 [kcal/mol]       7.57280029 [kJ/mol]
  Total SAPT0                       0.54001924 [mEh]       0.33886719 [kcal/mol]       1.41782031 [kJ/mol]

  Special recipe for scaled SAPT0 (see Manual):
    Electrostatics sSAPT0          10.65827163 [mEh]       6.68816642 [kcal/mol]      27.98328830 [kJ/mol]
    Exchange sSAPT0                 0.21393513 [mEh]       0.13424632 [kcal/mol]       0.56168661 [kJ/mol]
    Induction sSAPT0               -7.98788524 [mEh]      -5.01247367 [kcal/mol]     -20.97218982 [kJ/mol]
    Dispersion sSAPT0              -2.34431674 [mEh]      -1.47108097 [kcal/mol]      -6.15500276 [kJ/mol]
  Total sSAPT0                      0.54000477 [mEh]       0.33885811 [kcal/mol]       1.41778233 [kJ/mol]
  --------------------------------------------------------------------------------------------------------

*** Psi4 exiting successfully. Buy a developer a beer!
