                               Psi4 1.9 release

  ==> Input File <==

--------------------------------------------------------------------------
memory 32 GB # how much memory is available ! Depends on the nodes/cores !

molecule dimer {
# monomer A
+1 1    # Charge and multiplicity
C  0.680067 -1.215929 5.808042
C -0.680504 -1.215545 5.806014
N -1.085635  0.102779 5.805016
C  0.000108  0.884180 5.801740
C -2.477365  0.570758 5.755610
N  1.085222  0.102779 5.805016
H  1.385146 -2.033368 5.815870
H -1.385302 -2.033214 5.806204
H -0.000009  1.965269 5.799993
C  2.478117  0.567877 5.821908
H  2.490592  1.658130 5.794563
H  2.967028  0.220701 6.735354
H  3.001428  0.176405 4.946425
H -2.857359  0.490799 4.733539
H -3.082679 -0.042306 6.425694
H -2.518128  1.610706 6.082594
--
# monomer B
0 1     # Charge and multiplicity
C   1.22531237526482      0.70753866091955      0.00613762728373
C   1.22532433589282     -0.70753852257020     -0.00619318228664
C   -0.00000567409046      1.41496628609039     -0.00672680580738
C   2.45644923379077      1.41832825917820      0.00902448468363
C   0.00001130712078     -1.41497612663474      0.00347275151708
C   -1.22530046906674      0.70754574598412      0.00838914760619
C   2.45643823516184     -1.41832293188077     -0.00843833914343
C   -0.00000085313587      2.83680140328112     -0.00913035594137
C   3.68182717731192      0.70931832800114     -0.00808954934571
C   2.45512052870677      2.83422403348893     -0.00819210630633
C   3.68182158506039     -0.70933346742900      0.00798293467272
C   -1.22531311884624     -0.70752714354401     -0.00512042085974
C   1.22670006104402      3.54346985599427      0.00816696660346
C   0.00000526469929     -2.83678176723568      0.00832091913869
C   -2.45643555300670      1.41831729028492      0.00842454345199
C   2.45512389762097     -2.83422965658853      0.00783102630520
C   -1.22671388474763      3.54346943575023      0.00827029982280
C   4.91451777504333      1.42717324448953     -0.00160886631602
C   3.69315067131765      3.54279566454522     -0.00155906667985
C   -2.45643712022637     -1.41831290883911     -0.00846337726810
C   1.22670532178455     -3.54347386990643     -0.00780316414624
C   -2.45512491866593      2.83421703463423     -0.00818572995999
C   4.91452486062398     -1.42718653794377      0.00136387641845
C   1.22142509354026      4.97013443726031      0.00150231067809
C   4.89300870916237      2.82518837202648     -0.00039219795739
C   -1.22669652864725     -3.54347062507680     -0.00753595973677
C   -3.68181849668397      0.70932533873199     -0.00807686886569
C   3.69314758099218     -3.54280096939050      0.00148176697923
C   -1.22143177215231      4.97012866986289      0.00168580605083
C   6.13477145276790      0.68054831910577     -0.00083909176631
C   3.65678936045204      4.97295361556775     -0.00065042889723
C   -2.45512642789169     -2.83421472106065      0.00758666850712
C   -3.68181869921921     -0.70932533146830      0.00810055625144
C   4.89301309775526     -2.82519973363176      0.00021895393805
C   -0.00000059327114      5.65044773803267      0.00045449734393
C   6.13477559217374     -0.68055448207492      0.00042622874941
C   2.47813196269732      5.65357712333155      0.00063835075260
C   1.22142288457925     -4.97012668293268     -0.00129718634452
C   -3.69316190412301      3.54279732619245     -0.00139355922051
C   -1.22142804110313     -4.97011793159564     -0.00140994817719
C   -4.91452132810043      1.42717581899491     -0.00153192130862
C   3.65678749952045     -4.97295485423912      0.00080007163680
C   -2.47813805026426      5.65357479452875      0.00092287576113
C   -3.69314125872231     -3.54278984697859      0.00136564082345
C   -4.91451200321153     -1.42718062802730      0.00139857359209
C   -0.00000552908399     -5.65043791501335      0.00005899322272
C   -4.89302000425900      2.82518897091939     -0.00040227981744
C   2.47812647313991     -5.65357317188818     -0.00029052915548
C   -3.65679823041642      4.97295655404175     -0.00047374852278
C   -4.89299899901461     -2.82519139505969      0.00006491824035
C   -2.47812801824129     -5.65356579800621     -0.00056571680280
C   -6.13477002348955      0.68054913825639     -0.00086464346868
C   -3.65678835334731     -4.97294365097028      0.00058578382008
C   -6.13476456307132     -0.68055354348201      0.00040575295444
H   5.83528897565761      3.36927626695423      0.00396712770529
H   7.07385965258860      1.22821762089947     -0.00037744837300
H   4.60066374401555      5.51238117445323     -0.00014522814529
H   5.83528386714679     -3.36930568472863     -0.00423551337640
H   -0.00001167146422      6.73853104613662     -0.00389474766392
H   7.07386165167227     -1.22822657074368     -0.00008250934481
H   2.47331421164041      6.74068466339473      0.00017162982210
H   4.60066897122302     -5.51237575717576      0.00039007446835
H   -2.47331820069565      6.74068209160650      0.00047297644710
H   -0.00000978838621     -6.73852780445195      0.00458867820736
H   -5.83530143450167      3.36927132229595      0.00410314985360
H   2.47330840367253     -6.74068500242887      0.00027980126949
H   -4.60067436136587      5.51237839860371      0.00002010017831
H   -5.83527902699321     -3.36928859177951     -0.00451481925734
H   -2.47329986759855     -6.74067870613986     -0.00016951527498
H   -7.07385728692578      1.22822084484047     -0.00046143985387
H   -4.60067330624313     -5.51236229778631      0.00021776644566
H   -7.07385645456741     -1.22822025997701     -0.00017736581114

    units angstrom      # Angstroms are the default
    no_reorient         # Geometry fixed, default
    symmetry c1         # C1 symmetry, default
}

set {
    scf_type DF         # Density fitting, faster than exact integrals
    freeze_core True    # Freeze core electrons
    basis jun-cc-pVDZ   # Jun-cc-pVDZ basis set, recommended for sSAPT0 in https://doi.org/10.1063/1.4867135
}

energy('ssapt0')        # Compute sSAPT0 energy, includes also SAPT0
--------------------------------------------------------------------------

  //              Dimer HF             //
    Molecular point group: c1
  Charge       = 1
  Multiplicity = 1
  Basis Set: JUN-CC-PVDZ
    Blend: JUN-CC-PVDZ
  Basis Set: (JUN-CC-PVDZ AUX)
    Blend: JUN-CC-PVDZ-JKFIT
  @DF-RHF Final Energy: -2359.20216147033489
    Total Energy =                      -2359.2021614703353407
 Dipole X            :          0.0035462            0.0006313            0.0041775
 Dipole Y            :         -1.5349084            1.8864948            0.3515865
 Dipole Z            :        -21.6127219           30.1776009            8.5648790
 Magnitude           :                                                    8.5720933
  //            Monomer A HF           //
    Molecular point group: c1
  Multiplicity = 1
  Basis Set: JUN-CC-PVDZ
    Blend: JUN-CC-PVDZ
  Basis Set: (JUN-CC-PVDZ AUX)
    Blend: JUN-CC-PVDZ-JKFIT
  @DF-RHF Final Energy:  -303.29747546298677
    Total Energy =                       -303.2974754629867675
  //            Monomer B HF           //
    Molecular point group: c1

    Geometry (in Angstrom), charge = 0, multiplicity = 1:

       Center              X                  Y                   Z               Mass
    ------------   -----------------  -----------------  -----------------  -----------------
      Gh(C)           0.680066520158    -1.215933861162     5.070319767769    12.000000000000
      Gh(C)          -0.680504479842    -1.215549861162     5.068291767769    12.000000000000
      Gh(N)          -1.085635479842     0.102774138838     5.067293767769    14.003074004430
      Gh(C)           0.000107520158     0.884175138838     5.064017767769    12.000000000000
      Gh(C)          -2.477365479842     0.570753138838     5.017887767769    12.000000000000
      Gh(N)           1.085221520158     0.102774138838     5.067293767769    14.003074004430
      Gh(H)           1.385145520158    -2.033372861162     5.078147767769     1.007825032230
      Gh(H)          -1.385302479842    -2.033218861162     5.068481767769     1.007825032230
      Gh(H)          -0.000009479842     1.965264138838     5.062270767769     1.007825032230
      Gh(C)           2.478116520158     0.567872138838     5.084185767769    12.000000000000
      Gh(H)           2.490591520158     1.658125138838     5.056840767769     1.007825032230
      Gh(H)           2.967027520158     0.220696138838     5.997631767769     1.007825032230
      Gh(H)           3.001427520158     0.176400138838     4.208702767769     1.007825032230
      Gh(H)          -2.857359479842     0.490794138838     3.995816767769     1.007825032230
      Gh(H)          -3.082679479842    -0.042310861162     5.687971767769     1.007825032230
      Gh(H)          -2.518128479842     1.610701138838     5.344871767769     1.007825032230
         C            1.225311895423     0.707533799757    -0.731584604947    12.000000000000
         C            1.225323856051    -0.707543383733    -0.743915414518    12.000000000000
         C           -0.000006153932     1.414961424928    -0.744449038038    12.000000000000
         C            2.456448753949     1.418323398016    -0.728697747547    12.000000000000
         C            0.000010827279    -1.414980987797    -0.734249480714    12.000000000000
         C           -1.225300948908     0.707540884822    -0.729333084625    12.000000000000
         C            2.456437755320    -1.418327793043    -0.746160571375    12.000000000000
         C           -0.000001332978     2.836796542119    -0.746852588172    12.000000000000
         C            3.681826697470     0.709313466839    -0.745811781577    12.000000000000
         C            2.455120048865     2.834219172327    -0.745914338537    12.000000000000
         C            3.681821105219    -0.709338328591    -0.729739297558    12.000000000000
         C           -1.225313598688    -0.707532004706    -0.742842653091    12.000000000000
         C            1.226699581202     3.543464994832    -0.729555265628    12.000000000000
         C            0.000004784858    -2.836786628398    -0.729401313092    12.000000000000
         C           -2.456436032848     1.418312429123    -0.729297688779    12.000000000000
         C            2.455123417779    -2.834234517751    -0.729891205926    12.000000000000
         C           -1.226714364589     3.543464574588    -0.729451932408    12.000000000000
         C            4.914517295202     1.427168383327    -0.739331098547    12.000000000000
         C            3.693150191476     3.542790803383    -0.739281298911    12.000000000000
         C           -2.456437600068    -1.418317770001    -0.746185609499    12.000000000000
         C            1.226704841943    -3.543478731069    -0.745525396377    12.000000000000
         C           -2.455125398508     2.834212173472    -0.745907962191    12.000000000000
         C            4.914524380782    -1.427191399106    -0.736358355813    12.000000000000
         C            1.221424613699     4.970129576098    -0.736219921553    12.000000000000
         C            4.893008229321     2.825183510864    -0.738114430188    12.000000000000
         C           -1.226697008489    -3.543475486239    -0.745258191968    12.000000000000
         C           -3.681818976526     0.709320477570    -0.745799101097    12.000000000000
         C            3.693147101150    -3.542805830553    -0.736240465252    12.000000000000
         C           -1.221432251994     4.970123808701    -0.736036426180    12.000000000000
         C            6.134770972926     0.680543457943    -0.738561323997    12.000000000000
         C            3.656788880610     4.972948754405    -0.738372661128    12.000000000000
         C           -2.455126907733    -2.834219582223    -0.730135563724    12.000000000000
         C           -3.681819179061    -0.709330192631    -0.729621675980    12.000000000000
         C            4.893012617914    -2.825204594794    -0.737503278293    12.000000000000
         C           -0.000001073113     5.650442876870    -0.737267734887    12.000000000000
         C            6.134775112332    -0.680559343237    -0.737296003482    12.000000000000
         C            2.478131482856     5.653572262169    -0.737083881478    12.000000000000
         C            1.221422404738    -4.970131544095    -0.739019418576    12.000000000000
         C           -3.693162383965     3.542792465030    -0.739115791452    12.000000000000
         C           -1.221428520945    -4.970122792758    -0.739132180408    12.000000000000
         C           -4.914521807942     1.427170957833    -0.739254153540    12.000000000000
         C            3.656787019679    -4.972959715401    -0.736922160594    12.000000000000
         C           -2.478138530106     5.653569933366    -0.736799356470    12.000000000000
         C           -3.693141738564    -3.542794708141    -0.736356591408    12.000000000000
         C           -4.914512483053    -1.427185489190    -0.736323658639    12.000000000000
         C           -0.000006008926    -5.650442776176    -0.737663239008    12.000000000000
         C           -4.893020484101     2.825184109757    -0.738124512049    12.000000000000
         C            2.478125993298    -5.653578033051    -0.738012761387    12.000000000000
         C           -3.656798710258     4.972951692879    -0.738195980754    12.000000000000
         C           -4.892999478856    -2.825196256222    -0.737657313991    12.000000000000
         C           -2.478128498083    -5.653570659169    -0.738287949034    12.000000000000
         C           -6.134770503331     0.680544277094    -0.738586875700    12.000000000000
         C           -3.656788833189    -4.972948512133    -0.737136448411    12.000000000000
         C           -6.134765042913    -0.680558404644    -0.737316479277    12.000000000000
         H            5.835288495816     3.369271405792    -0.733755104526     1.007825032230
         H            7.073859172747     1.228212759737    -0.738099680604     1.007825032230
         H            4.600663264174     5.512376313291    -0.737867460376     1.007825032230
         H            5.835283387305    -3.369310545891    -0.741957745607     1.007825032230
         H           -0.000012151306     6.738526184974    -0.741616979895     1.007825032230
         H            7.073861171831    -1.228231431906    -0.737804741576     1.007825032230
         H            2.473313731799     6.740679802232    -0.737550602409     1.007825032230
         H            4.600668491381    -5.512380618338    -0.737332157763     1.007825032230
         H           -2.473318680537     6.740677230444    -0.737249255784     1.007825032230
         H           -0.000010268228    -6.738532665614    -0.733133554024     1.007825032230
         H           -5.835301914343     3.369266461134    -0.733619082377     1.007825032230
         H            2.473307923831    -6.740689863591    -0.737442430962     1.007825032230
         H           -4.600674841208     5.512373537441    -0.737702132053     1.007825032230
         H           -5.835279506835    -3.369293452942    -0.742237051488     1.007825032230
         H           -2.473300347440    -6.740683567302    -0.737891747506     1.007825032230
         H           -7.073857766768     1.228215983678    -0.738183672085     1.007825032230
         H           -4.600673786085    -5.512367158949    -0.737504465785     1.007825032230
         H           -7.073856934409    -1.228225121139    -0.737899598042     1.007825032230

  Charge       = 0
  Multiplicity = 1
  Basis Set: JUN-CC-PVDZ
    Blend: JUN-CC-PVDZ
  Basis Set: (JUN-CC-PVDZ AUX)
    Blend: JUN-CC-PVDZ-JKFIT

    Orbital Energies [Eh]
    ---------------------

    Doubly Occupied:

       1A    -11.260592     2A    -11.260150     3A    -11.260148
       4A    -11.259441     5A    -11.259440     6A    -11.259271
       7A    -11.259062     8A    -11.258985     9A    -11.258984
      10A    -11.258660    11A    -11.258657    12A    -11.258590
      13A    -11.258528    14A    -11.258523    15A    -11.258519
      16A    -11.258491    17A    -11.258485    18A    -11.258469
      19A    -11.258456    20A    -11.258450    21A    -11.258444
      22A    -11.258344    23A    -11.258340    24A    -11.258038
      25A    -11.257381    26A    -11.257319    27A    -11.257319
      28A    -11.257183    29A    -11.257183    30A    -11.257098
      31A    -11.256476    32A    -11.256405    33A    -11.256404
      34A    -11.256295    35A    -11.256294    36A    -11.256247
      37A    -11.252339    38A    -11.252336    39A    -11.252336
      40A    -11.252334    41A    -11.252332    42A    -11.252330
      43A    -11.251460    44A    -11.251457    45A    -11.251456
      46A    -11.251451    47A    -11.251449    48A    -11.251445
      49A    -11.250900    50A    -11.250898    51A    -11.250897
      52A    -11.250895    53A    -11.250893    54A    -11.250891
      55A     -1.244161    56A     -1.219904    57A     -1.219901
      58A     -1.189623    59A     -1.189616    60A     -1.181044
      61A     -1.157634    62A     -1.149057    63A     -1.135589
      64A     -1.135580    65A     -1.113267    66A     -1.113262
      67A     -1.082517    68A     -1.082510    69A     -1.078694
      70A     -1.066053    71A     -1.066048    72A     -1.039475
      73A     -1.024366    74A     -1.021866    75A     -1.021820
      76A     -1.017798    77A     -1.012865    78A     -0.987107
      79A     -0.987060    80A     -0.961955    81A     -0.961905
      82A     -0.894369    83A     -0.894342    84A     -0.888032
      85A     -0.886282    86A     -0.886226    87A     -0.881482
      88A     -0.881435    89A     -0.861976    90A     -0.837474
      91A     -0.818286    92A     -0.816707    93A     -0.812222
      94A     -0.812214    95A     -0.794762    96A     -0.794751
      97A     -0.746712    98A     -0.744947    99A     -0.733508
     100A     -0.733501   101A     -0.732256   102A     -0.732233
     103A     -0.716584   104A     -0.699051   105A     -0.699037
     106A     -0.693668   107A     -0.693650   108A     -0.661305
     109A     -0.653210   110A     -0.651250   111A     -0.650326
     112A     -0.650321   113A     -0.639433   114A     -0.639428
     115A     -0.629799   116A     -0.627608   117A     -0.627593
     118A     -0.606461   119A     -0.605868   120A     -0.601746
     121A     -0.599815   122A     -0.599780   123A     -0.593712
     124A     -0.591318   125A     -0.591305   126A     -0.585342
     127A     -0.576417   128A     -0.576395   129A     -0.567392
     130A     -0.567378   131A     -0.566046   132A     -0.566029
     133A     -0.558817   134A     -0.554925   135A     -0.554919
     136A     -0.538666   137A     -0.538664   138A     -0.538252
     139A     -0.538239   140A     -0.529791   141A     -0.528180
     142A     -0.522950   143A     -0.522940   144A     -0.500575
     145A     -0.495661   146A     -0.493309   147A     -0.487886
     148A     -0.485151   149A     -0.481836   150A     -0.481828
     151A     -0.470384   152A     -0.470373   153A     -0.451115
     154A     -0.451039   155A     -0.439127   156A     -0.439119
     157A     -0.404806   158A     -0.404784   159A     -0.403427
     160A     -0.375481   161A     -0.375477   162A     -0.349182
     163A     -0.337641   164A     -0.336604   165A     -0.336558
     166A     -0.311156   167A     -0.298152   168A     -0.284404
     169A     -0.284354   170A     -0.224976   171A     -0.224913

  @DF-RHF Final Energy: -2055.89255717673768

   => Energetics <=

    Nuclear Repulsion Energy =           6452.5568002797772351
    One-Electron Energy =              -15636.4584834908655466
    Two-Electron Energy =                7128.0091260343506292
    Total Energy =                      -2055.8925571767376823
 Dipole X            :          0.0000078           -0.0000085           -0.0000007
 Dipole Y            :          0.0029098           -0.0028843            0.0000255
 Dipole Z            :        476.7715933         -476.7812406           -0.0096473
 Magnitude           :                                                    0.0096474

    SAPT Results
  --------------------------------------------------------------------------------------------------------
    Electrostatics                 -8.93795250 [mEh]      -5.60864987 [kcal/mol]     -23.46659106 [kJ/mol]
      Elst10,r                     -8.93795250 [mEh]      -5.60864987 [kcal/mol]     -23.46659106 [kJ/mol]

    Exchange                        0.00268153 [mEh]       0.00168268 [kcal/mol]       0.00704035 [kJ/mol]
      Exch10                        0.00268153 [mEh]       0.00168268 [kcal/mol]       0.00704035 [kJ/mol]
      Exch10(S^2)                   0.00268153 [mEh]       0.00168268 [kcal/mol]       0.00704034 [kJ/mol]

    Induction                      -3.19355963 [mEh]      -2.00398893 [kcal/mol]      -8.38468966 [kJ/mol]
      Ind20,r                      -3.12112622 [mEh]      -1.95853627 [kcal/mol]      -8.19451577 [kJ/mol]
      Exch-Ind20,r                  0.00255191 [mEh]       0.00160135 [kcal/mol]       0.00670004 [kJ/mol]
      delta HF,r (2)               -0.07498532 [mEh]      -0.04705400 [kcal/mol]      -0.19687393 [kJ/mol]

    Dispersion                     -2.99512770 [mEh]      -1.87947101 [kcal/mol]      -7.86370669 [kJ/mol]
      Disp20                       -2.99727031 [mEh]      -1.88081552 [kcal/mol]      -7.86933212 [kJ/mol]
      Exch-Disp20                   0.00214261 [mEh]       0.00134451 [kcal/mol]       0.00562543 [kJ/mol]
      Disp20 (SS)                  -1.49863516 [mEh]      -0.94040776 [kcal/mol]      -3.93466606 [kJ/mol]
      Disp20 (OS)                  -1.49863516 [mEh]      -0.94040776 [kcal/mol]      -3.93466606 [kJ/mol]
      Exch-Disp20 (SS)              0.00156101 [mEh]       0.00097955 [kcal/mol]       0.00409843 [kJ/mol]
      Exch-Disp20 (OS)              0.00058160 [mEh]       0.00036496 [kcal/mol]       0.00152700 [kJ/mol]

  Total HF                        -12.12883061 [mEh]      -7.61095611 [kcal/mol]     -31.84424038 [kJ/mol]
  Total SAPT0                     -15.12395831 [mEh]      -9.49042712 [kcal/mol]     -39.70794708 [kJ/mol]

  Special recipe for scaled SAPT0 (see Manual):
    Electrostatics sSAPT0          -8.93795250 [mEh]      -5.60864987 [kcal/mol]     -23.46659106 [kJ/mol]
    Exchange sSAPT0                 0.00268153 [mEh]       0.00168268 [kcal/mol]       0.00704035 [kJ/mol]
    Induction sSAPT0               -3.19355963 [mEh]      -2.00398893 [kcal/mol]      -8.38468966 [kJ/mol]
    Dispersion sSAPT0              -2.99512770 [mEh]      -1.87947101 [kcal/mol]      -7.86370669 [kJ/mol]
  Total sSAPT0                    -15.12395831 [mEh]      -9.49042712 [kcal/mol]     -39.70794708 [kJ/mol]
  --------------------------------------------------------------------------------------------------------

*** Psi4 exiting successfully. Buy a developer a beer!
