                               Psi4 1.9 release

  ==> Input File <==

--------------------------------------------------------------------------
memory 64 GB # how much memory is available ! Depends on the nodes/cores !

molecule dimer {
# monomer A
+1 1    # Charge and multiplicity
C  0.680067 -1.215929 7.408042
C -0.680504 -1.215545 7.406014
N -1.085635  0.102779 7.405016
C  0.000108  0.884180 7.401740
C -2.477365  0.570758 7.355610
N  1.085222  0.102779 7.405016
H  1.385146 -2.033368 7.415870
H -1.385302 -2.033214 7.406204
H -0.000009  1.965269 7.399993
C  2.478117  0.567877 7.421908
H  2.490592  1.658130 7.394563
H  2.967028  0.220701 8.335354
H  3.001428  0.176405 6.546425
H -2.857359  0.490799 6.333539
H -3.082679 -0.042306 8.025694
H -2.518128  1.610706 7.682594
--
# monomer B
0 1     # Charge and multiplicity
C   -3.66844126402057      7.80375217008252      0.00190004133558
C   -4.84759871934653      7.13124183134024     -0.00046653359696
C   -4.89495929917518      5.69633040353158     -0.00103944469517
C   -3.65374067877320      4.98073034095895      0.00662099703436
C   -2.40942512149445      7.11398103667468      0.00209438359570
C   -2.42547734410473      5.68112195090346     -0.00491050527438
C   -1.19474401643570      7.78614419430947      0.00356656413763
C   0.03795902893699      7.09942164575698      0.00139585983271
C   0.03033258741920      5.66948955970466     -0.00408752508301
C   -1.20098450790502      4.96927034791531      0.00488220885047
C   1.27795782581485      7.77285944319479      0.00277170839332
C   2.48535808472416      7.08769688523756      0.00049722048857
C   2.48612868491717      5.65477081024076     -0.00644052849921
C   1.25408291964399      4.95607811366431      0.00518741308898
C   3.75171459140595      7.76391215098033      0.00062407186893
C   4.92356605618520      7.07878077698995     -0.00143240883900
C   4.95560727132542      5.64344746336949     -0.00159282164606
C   3.70680153420475      4.94121020833308      0.00349873852374
H   -3.65852113775815      8.89082741913536      0.00358502958574
H   -1.18921332975660      8.87412108735996      0.00753844057883
H   1.28429423888630      8.86083343548850      0.00693053253426
H   3.75354208679975      8.85103527897216      0.00214659618464
H   5.86995870320703      7.61379483465560     -0.00235777588134
H   -5.78823170750226      7.67630221293400     -0.00202638095293
C   -6.09197395869619      4.99326001364347     -0.00291168518608
C   -6.12866148031747      3.58258016879823     -0.00171050815740
C   -3.66457974004527      3.56418217974434     -0.00463560277484
C   -4.89429820469869      2.86108077590057      0.00453338221034
C   -2.43733499489796      2.84761165708481      0.00719617576166
C   -1.20922785759670      3.54788693497833     -0.00648285103018
C   1.24714157216223      3.53468075142962     -0.00729145743546
C   0.01517603956900      2.83311183930540      0.00439272578912
C   2.46764517244071      2.82128997725533      0.00449278391269
C   3.70254947457969      3.52466015442405     -0.00899517692985
C   6.14498038638375      4.92757236613191     -0.00282626685777
C   6.16658835886151      3.51658447594213     -0.00065971342101
C   4.92460995845939      2.80840792535402      0.00587903281610
H   7.08990550964105      5.46688776622306     -0.00658814770723
H   -7.03104175110130      5.54268795285765     -0.00714490013730
C   -7.33969804112295      2.85841153457957     -0.00333767559888
C   -7.36488195805880      1.47032337158330     -0.00157213747140
C   -4.90350460894690      1.44442681216000     -0.00628840166334
C   -6.13225715261081      0.73993935705394      0.00600164231964
C   -3.67687480051673      0.72669714267312      0.00433931473643
C   -2.44565658606518      1.42964113326212     -0.00597039546461
C   -1.22360068130162      0.71532450163492      0.00545886906656
C   0.00763786931376      1.41738314923765      0.00392452278437
C   1.23121980774686      0.70211669058719     -0.01490206287210
C   2.46082110053113      1.40329203612573      0.00460244601878
C   3.68443025419614      0.68719842821222      0.00377365974158
C   4.91870890153864      1.39173456118907     -0.00862816189375
C   7.36980207796101      2.77948220318441     -0.00242013321349
C   7.38016266612146      1.39121750785509     -0.00087345036788
C   6.13979953912259      0.67411862320065      0.00545489144369
H   -8.27919079934664      3.40711804112415     -0.00763522772059
H   8.31511347147953      3.31811809662368     -0.00663070901292
C   -8.59175593758115      0.72483255304480     -0.00123170985383
C   -8.59902460370342     -0.63263980622873      0.00089141472904
C   -6.13981313911873     -0.67413663715361     -0.00609792660607
C   -7.38018411213749     -1.39126618958160      0.00131813493501
C   -4.91868448025621     -1.39175501803000      0.00624257154343
C   -3.68443829568458     -0.68723731573599     -0.00478966852105
C   -2.46081704024768     -1.40334517882457      0.00575341766833
C   -1.23116201232071     -0.70217386488055     -0.00636696112346
C   -0.00756962538737     -1.41741884941102      0.00108956317991
C   1.22364771588843     -0.71527537726392      0.01109518512883
C   2.44567064933149     -1.42964328900682     -0.00065482763106
C   3.67686670284649     -0.72670743155550     -0.00479541202602
C   6.13224884641929     -0.73997883984993     -0.00632338623858
C   4.90351914550401     -1.44445752054090      0.00751768830159
C   8.59901484869081      0.63260386666793     -0.00101133422380
C   8.59174548810050     -0.72485086719319      0.00072504603735
C   7.36486276438985     -1.47033266560598      0.00049486934466
H   -9.52830597181814      1.27684744919284     -0.00270163681798
H   9.54141097460619      1.17457248844457     -0.00206336648518
C   -7.36983790976868     -2.77954514593389      0.00312634335708
C   -4.92459910905015     -2.80843725734101     -0.00460528907921
C   -6.16662249566744     -3.51665219282533      0.00169655107992
C   -3.70251035970491     -3.52468154912026      0.00571878010666
C   -2.46764698511392     -2.82132596280400     -0.00632585824990
C   -0.01513347410770     -2.83314164539971     -0.00604426974092
C   -1.24712184122656     -3.53473217556300      0.00551968366725
C   1.20924506964357     -3.54791467864352      0.00805871345849
C   2.43733602215464     -2.84764173817541     -0.00608104485234
C   4.89430234377080     -2.86112296828604     -0.00526030478103
C   3.66461525504104     -3.56421984553201      0.00761911515957
C   6.12863901474565     -3.58258405771778      0.00096495711699
C   7.33967266469532     -2.85841330737039      0.00248018319869
H   -9.54144911125902     -1.17456346666430      0.00226083090216
H   9.52826186807155     -1.27691907390448      0.00197485379837
H   -8.31516504384864     -3.31814985321231      0.00729857188773
H   8.27915514249207     -3.40714078989363      0.00681973918158
C   -6.14499418870218     -4.92764727278338      0.00302254913999
C   -3.70678334799751     -4.94126171411716     -0.00679841894792
C   -4.95559005800169     -5.64349397349412      0.00116871569699
C   -2.48612132622665     -5.65478557440947      0.00614125209662
C   -1.25405833548005     -4.95612205000132     -0.00503435388927
C   1.20101257386816     -4.96928038819302     -0.00385322963129
C   -0.03033667441341     -5.66952030313900      0.00398997003238
C   3.65375010132847     -4.98074377541453     -0.00309522988330
C   2.42549269587528     -5.68117463552727      0.00628170066869
C   6.09196561781097     -4.99325796338655      0.00325918379042
C   4.89497644461045     -5.69634842095790      0.00202298796027
H   -7.08989238804069     -5.46699984223871      0.00742531082125
H   7.03105520920009     -5.54265853633254      0.00683896355417
C   -4.92354532219813     -7.07882109967734      0.00061394679214
C   -2.48534208823777     -7.08772807792913     -0.00189594564379
C   -3.75168589177895     -7.76394715763627     -0.00170126671874
C   -0.03794895698805     -7.09946487446944     -0.00168022049625
C   -1.27795610040136     -7.77290438466689     -0.00366491325785
C   2.40944432072629     -7.11402201200282     -0.00081701968533
C   1.19474993715296     -7.78618536556242     -0.00296931056689
C   4.84762105249800     -7.13126211057943      0.00168979497423
C   3.66847160587561     -7.80378799294376     -0.00065863938960
H   -5.86994035041618     -7.61383059804164      0.00215798365757
H   5.78824962538815     -7.67633218931421      0.00281691445618
H   -3.75352693944918     -8.85107156923607     -0.00353718114765
H   -1.28430440589466     -8.86087539249706     -0.00809229711623
H   1.18922157469537     -8.87416062058945     -0.00706194725726
H   3.65854661482387     -8.89086063405326     -0.00231318081200

    units angstrom      # Angstroms are the default
    no_reorient         # Geometry fixed, default
    symmetry c1         # C1 symmetry, default
}

set {
    scf_type DF         # Density fitting, faster than exact integrals
    freeze_core True    # Freeze core electrons
    basis jun-cc-pVDZ   # Jun-cc-pVDZ basis set, recommended for sSAPT0 in https://doi.org/10.1063/1.4867135
}

energy('ssapt0')        # Compute sSAPT0 energy, includes also SAPT0
--------------------------------------------------------------------------

  //              Dimer HF             //
    Molecular point group: c1
  Charge       = 1
  Multiplicity = 1
  Basis Set: JUN-CC-PVDZ
    Blend: JUN-CC-PVDZ
  Basis Set: (JUN-CC-PVDZ AUX)
    Blend: JUN-CC-PVDZ-JKFIT
  @DF-RHF Final Energy: -3953.64460141310747
    Total Energy =                      -3953.6446014131070115
 Dipole X            :          0.0015887            0.0004804            0.0020691
 Dipole Y            :         -1.5310177            1.8866171            0.3555994
 Dipole Z            :        -32.9231816           44.8851214           11.9619397
 Magnitude           :                                                   11.9672243
  //            Monomer A HF           //
    Molecular point group: c1
  Multiplicity = 1
  Basis Set: JUN-CC-PVDZ
    Blend: JUN-CC-PVDZ
  Basis Set: (JUN-CC-PVDZ AUX)
    Blend: JUN-CC-PVDZ-JKFIT
  @DF-RHF Final Energy:  -303.29722275243961
    Total Energy =                       -303.2972227524396089
  //            Monomer B HF           //
    Molecular point group: c1

    Geometry (in Angstrom), charge = 0, multiplicity = 1:

       Center              X                  Y                   Z               Mass
    ------------   -----------------  -----------------  -----------------  -----------------
      Gh(C)           0.680062820275    -1.215917226251     6.843846049624    12.000000000000
      Gh(C)          -0.680508179725    -1.215533226251     6.841818049624    12.000000000000
      Gh(N)          -1.085639179725     0.102790773749     6.840820049624    14.003074004430
      Gh(C)           0.000103820275     0.884191773749     6.837544049624    12.000000000000
      Gh(C)          -2.477369179725     0.570769773749     6.791414049624    12.000000000000
      Gh(N)           1.085217820275     0.102790773749     6.840820049624    14.003074004430
      Gh(H)           1.385141820275    -2.033356226251     6.851674049624     1.007825032230
      Gh(H)          -1.385306179725    -2.033202226251     6.842008049624     1.007825032230
      Gh(H)          -0.000013179725     1.965280773749     6.835797049624     1.007825032230
      Gh(C)           2.478112820275     0.567888773749     6.857712049624    12.000000000000
      Gh(H)           2.490587820275     1.658141773750     6.830367049624     1.007825032230
      Gh(H)           2.967023820275     0.220712773749     7.771158049624     1.007825032230
      Gh(H)           3.001423820275     0.176416773749     5.982229049624     1.007825032230
      Gh(H)          -2.857363179725     0.490810773749     5.769343049624     1.007825032230
      Gh(H)          -3.082683179725    -0.042294226251     7.461498049624     1.007825032230
      Gh(H)          -2.518132179725     1.610717773749     7.118398049624     1.007825032230
         C           -3.668445443746     7.803763943832    -0.562295909040    12.000000000000
         C           -4.847602899072     7.131253605090    -0.564662483973    12.000000000000
         C           -4.894963478901     5.696342177281    -0.565235395071    12.000000000000
         C           -3.653744858499     4.980742114708    -0.557574953341    12.000000000000
         C           -2.409429301220     7.113992810424    -0.562101566780    12.000000000000
         C           -2.425481523830     5.681133724653    -0.569106455650    12.000000000000
         C           -1.194748196161     7.786155968059    -0.560629386238    12.000000000000
         C            0.037954849212     7.099433419506    -0.562800090543    12.000000000000
         C            0.030328407694     5.669501333454    -0.568283475459    12.000000000000
         C           -1.200988687630     4.969282121665    -0.559313741525    12.000000000000
         C            1.277953646089     7.772871216944    -0.561424241982    12.000000000000
         C            2.485353904999     7.087708658987    -0.563698729887    12.000000000000
         C            2.486124505192     5.654782583990    -0.570636478875    12.000000000000
         C            1.254078739919     4.956089887414    -0.559008537287    12.000000000000
         C            3.751710411681     7.763923924730    -0.563571878507    12.000000000000
         C            4.923561876460     7.078792550739    -0.565628359215    12.000000000000
         C            4.955603091600     5.643459237119    -0.565788772022    12.000000000000
         C            3.706797354479     4.941221982083    -0.560697211852    12.000000000000
         H           -3.658525317484     8.890839192885    -0.560610920790     1.007825032230
         H           -1.189217509482     8.874132861109    -0.556657509797     1.007825032230
         H            1.284290059161     8.860845209238    -0.557265417841     1.007825032230
         H            3.753537907074     8.851047052722    -0.562049354191     1.007825032230
         H            5.869954523482     7.613806608405    -0.566553726257     1.007825032230
         H           -5.788235887228     7.676313986684    -0.566222331329     1.007825032230
         C           -6.091978138422     4.993271787393    -0.567107635562    12.000000000000
         C           -6.128665660043     3.582591942548    -0.565906458533    12.000000000000
         C           -3.664583919771     3.564193953494    -0.568831553150    12.000000000000
         C           -4.894302384424     2.861092549650    -0.559662568165    12.000000000000
         C           -2.437339174623     2.847623430834    -0.556999774614    12.000000000000
         C           -1.209232037322     3.547898708728    -0.570678801406    12.000000000000
         C            1.247137392437     3.534692525179    -0.571487407811    12.000000000000
         C            0.015171859844     2.833123613055    -0.559803224586    12.000000000000
         C            2.467640992715     2.821301751005    -0.559703166463    12.000000000000
         C            3.702545294854     3.524671928174    -0.573191127305    12.000000000000
         C            6.144976206658     4.927584139881    -0.567022217233    12.000000000000
         C            6.166584179136     3.516596249692    -0.564855663797    12.000000000000
         C            4.924605778734     2.808419699104    -0.558316917559    12.000000000000
         H            7.089901329916     5.466899539973    -0.570784098083     1.007825032230
         H           -7.031045930827     5.542699726607    -0.571340850513     1.007825032230
         C           -7.339702220848     2.858423308329    -0.567533625974    12.000000000000
         C           -7.364886137784     1.470335145333    -0.565768087847    12.000000000000
         C           -4.903508788672     1.444438585909    -0.570484352039    12.000000000000
         C           -6.132261332336     0.739951130803    -0.558194308056    12.000000000000
         C           -3.676878980242     0.726708916423    -0.559856635639    12.000000000000
         C           -2.445660765791     1.429652907012    -0.570166345840    12.000000000000
         C           -1.223604861027     0.715336275384    -0.558737081309    12.000000000000
         C            0.007633689588     1.417394922987    -0.560271427591    12.000000000000
         C            1.231215628021     0.702128464337    -0.579098013248    12.000000000000
         C            2.460816920806     1.403303809875    -0.559593504357    12.000000000000
         C            3.684426074471     0.687210201962    -0.560422290634    12.000000000000
         C            4.918704721813     1.391746334939    -0.572824112269    12.000000000000
         C            7.369797898236     2.779493976934    -0.566616083589    12.000000000000
         C            7.380158486396     1.391229281605    -0.565069400743    12.000000000000
         C            6.139795359397     0.674130396950    -0.558741058932    12.000000000000
         H           -8.279194979072     3.407129814874    -0.571831178096     1.007825032230
         H            8.315109291754     3.318129870373    -0.570826659389     1.007825032230
         C           -8.591760117307     0.724844326794    -0.565427660229    12.000000000000
         C           -8.599028783429    -0.632628032479    -0.563304535647    12.000000000000
         C           -6.139817318844    -0.674124863404    -0.570293876982    12.000000000000
         C           -7.380188291863    -1.391254415832    -0.562877815441    12.000000000000
         C           -4.918688659982    -1.391743244281    -0.557953378832    12.000000000000
         C           -3.684442475410    -0.687225541986    -0.568985618897    12.000000000000
         C           -2.460821219973    -1.403333405075    -0.558442532707    12.000000000000
         C           -1.231166192046    -0.702162091131    -0.570562911499    12.000000000000
         C           -0.007573805113    -1.417407075662    -0.563106387196    12.000000000000
         C            1.223643536163    -0.715263603514    -0.553100765247    12.000000000000
         C            2.445666469606    -1.429631515257    -0.564850778007    12.000000000000
         C            3.676862523121    -0.726695657806    -0.568991362402    12.000000000000
         C            6.132244666694    -0.739967066100    -0.570519336614    12.000000000000
         C            4.903514965779    -1.444445746791    -0.556678262074    12.000000000000
         C            8.599010668965     0.632615640417    -0.565207284599    12.000000000000
         C            8.591741308375    -0.724839093444    -0.563470904338    12.000000000000
         C            7.364858584664    -1.470320891856    -0.563701081031    12.000000000000
         H           -9.528310151544     1.276859222942    -0.566897587194     1.007825032230
         H            9.541406794881     1.174584262194    -0.566259316861     1.007825032230
         C           -7.369842089494    -2.779533372184    -0.561069607019    12.000000000000
         C           -4.924603288776    -2.808425483592    -0.568801239455    12.000000000000
         C           -6.166626675393    -3.516640419076    -0.562499399296    12.000000000000
         C           -3.702514539430    -3.524669775371    -0.558477170269    12.000000000000
         C           -2.467651164839    -2.821314189055    -0.570521808625    12.000000000000
         C           -0.015137653833    -2.833129871650    -0.570240220117    12.000000000000
         C           -1.247126020952    -3.534720401814    -0.558676266708    12.000000000000
         C            1.209240889918    -3.547902904894    -0.556137236917    12.000000000000
         C            2.437331842429    -2.847629964426    -0.570276995228    12.000000000000
         C            4.894298164045    -2.861111194537    -0.569456255157    12.000000000000
         C            3.664611075316    -3.564208071783    -0.556576835216    12.000000000000
         C            6.128634835020    -3.582572283968    -0.563230993259    12.000000000000
         C            7.339668484970    -2.858401533621    -0.561715767177    12.000000000000
         H           -9.541453290984    -1.174551692915    -0.561935119473     1.007825032230
         H            9.528257688346    -1.276907300155    -0.562221096577     1.007825032230
         H           -8.315169223574    -3.318138079463    -0.556897378488     1.007825032230
         H            8.279150962767    -3.407129016144    -0.557376211194     1.007825032230
         C           -6.144998368428    -4.927635499034    -0.561173401236    12.000000000000
         C           -3.706787527723    -4.941249940368    -0.570994369324    12.000000000000
         C           -4.955594237727    -5.643482199745    -0.563027234679    12.000000000000
         C           -2.486125505952    -5.654773800660    -0.558054698279    12.000000000000
         C           -1.254062515205    -4.956110276252    -0.569230304265    12.000000000000
         C            1.201008394143    -4.969268614444    -0.568049180007    12.000000000000
         C           -0.030340854139    -5.669508529390    -0.560205980343    12.000000000000
         C            3.653745921603    -4.980732001665    -0.567291180259    12.000000000000
         C            2.425488516150    -5.681162861778    -0.557914249707    12.000000000000
         C            6.091961438086    -4.993246189637    -0.560936766585    12.000000000000
         C            4.894972264885    -5.696336647208    -0.562172962415    12.000000000000
         H           -7.089896567766    -5.466988068489    -0.556770639554     1.007825032230
         H            7.031051029475    -5.542646762583    -0.557356986821     1.007825032230
         C           -4.923549501924    -7.078809325928    -0.563582003583    12.000000000000
         C           -2.485346267963    -7.087716304180    -0.566091896019    12.000000000000
         C           -3.751690071504    -7.763935383887    -0.565897217094    12.000000000000
         C           -0.037953136713    -7.099453100720    -0.565876170872    12.000000000000
         C           -1.277960280127    -7.772892610917    -0.567860863633    12.000000000000
         C            2.409440141001    -7.114010238253    -0.565012970061    12.000000000000
         C            1.194745757428    -7.786173591813    -0.567165260942    12.000000000000
         C            4.847616872773    -7.131250336830    -0.562506155401    12.000000000000
         C            3.668467426150    -7.803776219194    -0.564854589765    12.000000000000
         H           -5.869944530142    -7.613818824292    -0.562037966718     1.007825032230
         H            5.788245445663    -7.676320415565    -0.561379035919     1.007825032230
         H           -3.753531119175    -8.851059795487    -0.567733131523     1.007825032230
         H           -1.284308585620    -8.860863618748    -0.572288247492     1.007825032230
         H            1.189217394970    -8.874148846840    -0.571257897633     1.007825032230
         H            3.658542435098    -8.890848860304    -0.566509131188     1.007825032230

  Charge       = 0
  Multiplicity = 1
  Basis Set: JUN-CC-PVDZ
    Blend: JUN-CC-PVDZ
  Basis Set: (JUN-CC-PVDZ AUX)
    Blend: JUN-CC-PVDZ-JKFIT

    Orbital Energies [Eh]
    ---------------------

    Doubly Occupied:

       1A    -11.264056     2A    -11.263742     3A    -11.263741
       4A    -11.263401     5A    -11.263398     6A    -11.263363
       7A    -11.263206     8A    -11.263179     9A    -11.263175
      10A    -11.263019    11A    -11.262860    12A    -11.262855
      13A    -11.262377    14A    -11.262374    15A    -11.262300
      16A    -11.262298    17A    -11.262248    18A    -11.262213
      19A    -11.262168    20A    -11.262129    21A    -11.262128
      22A    -11.261973    23A    -11.261969    24A    -11.261850
      25A    -11.261835    26A    -11.261821    27A    -11.261817
      28A    -11.261770    29A    -11.261762    30A    -11.261689
      31A    -11.261663    32A    -11.261660    33A    -11.261634
      34A    -11.261633    35A    -11.261612    36A    -11.261565
      37A    -11.261424    38A    -11.261413    39A    -11.261407
      40A    -11.261399    41A    -11.261395    42A    -11.261386
      43A    -11.261382    44A    -11.261368    45A    -11.261363
      46A    -11.261341    47A    -11.261337    48A    -11.261332
      49A    -11.261180    50A    -11.261149    51A    -11.261146
      52A    -11.261067    53A    -11.261065    54A    -11.260995
      55A    -11.260026    56A    -11.260012    57A    -11.260010
      58A    -11.259981    59A    -11.259979    60A    -11.259963
      61A    -11.259403    62A    -11.259378    63A    -11.259376
      64A    -11.259323    65A    -11.259321    66A    -11.259292
      67A    -11.259030    68A    -11.259012    69A    -11.259010
      70A    -11.258983    71A    -11.258981    72A    -11.258969
      73A    -11.254597    74A    -11.254596    75A    -11.254594
      76A    -11.254592    77A    -11.254586    78A    -11.254584
      79A    -11.253749    80A    -11.253748    81A    -11.253745
      82A    -11.253744    83A    -11.253741    84A    -11.253735
      85A    -11.253665    86A    -11.253663    87A    -11.253660
      88A    -11.253659    89A    -11.253656    90A    -11.253651
      91A    -11.253125    92A    -11.253123    93A    -11.253122
      94A    -11.253120    95A    -11.253114    96A    -11.253112
      97A     -1.254153    98A     -1.239155    99A     -1.239155
     100A     -1.220597   101A     -1.220592   102A     -1.215626
     103A     -1.201157   104A     -1.195727   105A     -1.188316
     106A     -1.188314   107A     -1.173876   108A     -1.173873
     109A     -1.155789   110A     -1.155785   111A     -1.152895
     112A     -1.144829   113A     -1.144826   114A     -1.128710
     115A     -1.114869   116A     -1.113271   117A     -1.112655
     118A     -1.112641   119A     -1.111719   120A     -1.088571
     121A     -1.088557   122A     -1.077067   123A     -1.077066
     124A     -1.067766   125A     -1.067737   126A     -1.065138
     127A     -1.046930   128A     -1.046922   129A     -1.040619
     130A     -1.038840   131A     -1.038839   132A     -1.025405
     133A     -1.021578   134A     -1.021528   135A     -1.007301
     136A     -1.006946   137A     -1.003920   138A     -1.000647
     139A     -1.000599   140A     -0.991175   141A     -0.971135
     142A     -0.971086   143A     -0.956000   144A     -0.955945
     145A     -0.905777   146A     -0.905735   147A     -0.905646
     148A     -0.905606   149A     -0.904534   150A     -0.892547
     151A     -0.892488   152A     -0.890531   153A     -0.890474
     154A     -0.889605   155A     -0.872330   156A     -0.869142
     157A     -0.851659   158A     -0.848026   159A     -0.848004
     160A     -0.845763   161A     -0.843166   162A     -0.834695
     163A     -0.834682   164A     -0.828221   165A     -0.828218
     166A     -0.784685   167A     -0.784674   168A     -0.783813
     169A     -0.783786   170A     -0.782431   171A     -0.782411
     172A     -0.782196   173A     -0.767119   174A     -0.760969
     175A     -0.750745   176A     -0.733595   177A     -0.727201
     178A     -0.727188   179A     -0.725227   180A     -0.724668
     181A     -0.724650   182A     -0.718673   183A     -0.713935
     184A     -0.713929   185A     -0.699704   186A     -0.699692
     187A     -0.686306   188A     -0.686069   189A     -0.686066
     190A     -0.682292   191A     -0.682282   192A     -0.678929
     193A     -0.653757   194A     -0.651005   195A     -0.650976
     196A     -0.649982   197A     -0.649966   198A     -0.649677
     199A     -0.641101   200A     -0.641074   201A     -0.640202
     202A     -0.639265   203A     -0.636173   204A     -0.636146
     205A     -0.629273   206A     -0.617658   207A     -0.615410
     208A     -0.615390   209A     -0.608924   210A     -0.608917
     211A     -0.599186   212A     -0.599147   213A     -0.598882
     214A     -0.598756   215A     -0.598730   216A     -0.598211
     217A     -0.595178   218A     -0.595165   219A     -0.594851
     220A     -0.594415   221A     -0.592099   222A     -0.592096
     223A     -0.587571   224A     -0.577883   225A     -0.577873
     226A     -0.575737   227A     -0.575734   228A     -0.573498
     229A     -0.569567   230A     -0.568309   231A     -0.568285
     232A     -0.566888   233A     -0.566878   234A     -0.561003
     235A     -0.558867   236A     -0.558848   237A     -0.558520
     238A     -0.554499   239A     -0.550633   240A     -0.547562
     241A     -0.544343   242A     -0.535038   243A     -0.535002
     244A     -0.533662   245A     -0.533639   246A     -0.528188
     247A     -0.528173   248A     -0.527968   249A     -0.517328
     250A     -0.517294   251A     -0.515428   252A     -0.515423
     253A     -0.509750   254A     -0.509734   255A     -0.498146
     256A     -0.496578   257A     -0.496552   258A     -0.493847
     259A     -0.493837   260A     -0.489480   261A     -0.481559
     262A     -0.477491   263A     -0.477488   264A     -0.474111
     265A     -0.469581   266A     -0.466658   267A     -0.466654
     268A     -0.458880   269A     -0.446872   270A     -0.446811
     271A     -0.441104   272A     -0.440830   273A     -0.440805
     274A     -0.434759   275A     -0.433976   276A     -0.407453
     277A     -0.407428   278A     -0.386490   279A     -0.386441
     280A     -0.385801   281A     -0.385800   282A     -0.383834
     283A     -0.354403   284A     -0.354387   285A     -0.350741
     286A     -0.338174   287A     -0.335674   288A     -0.335606
     289A     -0.332783   290A     -0.332777   291A     -0.307169
     292A     -0.302032   293A     -0.301969   294A     -0.300916
     295A     -0.286246   296A     -0.256530   297A     -0.253583
     298A     -0.253531   299A     -0.204340   300A     -0.204251

  @DF-RHF Final Energy: -3650.33758891807520

   => Energetics <=

    Nuclear Repulsion Energy =          15611.4211649754324753
    One-Electron Energy =              -36072.0744981726966216
    Two-Electron Energy =               16810.3157442791889480
    Total Energy =                      -3650.3375889180751983
 Dipole X            :         -0.0009130            0.0002112           -0.0007018
 Dipole Y            :          0.0041783           -0.0044281           -0.0002498
 Dipole Z            :        639.7001397         -639.7021045           -0.0019647
 Magnitude           :                                                    0.0021012

    SAPT Results
  --------------------------------------------------------------------------------------------------------
    Electrostatics                 -7.50522466 [mEh]      -4.70959958 [kcal/mol]     -19.70496464 [kJ/mol]
      Elst10,r                     -7.50522466 [mEh]      -4.70959958 [kcal/mol]     -19.70496464 [kJ/mol]

    Exchange                       -0.00021612 [mEh]      -0.00013562 [kcal/mol]      -0.00056743 [kJ/mol]
      Exch10                       -0.00021612 [mEh]      -0.00013562 [kcal/mol]      -0.00056743 [kJ/mol]
      Exch10(S^2)                  -0.00021612 [mEh]      -0.00013562 [kcal/mol]      -0.00056743 [kJ/mol]

    Induction                      -2.28430181 [mEh]      -1.43342102 [kcal/mol]      -5.99743357 [kJ/mol]
      Ind20,r                      -2.25986751 [mEh]      -1.41808827 [kcal/mol]      -5.93328132 [kJ/mol]
      Exch-Ind20,r                  0.00020658 [mEh]       0.00012963 [kcal/mol]       0.00054239 [kJ/mol]
      delta HF,r (2)               -0.02464088 [mEh]      -0.01546239 [kcal/mol]      -0.06469463 [kJ/mol]

    Dispersion                     -1.14832776 [mEh]      -0.72058655 [kcal/mol]      -3.01493412 [kJ/mol]
      Disp20                       -1.14839061 [mEh]      -0.72062599 [kcal/mol]      -3.01509912 [kJ/mol]
      Exch-Disp20                   0.00006285 [mEh]       0.00003944 [kcal/mol]       0.00016500 [kJ/mol]
      Disp20 (SS)                  -0.57419530 [mEh]      -0.36031299 [kcal/mol]      -1.50754956 [kJ/mol]
      Disp20 (OS)                  -0.57419530 [mEh]      -0.36031299 [kcal/mol]      -1.50754956 [kJ/mol]
      Exch-Disp20 (SS)              0.00004718 [mEh]       0.00002961 [kcal/mol]       0.00012387 [kJ/mol]
      Exch-Disp20 (OS)              0.00001567 [mEh]       0.00000983 [kcal/mol]       0.00004113 [kJ/mol]

  Total HF                         -9.78974259 [mEh]      -6.14315622 [kcal/mol]     -25.70296564 [kJ/mol]
  Total SAPT0                     -10.93807035 [mEh]      -6.86374277 [kcal/mol]     -28.71789976 [kJ/mol]

  Special recipe for scaled SAPT0 (see Manual):
    Electrostatics sSAPT0          -7.50522466 [mEh]      -4.70959958 [kcal/mol]     -19.70496464 [kJ/mol]
    Exchange sSAPT0                -0.00021612 [mEh]      -0.00013562 [kcal/mol]      -0.00056743 [kJ/mol]
    Induction sSAPT0               -2.28430181 [mEh]      -1.43342102 [kcal/mol]      -5.99743357 [kJ/mol]
    Dispersion sSAPT0              -1.14832776 [mEh]      -0.72058655 [kcal/mol]      -3.01493412 [kJ/mol]
  Total sSAPT0                    -10.93807035 [mEh]      -6.86374277 [kcal/mol]     -28.71789976 [kJ/mol]
  --------------------------------------------------------------------------------------------------------

*** Psi4 exiting successfully. Buy a developer a beer!
