                               Psi4 1.9 release

  ==> Input File <==

--------------------------------------------------------------------------
memory 48 GB # how much memory is available ! Depends on the nodes/cores !

molecule dimer {
# monomer A
-1 1    # Charge and multiplicity
B -1.977592e-04  2.742729e-04 -2.499966
F  1.123153e-16  1.430594e-17 -1.087181
F  1.147860e+00  6.757812e-01 -2.971107
F  1.191806e-02 -1.332011e+00 -2.970905
F -1.159666e+00  6.560735e-01 -2.970826
--
# monomer B
0 1     # Charge and multiplicity
C   1.22531237526482      0.70753866091955      0.00613762728373
C   1.22532433589282     -0.70753852257020     -0.00619318228664
C   -0.00000567409046      1.41496628609039     -0.00672680580738
C   2.45644923379077      1.41832825917820      0.00902448468363
C   0.00001130712078     -1.41497612663474      0.00347275151708
C   -1.22530046906674      0.70754574598412      0.00838914760619
C   2.45643823516184     -1.41832293188077     -0.00843833914343
C   -0.00000085313587      2.83680140328112     -0.00913035594137
C   3.68182717731192      0.70931832800114     -0.00808954934571
C   2.45512052870677      2.83422403348893     -0.00819210630633
C   3.68182158506039     -0.70933346742900      0.00798293467272
C   -1.22531311884624     -0.70752714354401     -0.00512042085974
C   1.22670006104402      3.54346985599427      0.00816696660346
C   0.00000526469929     -2.83678176723568      0.00832091913869
C   -2.45643555300670      1.41831729028492      0.00842454345199
C   2.45512389762097     -2.83422965658853      0.00783102630520
C   -1.22671388474763      3.54346943575023      0.00827029982280
C   4.91451777504333      1.42717324448953     -0.00160886631602
C   3.69315067131765      3.54279566454522     -0.00155906667985
C   -2.45643712022637     -1.41831290883911     -0.00846337726810
C   1.22670532178455     -3.54347386990643     -0.00780316414624
C   -2.45512491866593      2.83421703463423     -0.00818572995999
C   4.91452486062398     -1.42718653794377      0.00136387641845
C   1.22142509354026      4.97013443726031      0.00150231067809
C   4.89300870916237      2.82518837202648     -0.00039219795739
C   -1.22669652864725     -3.54347062507680     -0.00753595973677
C   -3.68181849668397      0.70932533873199     -0.00807686886569
C   3.69314758099218     -3.54280096939050      0.00148176697923
C   -1.22143177215231      4.97012866986289      0.00168580605083
C   6.13477145276790      0.68054831910577     -0.00083909176631
C   3.65678936045204      4.97295361556775     -0.00065042889723
C   -2.45512642789169     -2.83421472106065      0.00758666850712
C   -3.68181869921921     -0.70932533146830      0.00810055625144
C   4.89301309775526     -2.82519973363176      0.00021895393805
C   -0.00000059327114      5.65044773803267      0.00045449734393
C   6.13477559217374     -0.68055448207492      0.00042622874941
C   2.47813196269732      5.65357712333155      0.00063835075260
C   1.22142288457925     -4.97012668293268     -0.00129718634452
C   -3.69316190412301      3.54279732619245     -0.00139355922051
C   -1.22142804110313     -4.97011793159564     -0.00140994817719
C   -4.91452132810043      1.42717581899491     -0.00153192130862
C   3.65678749952045     -4.97295485423912      0.00080007163680
C   -2.47813805026426      5.65357479452875      0.00092287576113
C   -3.69314125872231     -3.54278984697859      0.00136564082345
C   -4.91451200321153     -1.42718062802730      0.00139857359209
C   -0.00000552908399     -5.65043791501335      0.00005899322272
C   -4.89302000425900      2.82518897091939     -0.00040227981744
C   2.47812647313991     -5.65357317188818     -0.00029052915548
C   -3.65679823041642      4.97295655404175     -0.00047374852278
C   -4.89299899901461     -2.82519139505969      0.00006491824035
C   -2.47812801824129     -5.65356579800621     -0.00056571680280
C   -6.13477002348955      0.68054913825639     -0.00086464346868
C   -3.65678835334731     -4.97294365097028      0.00058578382008
C   -6.13476456307132     -0.68055354348201      0.00040575295444
H   5.83528897565761      3.36927626695423      0.00396712770529
H   7.07385965258860      1.22821762089947     -0.00037744837300
H   4.60066374401555      5.51238117445323     -0.00014522814529
H   5.83528386714679     -3.36930568472863     -0.00423551337640
H   -0.00001167146422      6.73853104613662     -0.00389474766392
H   7.07386165167227     -1.22822657074368     -0.00008250934481
H   2.47331421164041      6.74068466339473      0.00017162982210
H   4.60066897122302     -5.51237575717576      0.00039007446835
H   -2.47331820069565      6.74068209160650      0.00047297644710
H   -0.00000978838621     -6.73852780445195      0.00458867820736
H   -5.83530143450167      3.36927132229595      0.00410314985360
H   2.47330840367253     -6.74068500242887      0.00027980126949
H   -4.60067436136587      5.51237839860371      0.00002010017831
H   -5.83527902699321     -3.36928859177951     -0.00451481925734
H   -2.47329986759855     -6.74067870613986     -0.00016951527498
H   -7.07385728692578      1.22822084484047     -0.00046143985387
H   -4.60067330624313     -5.51236229778631      0.00021776644566
H   -7.07385645456741     -1.22822025997701     -0.00017736581114

    units angstrom      # Angstroms are the default
    no_reorient         # Geometry fixed, default
    symmetry c1         # C1 symmetry, default
}

set {
    scf_type DF         # Density fitting, faster than exact integrals
    freeze_core True    # Freeze core electrons
    basis jun-cc-pVDZ   # Jun-cc-pVDZ basis set, recommended for sSAPT0 in https://doi.org/10.1063/1.4867135
}

energy('ssapt0')        # Compute sSAPT0 energy, includes also SAPT0
--------------------------------------------------------------------------

  //              Dimer HF             //
    Molecular point group: c1
  Charge       = -1
  Multiplicity = 1
  Basis Set: JUN-CC-PVDZ
    Blend: JUN-CC-PVDZ
  Basis Set: (JUN-CC-PVDZ AUX)
    Blend: JUN-CC-PVDZ-JKFIT
  @DF-RHF Final Energy: -2478.23318690889573
    Total Energy =                      -2478.2331869088957319
 Dipole X            :         -0.0000912            0.0000481           -0.0000431
 Dipole Y            :          0.0003602           -0.0001453            0.0002149
 Dipole Z            :        -13.0685117           15.3259893            2.2574776
 Magnitude           :                                                    2.2574776
  //            Monomer A HF           //
    Molecular point group: c1
  Multiplicity = 1
  Basis Set: JUN-CC-PVDZ
    Blend: JUN-CC-PVDZ
  Basis Set: (JUN-CC-PVDZ AUX)
    Blend: JUN-CC-PVDZ-JKFIT
  @DF-RHF Final Energy:  -422.77756554583567
    Total Energy =                       -422.7775655458356709
  //            Monomer B HF           //
    Molecular point group: c1

    Geometry (in Angstrom), charge = 0, multiplicity = 1:

       Center              X                  Y                   Z               Mass
    ------------   -----------------  -----------------  -----------------  -----------------
      Gh(B)          -0.000198161052     0.000273808717    -2.211164619113    11.009305360000
      Gh(F)          -0.000000401852    -0.000000464183    -0.798379619113    18.998403162730
      Gh(F)           1.147859598148     0.675780735817    -2.682305619113    18.998403162730
      Gh(F)           0.011917658148    -1.332011464183    -2.682103619113    18.998403162730
      Gh(F)          -1.159666401852     0.656073035817    -2.682024619113    18.998403162730
         C            1.225311973413     0.707538196736     0.294939008171    12.000000000000
         C            1.225323934041    -0.707538986754     0.282608198601    12.000000000000
         C           -0.000006075942     1.414965821907     0.282074575080    12.000000000000
         C            2.456448831939     1.418327794995     0.297825865571    12.000000000000
         C            0.000010905269    -1.414976590818     0.292274132404    12.000000000000
         C           -1.225300870919     0.707545281801     0.297190528494    12.000000000000
         C            2.456437833310    -1.418323396064     0.280363041744    12.000000000000
         C           -0.000001254988     2.836800939098     0.279671024946    12.000000000000
         C            3.681826775460     0.709317863818     0.280711831542    12.000000000000
         C            2.455120126855     2.834223569306     0.280609274581    12.000000000000
         C            3.681821183209    -0.709333931612     0.296784315560    12.000000000000
         C           -1.225313520698    -0.707527607727     0.283680960028    12.000000000000
         C            1.226699659192     3.543469391811     0.296968347491    12.000000000000
         C            0.000004862847    -2.836782231419     0.297122300026    12.000000000000
         C           -2.456435954859     1.418316826102     0.297225924339    12.000000000000
         C            2.455123495769    -2.834230120772     0.296632407193    12.000000000000
         C           -1.226714286599     3.543468971567     0.297071680710    12.000000000000
         C            4.914517373191     1.427172780306     0.287192514571    12.000000000000
         C            3.693150269466     3.542795200362     0.287242314208    12.000000000000
         C           -2.456437522078    -1.418313373022     0.280338003619    12.000000000000
         C            1.226704919933    -3.543474334090     0.280998216741    12.000000000000
         C           -2.455125320518     2.834216570451     0.280615650927    12.000000000000
         C            4.914524458772    -1.427187002127     0.290165257306    12.000000000000
         C            1.221424691688     4.970133973077     0.290303691565    12.000000000000
         C            4.893008307311     2.825187907843     0.288409182930    12.000000000000
         C           -1.226696930499    -3.543471089260     0.281265421151    12.000000000000
         C           -3.681818898536     0.709324874549     0.280724512022    12.000000000000
         C            3.693147179140    -3.542801433574     0.290283147867    12.000000000000
         C           -1.221432174004     4.970128205680     0.290487186938    12.000000000000
         C            6.134771050916     0.680547854922     0.287962289121    12.000000000000
         C            3.656788958600     4.972953151384     0.288150951990    12.000000000000
         C           -2.455126829744    -2.834215185244     0.296388049394    12.000000000000
         C           -3.681819101071    -0.709325795652     0.296901937139    12.000000000000
         C            4.893012695903    -2.825200197815     0.289020334825    12.000000000000
         C           -0.000000995123     5.650447273849     0.289255878231    12.000000000000
         C            6.134775190322    -0.680554946258     0.289227609637    12.000000000000
         C            2.478131560845     5.653576659148     0.289439731640    12.000000000000
         C            1.221422482727    -4.970127147116     0.287504194543    12.000000000000
         C           -3.693162305975     3.542796862009     0.287407821667    12.000000000000
         C           -1.221428442955    -4.970118395779     0.287391432710    12.000000000000
         C           -4.914521729952     1.427175354812     0.287269459579    12.000000000000
         C            3.656787097669    -4.972955318422     0.289601452524    12.000000000000
         C           -2.478138452116     5.653574330345     0.289724256649    12.000000000000
         C           -3.693141660574    -3.542790311162     0.290167021711    12.000000000000
         C           -4.914512405063    -1.427181092211     0.290199954479    12.000000000000
         C           -0.000005930936    -5.650438379197     0.288860374110    12.000000000000
         C           -4.893020406111     2.825188506736     0.288399101070    12.000000000000
         C            2.478126071288    -5.653573636072     0.288510851732    12.000000000000
         C           -3.656798632268     4.972956089858     0.288327632365    12.000000000000
         C           -4.892999400866    -2.825191859243     0.288866299128    12.000000000000
         C           -2.478128420093    -5.653566262190     0.288235664085    12.000000000000
         C           -6.134770425341     0.680548674073     0.287936737419    12.000000000000
         C           -3.656788755199    -4.972944115154     0.289387164707    12.000000000000
         C           -6.134764964923    -0.680554007665     0.289207133842    12.000000000000
         H            5.835288573806     3.369275802771     0.292768508593     1.007825032230
         H            7.073859250737     1.228217156716     0.288423932514     1.007825032230
         H            4.600663342164     5.512380710270     0.288656152742     1.007825032230
         H            5.835283465295    -3.369306148912     0.284565867511     1.007825032230
         H           -0.000012073316     6.738530581953     0.284906633223     1.007825032230
         H            7.073861249820    -1.228227034927     0.288718871543     1.007825032230
         H            2.473313809789     6.740684199211     0.288973010709     1.007825032230
         H            4.600668569371    -5.512376221359     0.289191455356     1.007825032230
         H           -2.473318602548     6.740681627423     0.289274357334     1.007825032230
         H           -0.000010190238    -6.738528268635     0.293390059095     1.007825032230
         H           -5.835301836354     3.369270858113     0.292904530741     1.007825032230
         H            2.473308001821    -6.740685466612     0.289081182157     1.007825032230
         H           -4.600674763218     5.512377934420     0.288821481066     1.007825032230
         H           -5.835279428845    -3.369289055963     0.284286561630     1.007825032230
         H           -2.473300269450    -6.740679170323     0.288631865612     1.007825032230
         H           -7.073857688778     1.228220380657     0.288339941034     1.007825032230
         H           -4.600673708095    -5.512362761970     0.289019147333     1.007825032230
         H           -7.073856856419    -1.228220724160     0.288624015076     1.007825032230

  Charge       = 0
  Multiplicity = 1
  Basis Set: JUN-CC-PVDZ
    Blend: JUN-CC-PVDZ
  Basis Set: (JUN-CC-PVDZ AUX)
    Blend: JUN-CC-PVDZ-JKFIT

    Orbital Energies [Eh]
    ---------------------

    Doubly Occupied:

       1A    -11.260608     2A    -11.260155     3A    -11.260153
       4A    -11.259395     5A    -11.259395     6A    -11.259206
       7A    -11.258964     8A    -11.258893     9A    -11.258892
      10A    -11.258575    11A    -11.258571    12A    -11.258466
      13A    -11.258412    14A    -11.258410    15A    -11.258406
      16A    -11.258372    17A    -11.258366    18A    -11.258348
      19A    -11.258345    20A    -11.258342    21A    -11.258336
      22A    -11.258269    23A    -11.258264    24A    -11.258020
      25A    -11.257245    26A    -11.257185    27A    -11.257184
      28A    -11.257052    29A    -11.257052    30A    -11.256970
      31A    -11.256336    32A    -11.256267    33A    -11.256267
      34A    -11.256159    35A    -11.256159    36A    -11.256113
      37A    -11.252240    38A    -11.252239    39A    -11.252238
      40A    -11.252237    41A    -11.252234    42A    -11.252233
      43A    -11.251331    44A    -11.251329    45A    -11.251329
      46A    -11.251317    47A    -11.251316    48A    -11.251313
      49A    -11.250802    50A    -11.250801    51A    -11.250799
      52A    -11.250797    53A    -11.250795    54A    -11.250794
      55A     -1.243867    56A     -1.219694    57A     -1.219694
      58A     -1.189451    59A     -1.189443    60A     -1.180735
      61A     -1.157490    62A     -1.148895    63A     -1.135335
      64A     -1.135328    65A     -1.113123    66A     -1.113118
      67A     -1.082312    68A     -1.082305    69A     -1.078419
      70A     -1.065917    71A     -1.065913    72A     -1.039311
      73A     -1.024135    74A     -1.021572    75A     -1.021529
      76A     -1.017667    77A     -1.012730    78A     -0.986906
      79A     -0.986860    80A     -0.961791    81A     -0.961742
      82A     -0.894209    83A     -0.894182    84A     -0.887738
      85A     -0.886026    86A     -0.885968    87A     -0.881266
      88A     -0.881219    89A     -0.861817    90A     -0.837365
      91A     -0.818121    92A     -0.816473    93A     -0.811990
      94A     -0.811980    95A     -0.794614    96A     -0.794603
      97A     -0.746478    98A     -0.744737    99A     -0.733263
     100A     -0.733254   101A     -0.732099   102A     -0.732075
     103A     -0.716356   104A     -0.698891   105A     -0.698881
     106A     -0.693466   107A     -0.693451   108A     -0.661151
     109A     -0.652949   110A     -0.651007   111A     -0.650171
     112A     -0.650166   113A     -0.639286   114A     -0.639283
     115A     -0.629586   116A     -0.627385   117A     -0.627369
     118A     -0.606502   119A     -0.605771   120A     -0.601542
     121A     -0.599643   122A     -0.599612   123A     -0.593543
     124A     -0.591020   125A     -0.591009   126A     -0.585230
     127A     -0.576365   128A     -0.576359   129A     -0.567259
     130A     -0.567244   131A     -0.565811   132A     -0.565792
     133A     -0.558579   134A     -0.554748   135A     -0.554742
     136A     -0.538513   137A     -0.538511   138A     -0.538142
     139A     -0.538135   140A     -0.529627   141A     -0.528191
     142A     -0.522778   143A     -0.522772   144A     -0.500430
     145A     -0.495549   146A     -0.493154   147A     -0.487792
     148A     -0.484969   149A     -0.481643   150A     -0.481635
     151A     -0.470337   152A     -0.470319   153A     -0.450851
     154A     -0.450772   155A     -0.439022   156A     -0.439013
     157A     -0.404676   158A     -0.404653   159A     -0.403327
     160A     -0.375386   161A     -0.375383   162A     -0.349070
     163A     -0.337516   164A     -0.336462   165A     -0.336403
     166A     -0.311012   167A     -0.298088   168A     -0.284255
     169A     -0.284201   170A     -0.224818   171A     -0.224752

  @DF-RHF Final Energy: -2055.89528951259035

   => Energetics <=

    Nuclear Repulsion Energy =           6452.5568002797781446
    One-Electron Energy =              -15636.5153608173841349
    Two-Electron Energy =                7128.0632710250147284
    Total Energy =                      -2055.8952895125903524
 Dipole X            :          0.0000008            0.0000419            0.0000427
 Dipole Y            :          0.0000719           -0.0000426            0.0000293
 Dipole Z            :       -186.6502763          186.6469430           -0.0033333
 Magnitude           :                                                    0.0033337

    SAPT Results
  --------------------------------------------------------------------------------------------------------
    Electrostatics               -332.96864838 [mEh]    -208.94098133 [kcal/mol]    -874.20906587 [kJ/mol]
      Elst10,r                   -332.96864838 [mEh]    -208.94098133 [kcal/mol]    -874.20906587 [kJ/mol]

    Exchange                      799.22057881 [mEh]     501.51848484 [kcal/mol]    2098.35334058 [kJ/mol]
      Exch10                      799.22057881 [mEh]     501.51848484 [kcal/mol]    2098.35334058 [kJ/mol]
      Exch10(S^2)                 743.68564845 [mEh]     466.66978991 [kcal/mol]    1952.54640100 [kJ/mol]

    Induction                     -26.58378090 [mEh]     -16.68157437 [kcal/mol]     -69.79570715 [kJ/mol]
      Ind20,r                    -457.41907552 [mEh]    -287.03480338 [kcal/mol]   -1200.95361732 [kJ/mol]
      Exch-Ind20,r                324.42032593 [mEh]     203.57682801 [kcal/mol]     851.76544839 [kJ/mol]
      delta HF,r (2)              106.41496868 [mEh]      66.77640100 [kcal/mol]     279.39246178 [kJ/mol]

    Dispersion                    -72.28165225 [mEh]     -45.35742157 [kcal/mol]    -189.77545185 [kJ/mol]
      Disp20                     -117.45305885 [mEh]     -73.70290715 [kcal/mol]    -308.37296354 [kJ/mol]
      Exch-Disp20                  45.17140660 [mEh]      28.34548559 [kcal/mol]     118.59751169 [kJ/mol]
      Disp20 (SS)                 -58.72652943 [mEh]     -36.85145358 [kcal/mol]    -154.18648177 [kJ/mol]
      Disp20 (OS)                 -58.72652943 [mEh]     -36.85145358 [kcal/mol]    -154.18648177 [kJ/mol]
      Exch-Disp20 (SS)             21.47466062 [mEh]      13.47555298 [kcal/mol]      56.38171368 [kJ/mol]
      Exch-Disp20 (OS)             23.69674598 [mEh]      14.86993260 [kcal/mol]      62.21579801 [kJ/mol]

  Total HF                        439.66814953 [mEh]     275.89592915 [kcal/mol]    1154.34856756 [kJ/mol]
  Total SAPT0                     367.38649728 [mEh]     230.53850758 [kcal/mol]     964.57311571 [kJ/mol]

  Special recipe for scaled SAPT0 (see Manual):
    Electrostatics sSAPT0        -332.96864838 [mEh]    -208.94098133 [kcal/mol]    -874.20906587 [kJ/mol]
    Exchange sSAPT0               799.22057881 [mEh]     501.51848484 [kcal/mol]    2098.35334058 [kJ/mol]
    Induction sSAPT0               51.65713441 [mEh]      32.41534123 [kcal/mol]     135.62578770 [kJ/mol]
    Dispersion sSAPT0             -61.38759934 [mEh]     -38.52130016 [kcal/mol]    -161.17311985 [kJ/mol]
  Total sSAPT0                    456.52146551 [mEh]     286.47154459 [kcal/mol]    1198.59694256 [kJ/mol]
  --------------------------------------------------------------------------------------------------------

*** Psi4 exiting successfully. Buy a developer a beer!
