                               Psi4 1.9 release

  ==> Input File <==

--------------------------------------------------------------------------
memory 64 GB # how much memory is available ! Depends on the nodes/cores !

molecule dimer {
# monomer A
-1 1    # Charge and multiplicity
B -0.000046  0.000337 6.199994
F -1.153597  0.000048 7.015641
F  1.153661 -0.000581 7.015641
F -0.000019 -1.153637 5.384360
F -0.000019  1.153978 5.384360
--
# monomer B
0 1     # Charge and multiplicity
C   -3.66844126402057      7.80375217008252      0.00190004133558
C   -4.84759871934653      7.13124183134024     -0.00046653359696
C   -4.89495929917518      5.69633040353158     -0.00103944469517
C   -3.65374067877320      4.98073034095895      0.00662099703436
C   -2.40942512149445      7.11398103667468      0.00209438359570
C   -2.42547734410473      5.68112195090346     -0.00491050527438
C   -1.19474401643570      7.78614419430947      0.00356656413763
C   0.03795902893699      7.09942164575698      0.00139585983271
C   0.03033258741920      5.66948955970466     -0.00408752508301
C   -1.20098450790502      4.96927034791531      0.00488220885047
C   1.27795782581485      7.77285944319479      0.00277170839332
C   2.48535808472416      7.08769688523756      0.00049722048857
C   2.48612868491717      5.65477081024076     -0.00644052849921
C   1.25408291964399      4.95607811366431      0.00518741308898
C   3.75171459140595      7.76391215098033      0.00062407186893
C   4.92356605618520      7.07878077698995     -0.00143240883900
C   4.95560727132542      5.64344746336949     -0.00159282164606
C   3.70680153420475      4.94121020833308      0.00349873852374
H   -3.65852113775815      8.89082741913536      0.00358502958574
H   -1.18921332975660      8.87412108735996      0.00753844057883
H   1.28429423888630      8.86083343548850      0.00693053253426
H   3.75354208679975      8.85103527897216      0.00214659618464
H   5.86995870320703      7.61379483465560     -0.00235777588134
H   -5.78823170750226      7.67630221293400     -0.00202638095293
C   -6.09197395869619      4.99326001364347     -0.00291168518608
C   -6.12866148031747      3.58258016879823     -0.00171050815740
C   -3.66457974004527      3.56418217974434     -0.00463560277484
C   -4.89429820469869      2.86108077590057      0.00453338221034
C   -2.43733499489796      2.84761165708481      0.00719617576166
C   -1.20922785759670      3.54788693497833     -0.00648285103018
C   1.24714157216223      3.53468075142962     -0.00729145743546
C   0.01517603956900      2.83311183930540      0.00439272578912
C   2.46764517244071      2.82128997725533      0.00449278391269
C   3.70254947457969      3.52466015442405     -0.00899517692985
C   6.14498038638375      4.92757236613191     -0.00282626685777
C   6.16658835886151      3.51658447594213     -0.00065971342101
C   4.92460995845939      2.80840792535402      0.00587903281610
H   7.08990550964105      5.46688776622306     -0.00658814770723
H   -7.03104175110130      5.54268795285765     -0.00714490013730
C   -7.33969804112295      2.85841153457957     -0.00333767559888
C   -7.36488195805880      1.47032337158330     -0.00157213747140
C   -4.90350460894690      1.44442681216000     -0.00628840166334
C   -6.13225715261081      0.73993935705394      0.00600164231964
C   -3.67687480051673      0.72669714267312      0.00433931473643
C   -2.44565658606518      1.42964113326212     -0.00597039546461
C   -1.22360068130162      0.71532450163492      0.00545886906656
C   0.00763786931376      1.41738314923765      0.00392452278437
C   1.23121980774686      0.70211669058719     -0.01490206287210
C   2.46082110053113      1.40329203612573      0.00460244601878
C   3.68443025419614      0.68719842821222      0.00377365974158
C   4.91870890153864      1.39173456118907     -0.00862816189375
C   7.36980207796101      2.77948220318441     -0.00242013321349
C   7.38016266612146      1.39121750785509     -0.00087345036788
C   6.13979953912259      0.67411862320065      0.00545489144369
H   -8.27919079934664      3.40711804112415     -0.00763522772059
H   8.31511347147953      3.31811809662368     -0.00663070901292
C   -8.59175593758115      0.72483255304480     -0.00123170985383
C   -8.59902460370342     -0.63263980622873      0.00089141472904
C   -6.13981313911873     -0.67413663715361     -0.00609792660607
C   -7.38018411213749     -1.39126618958160      0.00131813493501
C   -4.91868448025621     -1.39175501803000      0.00624257154343
C   -3.68443829568458     -0.68723731573599     -0.00478966852105
C   -2.46081704024768     -1.40334517882457      0.00575341766833
C   -1.23116201232071     -0.70217386488055     -0.00636696112346
C   -0.00756962538737     -1.41741884941102      0.00108956317991
C   1.22364771588843     -0.71527537726392      0.01109518512883
C   2.44567064933149     -1.42964328900682     -0.00065482763106
C   3.67686670284649     -0.72670743155550     -0.00479541202602
C   6.13224884641929     -0.73997883984993     -0.00632338623858
C   4.90351914550401     -1.44445752054090      0.00751768830159
C   8.59901484869081      0.63260386666793     -0.00101133422380
C   8.59174548810050     -0.72485086719319      0.00072504603735
C   7.36486276438985     -1.47033266560598      0.00049486934466
H   -9.52830597181814      1.27684744919284     -0.00270163681798
H   9.54141097460619      1.17457248844457     -0.00206336648518
C   -7.36983790976868     -2.77954514593389      0.00312634335708
C   -4.92459910905015     -2.80843725734101     -0.00460528907921
C   -6.16662249566744     -3.51665219282533      0.00169655107992
C   -3.70251035970491     -3.52468154912026      0.00571878010666
C   -2.46764698511392     -2.82132596280400     -0.00632585824990
C   -0.01513347410770     -2.83314164539971     -0.00604426974092
C   -1.24712184122656     -3.53473217556300      0.00551968366725
C   1.20924506964357     -3.54791467864352      0.00805871345849
C   2.43733602215464     -2.84764173817541     -0.00608104485234
C   4.89430234377080     -2.86112296828604     -0.00526030478103
C   3.66461525504104     -3.56421984553201      0.00761911515957
C   6.12863901474565     -3.58258405771778      0.00096495711699
C   7.33967266469532     -2.85841330737039      0.00248018319869
H   -9.54144911125902     -1.17456346666430      0.00226083090216
H   9.52826186807155     -1.27691907390448      0.00197485379837
H   -8.31516504384864     -3.31814985321231      0.00729857188773
H   8.27915514249207     -3.40714078989363      0.00681973918158
C   -6.14499418870218     -4.92764727278338      0.00302254913999
C   -3.70678334799751     -4.94126171411716     -0.00679841894792
C   -4.95559005800169     -5.64349397349412      0.00116871569699
C   -2.48612132622665     -5.65478557440947      0.00614125209662
C   -1.25405833548005     -4.95612205000132     -0.00503435388927
C   1.20101257386816     -4.96928038819302     -0.00385322963129
C   -0.03033667441341     -5.66952030313900      0.00398997003238
C   3.65375010132847     -4.98074377541453     -0.00309522988330
C   2.42549269587528     -5.68117463552727      0.00628170066869
C   6.09196561781097     -4.99325796338655      0.00325918379042
C   4.89497644461045     -5.69634842095790      0.00202298796027
H   -7.08989238804069     -5.46699984223871      0.00742531082125
H   7.03105520920009     -5.54265853633254      0.00683896355417
C   -4.92354532219813     -7.07882109967734      0.00061394679214
C   -2.48534208823777     -7.08772807792913     -0.00189594564379
C   -3.75168589177895     -7.76394715763627     -0.00170126671874
C   -0.03794895698805     -7.09946487446944     -0.00168022049625
C   -1.27795610040136     -7.77290438466689     -0.00366491325785
C   2.40944432072629     -7.11402201200282     -0.00081701968533
C   1.19474993715296     -7.78618536556242     -0.00296931056689
C   4.84762105249800     -7.13126211057943      0.00168979497423
C   3.66847160587561     -7.80378799294376     -0.00065863938960
H   -5.86994035041618     -7.61383059804164      0.00215798365757
H   5.78824962538815     -7.67633218931421      0.00281691445618
H   -3.75352693944918     -8.85107156923607     -0.00353718114765
H   -1.28430440589466     -8.86087539249706     -0.00809229711623
H   1.18922157469537     -8.87416062058945     -0.00706194725726
H   3.65854661482387     -8.89086063405326     -0.00231318081200

    units angstrom      # Angstroms are the default
    no_reorient         # Geometry fixed, default
    symmetry c1         # C1 symmetry, default
}

set {
    scf_type DF         # Density fitting, faster than exact integrals
    freeze_core True    # Freeze core electrons
    basis jun-cc-pVDZ   # Jun-cc-pVDZ basis set, recommended for sSAPT0 in https://doi.org/10.1063/1.4867135
}

energy('ssapt0')        # Compute sSAPT0 energy, includes also SAPT0
--------------------------------------------------------------------------

  //              Dimer HF             //
    Molecular point group: c1
  Charge       = -1
  Multiplicity = 1
  Basis Set: JUN-CC-PVDZ
    Blend: JUN-CC-PVDZ
  Basis Set: (JUN-CC-PVDZ AUX)
    Blend: JUN-CC-PVDZ-JKFIT
  @DF-RHF Final Energy: -4073.10455157117303
    Total Energy =                      -4073.1045515711739426
 Dipole X            :         -0.0001195           -0.0001188           -0.0002383
 Dipole Y            :          0.0012143           -0.0002727            0.0009416
 Dipole Z            :         27.0601704          -36.8974658           -9.8372955
 Magnitude           :                                                    9.8372955
  //            Monomer A HF           //
    Molecular point group: c1
  Multiplicity = 1
  Basis Set: JUN-CC-PVDZ
    Blend: JUN-CC-PVDZ
  Basis Set: (JUN-CC-PVDZ AUX)
    Blend: JUN-CC-PVDZ-JKFIT
  @DF-RHF Final Energy:  -422.77158950818415
    Total Energy =                       -422.7715895081841495
  //            Monomer B HF           //
    Molecular point group: c1

    Geometry (in Angstrom), charge = 0, multiplicity = 1:

       Center              X                  Y                   Z               Mass
    ------------   -----------------  -----------------  -----------------  -----------------
      Gh(B)          -0.000050191042     0.000351518223     5.772962672425    11.009305360000
      Gh(F)          -1.153601191042     0.000062518223     6.588609672425    18.998403162730
      Gh(F)           1.153656808958    -0.000566481777     6.588609672425    18.998403162730
      Gh(F)          -0.000023191042    -1.153622481777     4.957328672425    18.998403162730
      Gh(F)          -0.000023191042     1.153992518223     4.957328672425    18.998403162730
         C           -3.668445455062     7.803766688305    -0.425131286239    12.000000000000
         C           -4.847602910388     7.131256349563    -0.427497861172    12.000000000000
         C           -4.894963490217     5.696344921754    -0.428070772270    12.000000000000
         C           -3.653744869815     4.980744859182    -0.420410330540    12.000000000000
         C           -2.409429312536     7.113995554897    -0.424936943979    12.000000000000
         C           -2.425481535146     5.681136469126    -0.431941832849    12.000000000000
         C           -1.194748207477     7.786158712532    -0.423464763437    12.000000000000
         C            0.037954837895     7.099436163980    -0.425635467742    12.000000000000
         C            0.030328396378     5.669504077927    -0.431118852658    12.000000000000
         C           -1.200988698947     4.969284866138    -0.422149118724    12.000000000000
         C            1.277953634773     7.772873961417    -0.424259619181    12.000000000000
         C            2.485353893683     7.087711403460    -0.426534107086    12.000000000000
         C            2.486124493876     5.654785328463    -0.433471856074    12.000000000000
         C            1.254078728602     4.956092631887    -0.421843914486    12.000000000000
         C            3.751710400364     7.763926669203    -0.426407255706    12.000000000000
         C            4.923561865144     7.078795295213    -0.428463736414    12.000000000000
         C            4.955603080284     5.643461981592    -0.428624149221    12.000000000000
         C            3.706797343163     4.941224726556    -0.423532589051    12.000000000000
         H           -3.658525328800     8.890841937358    -0.423446297989     1.007825032230
         H           -1.189217520798     8.874135605583    -0.419492886996     1.007825032230
         H            1.284290047845     8.860847953711    -0.420100795040     1.007825032230
         H            3.753537895758     8.851049797195    -0.424884731390     1.007825032230
         H            5.869954512165     7.613809352878    -0.429389103456     1.007825032230
         H           -5.788235898544     7.676316731157    -0.429057708528     1.007825032230
         C           -6.091978149738     4.993274531866    -0.429943012761    12.000000000000
         C           -6.128665671359     3.582594687021    -0.428741835732    12.000000000000
         C           -3.664583931087     3.564196697967    -0.431666930350    12.000000000000
         C           -4.894302395740     2.861095294123    -0.422497945364    12.000000000000
         C           -2.437339185940     2.847626175307    -0.419835151813    12.000000000000
         C           -1.209232048638     3.547901453201    -0.433514178605    12.000000000000
         C            1.247137381121     3.534695269652    -0.434322785010    12.000000000000
         C            0.015171848527     2.833126357528    -0.422638601786    12.000000000000
         C            2.467640981399     2.821304495478    -0.422538543662    12.000000000000
         C            3.702545283538     3.524674672647    -0.436026504505    12.000000000000
         C            6.144976195342     4.927586884354    -0.429857594432    12.000000000000
         C            6.166584167820     3.516598994165    -0.427691040996    12.000000000000
         C            4.924605767418     2.808422443577    -0.421152294759    12.000000000000
         H            7.089901318599     5.466902284446    -0.433619475282     1.007825032230
         H           -7.031045942143     5.542702471080    -0.434176227712     1.007825032230
         C           -7.339702232165     2.858426052802    -0.430369003174    12.000000000000
         C           -7.364886149100     1.470337889806    -0.428603465046    12.000000000000
         C           -4.903508799989     1.444441330383    -0.433319729238    12.000000000000
         C           -6.132261343652     0.739953875277    -0.421029685255    12.000000000000
         C           -3.676878991558     0.726711660896    -0.422692012838    12.000000000000
         C           -2.445660777107     1.429655651485    -0.433001723039    12.000000000000
         C           -1.223604872343     0.715339019858    -0.421572458508    12.000000000000
         C            0.007633678272     1.417397667460    -0.423106804790    12.000000000000
         C            1.231215616705     0.702131208810    -0.441933390447    12.000000000000
         C            2.460816909489     1.403306554348    -0.422428881556    12.000000000000
         C            3.684426063155     0.687212946435    -0.423257667833    12.000000000000
         C            4.918704710497     1.391749079412    -0.435659489468    12.000000000000
         C            7.369797886919     2.779496721407    -0.429451460788    12.000000000000
         C            7.380158475080     1.391232026078    -0.427904777943    12.000000000000
         C            6.139795348081     0.674133141423    -0.421576436131    12.000000000000
         H           -8.279194990388     3.407132559347    -0.434666555295     1.007825032230
         H            8.315109280438     3.318132614846    -0.433662036588     1.007825032230
         C           -8.591760128623     0.724847071267    -0.428263037429    12.000000000000
         C           -8.599028794745    -0.632625288006    -0.426139912846    12.000000000000
         C           -6.139817330160    -0.674122118931    -0.433129254181    12.000000000000
         C           -7.380188303179    -1.391251671359    -0.425713192640    12.000000000000
         C           -4.918688671298    -1.391740499807    -0.420788756031    12.000000000000
         C           -3.684442486726    -0.687222797513    -0.431820996096    12.000000000000
         C           -2.460821231289    -1.403330660602    -0.421277909906    12.000000000000
         C           -1.231166203362    -0.702159346658    -0.433398288698    12.000000000000
         C           -0.007573816429    -1.417404331188    -0.425941764395    12.000000000000
         C            1.223643524847    -0.715260859041    -0.415936142446    12.000000000000
         C            2.445666458290    -1.429628770784    -0.427686155206    12.000000000000
         C            3.676862511805    -0.726692913333    -0.431826739601    12.000000000000
         C            6.132244655378    -0.739964321627    -0.433354713813    12.000000000000
         C            4.903514954462    -1.444443002318    -0.419513639273    12.000000000000
         C            8.599010657649     0.632618384891    -0.428042661799    12.000000000000
         C            8.591741297059    -0.724836348971    -0.426306281537    12.000000000000
         C            7.364858573348    -1.470318147383    -0.426536458230    12.000000000000
         H           -9.528310162860     1.276861967415    -0.429732964393     1.007825032230
         H            9.541406783565     1.174587006667    -0.429094694060     1.007825032230
         C           -7.369842100810    -2.779530627711    -0.423904984218    12.000000000000
         C           -4.924603300092    -2.808422739118    -0.431636616654    12.000000000000
         C           -6.166626686709    -3.516637674603    -0.425334776495    12.000000000000
         C           -3.702514550747    -3.524667030898    -0.421312547468    12.000000000000
         C           -2.467651176156    -2.821311444581    -0.433357185825    12.000000000000
         C           -0.015137665149    -2.833127127177    -0.433075597316    12.000000000000
         C           -1.247126032268    -3.534717657340    -0.421511643907    12.000000000000
         C            1.209240878602    -3.547900160421    -0.418972614116    12.000000000000
         C            2.437331831113    -2.847627219953    -0.433112372427    12.000000000000
         C            4.894298152729    -2.861108450063    -0.432291632356    12.000000000000
         C            3.664611063999    -3.564205327309    -0.419412212415    12.000000000000
         C            6.128634823704    -3.582569539495    -0.426066370458    12.000000000000
         C            7.339668473654    -2.858398789148    -0.424551144376    12.000000000000
         H           -9.541453302301    -1.174548948442    -0.424770496673     1.007825032230
         H            9.528257677030    -1.276904555682    -0.425056473776     1.007825032230
         H           -8.315169234890    -3.318135334990    -0.419732755687     1.007825032230
         H            8.279150951450    -3.407126271671    -0.420211588393     1.007825032230
         C           -6.144998379744    -4.927632754561    -0.424008778435    12.000000000000
         C           -3.706787539039    -4.941247195895    -0.433829746523    12.000000000000
         C           -4.955594249043    -5.643479455272    -0.425862611878    12.000000000000
         C           -2.486125517268    -5.654771056187    -0.420890075478    12.000000000000
         C           -1.254062526522    -4.956107531779    -0.432065681464    12.000000000000
         C            1.201008382827    -4.969265869970    -0.430884557206    12.000000000000
         C           -0.030340865455    -5.669505784916    -0.423041357542    12.000000000000
         C            3.653745910287    -4.980729257192    -0.430126557458    12.000000000000
         C            2.425488504834    -5.681160117305    -0.420749626906    12.000000000000
         C            6.091961426769    -4.993243445164    -0.423772143784    12.000000000000
         C            4.894972253569    -5.696333902735    -0.425008339614    12.000000000000
         H           -7.089896579082    -5.466985324016    -0.419606016753     1.007825032230
         H            7.031051018158    -5.542644018110    -0.420192364021     1.007825032230
         C           -4.923549513240    -7.078806581455    -0.426417380783    12.000000000000
         C           -2.485346279279    -7.087713559707    -0.428927273219    12.000000000000
         C           -3.751690082821    -7.763932639414    -0.428732594293    12.000000000000
         C           -0.037953148030    -7.099450356247    -0.428711548071    12.000000000000
         C           -1.277960291443    -7.772889866444    -0.430696240833    12.000000000000
         C            2.409440129685    -7.114007493780    -0.427848347260    12.000000000000
         C            1.194745746111    -7.786170847340    -0.430000638142    12.000000000000
         C            4.847616861456    -7.131247592357    -0.425341532600    12.000000000000
         C            3.668467414834    -7.803773474721    -0.427689966964    12.000000000000
         H           -5.869944541458    -7.613816079819    -0.424873343917     1.007825032230
         H            5.788245434347    -7.676317671092    -0.424214413119     1.007825032230
         H           -3.753531130491    -8.851057051013    -0.430568508722     1.007825032230
         H           -1.284308596936    -8.860860874274    -0.435123624691     1.007825032230
         H            1.189217383654    -8.874146102367    -0.434093274832     1.007825032230
         H            3.658542423782    -8.890846115831    -0.429344508387     1.007825032230

  Charge       = 0
  Multiplicity = 1
  Basis Set: JUN-CC-PVDZ
    Blend: JUN-CC-PVDZ
  Basis Set: (JUN-CC-PVDZ AUX)
    Blend: JUN-CC-PVDZ-JKFIT

    Orbital Energies [Eh]
    ---------------------

    Doubly Occupied:

       1A    -11.264041     2A    -11.263729     3A    -11.263723
       4A    -11.263383     5A    -11.263381     6A    -11.263346
       7A    -11.263189     8A    -11.263164     9A    -11.263158
      10A    -11.263003    11A    -11.262842    12A    -11.262840
      13A    -11.262360    14A    -11.262359    15A    -11.262286
      16A    -11.262284    17A    -11.262234    18A    -11.262200
      19A    -11.262155    20A    -11.262117    21A    -11.262115
      22A    -11.261962    23A    -11.261956    24A    -11.261839
      25A    -11.261825    26A    -11.261812    27A    -11.261807
      28A    -11.261760    29A    -11.261752    30A    -11.261679
      31A    -11.261651    32A    -11.261649    33A    -11.261623
      34A    -11.261621    35A    -11.261600    36A    -11.261551
      37A    -11.261416    38A    -11.261405    39A    -11.261398
      40A    -11.261391    41A    -11.261387    42A    -11.261378
      43A    -11.261373    44A    -11.261358    45A    -11.261353
      46A    -11.261331    47A    -11.261327    48A    -11.261323
      49A    -11.261167    50A    -11.261134    51A    -11.261132
      52A    -11.261051    53A    -11.261050    54A    -11.260978
      55A    -11.260016    56A    -11.260002    57A    -11.260000
      58A    -11.259971    59A    -11.259969    60A    -11.259953
      61A    -11.259393    62A    -11.259367    63A    -11.259365
      64A    -11.259312    65A    -11.259311    66A    -11.259281
      67A    -11.259020    68A    -11.259002    69A    -11.259000
      70A    -11.258973    71A    -11.258970    72A    -11.258959
      73A    -11.254591    74A    -11.254589    75A    -11.254588
      76A    -11.254585    77A    -11.254580    78A    -11.254578
      79A    -11.253741    80A    -11.253739    81A    -11.253736
      82A    -11.253735    83A    -11.253732    84A    -11.253727
      85A    -11.253656    86A    -11.253655    87A    -11.253651
      88A    -11.253650    89A    -11.253648    90A    -11.253643
      91A    -11.253119    92A    -11.253117    93A    -11.253116
      94A    -11.253113    95A    -11.253107    96A    -11.253106
      97A     -1.254126    98A     -1.239140    99A     -1.239138
     100A     -1.220584   101A     -1.220579   102A     -1.215601
     103A     -1.201146   104A     -1.195716   105A     -1.188295
     106A     -1.188293   107A     -1.173867   108A     -1.173863
     109A     -1.155771   110A     -1.155768   111A     -1.152872
     112A     -1.144820   113A     -1.144817   114A     -1.128696
     115A     -1.114853   116A     -1.113261   117A     -1.112632
     118A     -1.112621   119A     -1.111711   120A     -1.088558
     121A     -1.088541   122A     -1.077057   123A     -1.077056
     124A     -1.067750   125A     -1.067721   126A     -1.065118
     127A     -1.046918   128A     -1.046910   129A     -1.040605
     130A     -1.038830   131A     -1.038829   132A     -1.025386
     133A     -1.021553   134A     -1.021505   135A     -1.007289
     136A     -1.006934   137A     -1.003908   138A     -1.000630
     139A     -1.000581   140A     -0.991165   141A     -0.971118
     142A     -0.971071   143A     -0.955989   144A     -0.955933
     145A     -0.905756   146A     -0.905714   147A     -0.905638
     148A     -0.905598   149A     -0.904510   150A     -0.892527
     151A     -0.892469   152A     -0.890513   153A     -0.890454
     154A     -0.889590   155A     -0.872319   156A     -0.869134
     157A     -0.851648   158A     -0.848009   159A     -0.847986
     160A     -0.845744   161A     -0.843151   162A     -0.834682
     163A     -0.834669   164A     -0.828211   165A     -0.828208
     166A     -0.784670   167A     -0.784659   168A     -0.783795
     169A     -0.783768   170A     -0.782416   171A     -0.782396
     172A     -0.782178   173A     -0.767107   174A     -0.760949
     175A     -0.750724   176A     -0.733584   177A     -0.727188
     178A     -0.727176   179A     -0.725212   180A     -0.724655
     181A     -0.724638   182A     -0.718650   183A     -0.713916
     184A     -0.713910   185A     -0.699690   186A     -0.699679
     187A     -0.686283   188A     -0.686059   189A     -0.686056
     190A     -0.682282   191A     -0.682270   192A     -0.678909
     193A     -0.653742   194A     -0.650990   195A     -0.650961
     196A     -0.649961   197A     -0.649946   198A     -0.649666
     199A     -0.641079   200A     -0.641055   201A     -0.640191
     202A     -0.639256   203A     -0.636155   204A     -0.636129
     205A     -0.629260   206A     -0.617673   207A     -0.615400
     208A     -0.615380   209A     -0.608911   210A     -0.608905
     211A     -0.599179   212A     -0.599138   213A     -0.598866
     214A     -0.598743   215A     -0.598715   216A     -0.598188
     217A     -0.595167   218A     -0.595155   219A     -0.594837
     220A     -0.594393   221A     -0.592082   222A     -0.592079
     223A     -0.587549   224A     -0.577875   225A     -0.577865
     226A     -0.575727   227A     -0.575724   228A     -0.573487
     229A     -0.569572   230A     -0.568286   231A     -0.568264
     232A     -0.566874   233A     -0.566862   234A     -0.560994
     235A     -0.558850   236A     -0.558831   237A     -0.558511
     238A     -0.554485   239A     -0.550624   240A     -0.547554
     241A     -0.544335   242A     -0.535044   243A     -0.534991
     244A     -0.533647   245A     -0.533624   246A     -0.528176
     247A     -0.528161   248A     -0.527947   249A     -0.517306
     250A     -0.517272   251A     -0.515420   252A     -0.515415
     253A     -0.509740   254A     -0.509723   255A     -0.498134
     256A     -0.496564   257A     -0.496538   258A     -0.493837
     259A     -0.493826   260A     -0.489474   261A     -0.481548
     262A     -0.477484   263A     -0.477480   264A     -0.474099
     265A     -0.469567   266A     -0.466644   267A     -0.466639
     268A     -0.458870   269A     -0.446849   270A     -0.446788
     271A     -0.441094   272A     -0.440820   273A     -0.440800
     274A     -0.434752   275A     -0.433969   276A     -0.407443
     277A     -0.407419   278A     -0.386479   279A     -0.386430
     280A     -0.385793   281A     -0.385792   282A     -0.383823
     283A     -0.354394   284A     -0.354378   285A     -0.350732
     286A     -0.338161   287A     -0.335665   288A     -0.335589
     289A     -0.332776   290A     -0.332769   291A     -0.307158
     292A     -0.302019   293A     -0.301958   294A     -0.300908
     295A     -0.286237   296A     -0.256523   297A     -0.253573
     298A     -0.253518   299A     -0.204330   300A     -0.204242

  @DF-RHF Final Energy: -3650.33778017657914

   => Energetics <=

    Nuclear Repulsion Energy =          15611.4211649754324753
    One-Electron Energy =              -36072.0824848551055766
    Two-Electron Energy =               16810.3235397030948661
    Total Energy =                      -3650.3377801765782351
 Dipole X            :         -0.0008661            0.0001983           -0.0006678
 Dipole Y            :          0.0011077           -0.0013163           -0.0002086
 Dipole Z            :        484.1757321         -484.1799618           -0.0042297
 Magnitude           :                                                    0.0042871

    SAPT Results
  --------------------------------------------------------------------------------------------------------
    Electrostatics                  9.44895461 [mEh]       5.92930854 [kcal/mol]      24.80822692 [kJ/mol]
      Elst10,r                      9.44895461 [mEh]       5.92930854 [kcal/mol]      24.80822692 [kJ/mol]

    Exchange                        0.00055385 [mEh]       0.00034754 [kcal/mol]       0.00145412 [kJ/mol]
      Exch10                        0.00055385 [mEh]       0.00034754 [kcal/mol]       0.00145412 [kJ/mol]
      Exch10(S^2)                   0.00055385 [mEh]       0.00034755 [kcal/mol]       0.00145414 [kJ/mol]

    Induction                      -4.63139487 [mEh]      -2.90624416 [kcal/mol]     -12.15972555 [kJ/mol]
      Ind20,r                      -4.66110373 [mEh]      -2.92488675 [kcal/mol]     -12.23772616 [kJ/mol]
      Exch-Ind20,r                  0.00101216 [mEh]       0.00063514 [kcal/mol]       0.00265743 [kJ/mol]
      delta HF,r (2)                0.02869670 [mEh]       0.01800745 [kcal/mol]       0.07534317 [kJ/mol]

    Dispersion                     -0.84759634 [mEh]      -0.53187474 [kcal/mol]      -2.22536390 [kJ/mol]
      Disp20                       -0.84864965 [mEh]      -0.53253570 [kcal/mol]      -2.22812936 [kJ/mol]
      Exch-Disp20                   0.00105331 [mEh]       0.00066096 [kcal/mol]       0.00276546 [kJ/mol]
      Disp20 (SS)                  -0.42432483 [mEh]      -0.26626785 [kcal/mol]      -1.11406468 [kJ/mol]
      Disp20 (OS)                  -0.42432483 [mEh]      -0.26626785 [kcal/mol]      -1.11406468 [kJ/mol]
      Exch-Disp20 (SS)              0.00080531 [mEh]       0.00050534 [kcal/mol]       0.00211433 [kJ/mol]
      Exch-Disp20 (OS)              0.00024800 [mEh]       0.00015563 [kcal/mol]       0.00065114 [kJ/mol]

  Total HF                          4.81811359 [mEh]       3.02341192 [kcal/mol]      12.64995549 [kJ/mol]
  Total SAPT0                       3.97051725 [mEh]       2.49153719 [kcal/mol]      10.42459159 [kJ/mol]

  Special recipe for scaled SAPT0 (see Manual):
    Electrostatics sSAPT0           9.44895461 [mEh]       5.92930854 [kcal/mol]      24.80822692 [kJ/mol]
    Exchange sSAPT0                 0.00055385 [mEh]       0.00034754 [kcal/mol]       0.00145412 [kJ/mol]
    Induction sSAPT0               -4.63139487 [mEh]      -2.90624416 [kcal/mol]     -12.15972555 [kJ/mol]
    Dispersion sSAPT0              -0.84759634 [mEh]      -0.53187474 [kcal/mol]      -2.22536390 [kJ/mol]
  Total sSAPT0                      3.97051725 [mEh]       2.49153719 [kcal/mol]      10.42459159 [kJ/mol]
  --------------------------------------------------------------------------------------------------------

*** Psi4 exiting successfully. Buy a developer a beer!
