                               Psi4 1.9 release

  ==> Input File <==

--------------------------------------------------------------------------
memory 64 GB # how much memory is available ! Depends on the nodes/cores !

molecule dimer {
# monomer A
-1 1    # Charge and multiplicity
B -1.977592e-04  2.742729e-04 7.600034
F  1.123153e-16  1.430594e-17 9.012819
F  1.147860e+00  6.757812e-01 7.128893
F  1.191806e-02 -1.332011e+00 7.129095
F -1.159666e+00  6.560735e-01 7.129174
--
# monomer B
0 1     # Charge and multiplicity
C   -3.66844126402057      7.80375217008252      0.00190004133558
C   -4.84759871934653      7.13124183134024     -0.00046653359696
C   -4.89495929917518      5.69633040353158     -0.00103944469517
C   -3.65374067877320      4.98073034095895      0.00662099703436
C   -2.40942512149445      7.11398103667468      0.00209438359570
C   -2.42547734410473      5.68112195090346     -0.00491050527438
C   -1.19474401643570      7.78614419430947      0.00356656413763
C   0.03795902893699      7.09942164575698      0.00139585983271
C   0.03033258741920      5.66948955970466     -0.00408752508301
C   -1.20098450790502      4.96927034791531      0.00488220885047
C   1.27795782581485      7.77285944319479      0.00277170839332
C   2.48535808472416      7.08769688523756      0.00049722048857
C   2.48612868491717      5.65477081024076     -0.00644052849921
C   1.25408291964399      4.95607811366431      0.00518741308898
C   3.75171459140595      7.76391215098033      0.00062407186893
C   4.92356605618520      7.07878077698995     -0.00143240883900
C   4.95560727132542      5.64344746336949     -0.00159282164606
C   3.70680153420475      4.94121020833308      0.00349873852374
H   -3.65852113775815      8.89082741913536      0.00358502958574
H   -1.18921332975660      8.87412108735996      0.00753844057883
H   1.28429423888630      8.86083343548850      0.00693053253426
H   3.75354208679975      8.85103527897216      0.00214659618464
H   5.86995870320703      7.61379483465560     -0.00235777588134
H   -5.78823170750226      7.67630221293400     -0.00202638095293
C   -6.09197395869619      4.99326001364347     -0.00291168518608
C   -6.12866148031747      3.58258016879823     -0.00171050815740
C   -3.66457974004527      3.56418217974434     -0.00463560277484
C   -4.89429820469869      2.86108077590057      0.00453338221034
C   -2.43733499489796      2.84761165708481      0.00719617576166
C   -1.20922785759670      3.54788693497833     -0.00648285103018
C   1.24714157216223      3.53468075142962     -0.00729145743546
C   0.01517603956900      2.83311183930540      0.00439272578912
C   2.46764517244071      2.82128997725533      0.00449278391269
C   3.70254947457969      3.52466015442405     -0.00899517692985
C   6.14498038638375      4.92757236613191     -0.00282626685777
C   6.16658835886151      3.51658447594213     -0.00065971342101
C   4.92460995845939      2.80840792535402      0.00587903281610
H   7.08990550964105      5.46688776622306     -0.00658814770723
H   -7.03104175110130      5.54268795285765     -0.00714490013730
C   -7.33969804112295      2.85841153457957     -0.00333767559888
C   -7.36488195805880      1.47032337158330     -0.00157213747140
C   -4.90350460894690      1.44442681216000     -0.00628840166334
C   -6.13225715261081      0.73993935705394      0.00600164231964
C   -3.67687480051673      0.72669714267312      0.00433931473643
C   -2.44565658606518      1.42964113326212     -0.00597039546461
C   -1.22360068130162      0.71532450163492      0.00545886906656
C   0.00763786931376      1.41738314923765      0.00392452278437
C   1.23121980774686      0.70211669058719     -0.01490206287210
C   2.46082110053113      1.40329203612573      0.00460244601878
C   3.68443025419614      0.68719842821222      0.00377365974158
C   4.91870890153864      1.39173456118907     -0.00862816189375
C   7.36980207796101      2.77948220318441     -0.00242013321349
C   7.38016266612146      1.39121750785509     -0.00087345036788
C   6.13979953912259      0.67411862320065      0.00545489144369
H   -8.27919079934664      3.40711804112415     -0.00763522772059
H   8.31511347147953      3.31811809662368     -0.00663070901292
C   -8.59175593758115      0.72483255304480     -0.00123170985383
C   -8.59902460370342     -0.63263980622873      0.00089141472904
C   -6.13981313911873     -0.67413663715361     -0.00609792660607
C   -7.38018411213749     -1.39126618958160      0.00131813493501
C   -4.91868448025621     -1.39175501803000      0.00624257154343
C   -3.68443829568458     -0.68723731573599     -0.00478966852105
C   -2.46081704024768     -1.40334517882457      0.00575341766833
C   -1.23116201232071     -0.70217386488055     -0.00636696112346
C   -0.00756962538737     -1.41741884941102      0.00108956317991
C   1.22364771588843     -0.71527537726392      0.01109518512883
C   2.44567064933149     -1.42964328900682     -0.00065482763106
C   3.67686670284649     -0.72670743155550     -0.00479541202602
C   6.13224884641929     -0.73997883984993     -0.00632338623858
C   4.90351914550401     -1.44445752054090      0.00751768830159
C   8.59901484869081      0.63260386666793     -0.00101133422380
C   8.59174548810050     -0.72485086719319      0.00072504603735
C   7.36486276438985     -1.47033266560598      0.00049486934466
H   -9.52830597181814      1.27684744919284     -0.00270163681798
H   9.54141097460619      1.17457248844457     -0.00206336648518
C   -7.36983790976868     -2.77954514593389      0.00312634335708
C   -4.92459910905015     -2.80843725734101     -0.00460528907921
C   -6.16662249566744     -3.51665219282533      0.00169655107992
C   -3.70251035970491     -3.52468154912026      0.00571878010666
C   -2.46764698511392     -2.82132596280400     -0.00632585824990
C   -0.01513347410770     -2.83314164539971     -0.00604426974092
C   -1.24712184122656     -3.53473217556300      0.00551968366725
C   1.20924506964357     -3.54791467864352      0.00805871345849
C   2.43733602215464     -2.84764173817541     -0.00608104485234
C   4.89430234377080     -2.86112296828604     -0.00526030478103
C   3.66461525504104     -3.56421984553201      0.00761911515957
C   6.12863901474565     -3.58258405771778      0.00096495711699
C   7.33967266469532     -2.85841330737039      0.00248018319869
H   -9.54144911125902     -1.17456346666430      0.00226083090216
H   9.52826186807155     -1.27691907390448      0.00197485379837
H   -8.31516504384864     -3.31814985321231      0.00729857188773
H   8.27915514249207     -3.40714078989363      0.00681973918158
C   -6.14499418870218     -4.92764727278338      0.00302254913999
C   -3.70678334799751     -4.94126171411716     -0.00679841894792
C   -4.95559005800169     -5.64349397349412      0.00116871569699
C   -2.48612132622665     -5.65478557440947      0.00614125209662
C   -1.25405833548005     -4.95612205000132     -0.00503435388927
C   1.20101257386816     -4.96928038819302     -0.00385322963129
C   -0.03033667441341     -5.66952030313900      0.00398997003238
C   3.65375010132847     -4.98074377541453     -0.00309522988330
C   2.42549269587528     -5.68117463552727      0.00628170066869
C   6.09196561781097     -4.99325796338655      0.00325918379042
C   4.89497644461045     -5.69634842095790      0.00202298796027
H   -7.08989238804069     -5.46699984223871      0.00742531082125
H   7.03105520920009     -5.54265853633254      0.00683896355417
C   -4.92354532219813     -7.07882109967734      0.00061394679214
C   -2.48534208823777     -7.08772807792913     -0.00189594564379
C   -3.75168589177895     -7.76394715763627     -0.00170126671874
C   -0.03794895698805     -7.09946487446944     -0.00168022049625
C   -1.27795610040136     -7.77290438466689     -0.00366491325785
C   2.40944432072629     -7.11402201200282     -0.00081701968533
C   1.19474993715296     -7.78618536556242     -0.00296931056689
C   4.84762105249800     -7.13126211057943      0.00168979497423
C   3.66847160587561     -7.80378799294376     -0.00065863938960
H   -5.86994035041618     -7.61383059804164      0.00215798365757
H   5.78824962538815     -7.67633218931421      0.00281691445618
H   -3.75352693944918     -8.85107156923607     -0.00353718114765
H   -1.28430440589466     -8.86087539249706     -0.00809229711623
H   1.18922157469537     -8.87416062058945     -0.00706194725726
H   3.65854661482387     -8.89086063405326     -0.00231318081200

    units angstrom      # Angstroms are the default
    no_reorient         # Geometry fixed, default
    symmetry c1         # C1 symmetry, default
}

set {
    scf_type DF         # Density fitting, faster than exact integrals
    freeze_core True    # Freeze core electrons
    basis jun-cc-pVDZ   # Jun-cc-pVDZ basis set, recommended for sSAPT0 in https://doi.org/10.1063/1.4867135
}

energy('ssapt0')        # Compute sSAPT0 energy, includes also SAPT0
--------------------------------------------------------------------------

  //              Dimer HF             //
    Molecular point group: c1
  Charge       = -1
  Multiplicity = 1
  Basis Set: JUN-CC-PVDZ
    Blend: JUN-CC-PVDZ
  Basis Set: (JUN-CC-PVDZ AUX)
    Blend: JUN-CC-PVDZ-JKFIT
  @DF-RHF Final Energy: -4073.10381091302224
    Total Energy =                      -4073.1038109130204248
 Dipole X            :         -0.0007946           -0.0000548           -0.0008494
 Dipole Y            :          0.0010242           -0.0002464            0.0007779
 Dipole Z            :         32.7474647          -45.2290830          -12.4816183
 Magnitude           :                                                   12.4816183
  //            Monomer A HF           //
    Molecular point group: c1
  Multiplicity = 1
  Basis Set: JUN-CC-PVDZ
    Blend: JUN-CC-PVDZ
  Basis Set: (JUN-CC-PVDZ AUX)
    Blend: JUN-CC-PVDZ-JKFIT
  @DF-RHF Final Energy:  -422.77141211026344
    Total Energy =                       -422.7714121102634408
  //            Monomer B HF           //
    Molecular point group: c1

    Geometry (in Angstrom), charge = 0, multiplicity = 1:

       Center              X                  Y                   Z               Mass
    ------------   -----------------  -----------------  -----------------  -----------------
      Gh(B)          -0.000201921932     0.000288800891     7.076576911208    11.009305360000
      Gh(F)          -0.000004162732     0.000014527991     8.489361911208    18.998403162730
      Gh(F)           1.147855837268     0.675795727991     6.605435911208    18.998403162730
      Gh(F)           0.011913897268    -1.331996472009     6.605637911208    18.998403162730
      Gh(F)          -1.159670162732     0.656088027991     6.605716911208    18.998403162730
         C           -3.668445426752     7.803766698073    -0.521557047456    12.000000000000
         C           -4.847602882078     7.131256359331    -0.523923622389    12.000000000000
         C           -4.894963461907     5.696344931522    -0.524496533487    12.000000000000
         C           -3.653744841505     4.980744868950    -0.516836091757    12.000000000000
         C           -2.409429284226     7.113995564665    -0.521362705196    12.000000000000
         C           -2.425481506836     5.681136478894    -0.528367594066    12.000000000000
         C           -1.194748179167     7.786158722300    -0.519890524654    12.000000000000
         C            0.037954866205     7.099436173748    -0.522061228959    12.000000000000
         C            0.030328424687     5.669504087695    -0.527544613875    12.000000000000
         C           -1.200988670637     4.969284875906    -0.518574879941    12.000000000000
         C            1.277953663083     7.772873971185    -0.520685380398    12.000000000000
         C            2.485353921992     7.087711413228    -0.522959868303    12.000000000000
         C            2.486124522185     5.654785338231    -0.529897617291    12.000000000000
         C            1.254078756912     4.956092641655    -0.518269675703    12.000000000000
         C            3.751710428674     7.763926678971    -0.522833016923    12.000000000000
         C            4.923561893453     7.078795304981    -0.524889497631    12.000000000000
         C            4.955603108594     5.643461991360    -0.525049910438    12.000000000000
         C            3.706797371473     4.941224736324    -0.519958350268    12.000000000000
         H           -3.658525300490     8.890841947126    -0.519872059206     1.007825032230
         H           -1.189217492488     8.874135615351    -0.515918648213     1.007825032230
         H            1.284290076155     8.860847963479    -0.516526556257     1.007825032230
         H            3.753537924068     8.851049806963    -0.521310492607     1.007825032230
         H            5.869954540475     7.613809362646    -0.525814864673     1.007825032230
         H           -5.788235870234     7.676316740925    -0.525483469745     1.007825032230
         C           -6.091978121428     4.993274541634    -0.526368773978    12.000000000000
         C           -6.128665643049     3.582594696789    -0.525167596949    12.000000000000
         C           -3.664583902777     3.564196707735    -0.528092691567    12.000000000000
         C           -4.894302367430     2.861095303891    -0.518923706581    12.000000000000
         C           -2.437339157630     2.847626185075    -0.516260913030    12.000000000000
         C           -1.209232020328     3.547901462969    -0.529939939822    12.000000000000
         C            1.247137409430     3.534695279420    -0.530748546227    12.000000000000
         C            0.015171876837     2.833126367296    -0.519064363003    12.000000000000
         C            2.467641009709     2.821304505246    -0.518964304879    12.000000000000
         C            3.702545311848     3.524674682415    -0.532452265722    12.000000000000
         C            6.144976223652     4.927586894122    -0.526283355649    12.000000000000
         C            6.166584196130     3.516599003933    -0.524116802213    12.000000000000
         C            4.924605795728     2.808422453345    -0.517578055976    12.000000000000
         H            7.089901346909     5.466902294214    -0.530045236499     1.007825032230
         H           -7.031045913833     5.542702480848    -0.530601988929     1.007825032230
         C           -7.339702203855     2.858426062570    -0.526794764391    12.000000000000
         C           -7.364886120791     1.470337899574    -0.525029226263    12.000000000000
         C           -4.903508771679     1.444441340151    -0.529745490455    12.000000000000
         C           -6.132261315343     0.739953885044    -0.517455446472    12.000000000000
         C           -3.676878963248     0.726711670664    -0.519117774055    12.000000000000
         C           -2.445660748797     1.429655661253    -0.529427484256    12.000000000000
         C           -1.223604844033     0.715339029625    -0.517998219725    12.000000000000
         C            0.007633706582     1.417397677228    -0.519532566007    12.000000000000
         C            1.231215645015     0.702131218578    -0.538359151664    12.000000000000
         C            2.460816937799     1.403306564116    -0.518854642773    12.000000000000
         C            3.684426091464     0.687212956203    -0.519683429050    12.000000000000
         C            4.918704738807     1.391749089180    -0.532085250685    12.000000000000
         C            7.369797915229     2.779496731175    -0.525877222005    12.000000000000
         C            7.380158503390     1.391232035846    -0.524330539160    12.000000000000
         C            6.139795376391     0.674133151191    -0.518002197348    12.000000000000
         H           -8.279194962078     3.407132569115    -0.531092316512     1.007825032230
         H            8.315109308748     3.318132624614    -0.530087797805     1.007825032230
         C           -8.591760100313     0.724847081035    -0.524688798646    12.000000000000
         C           -8.599028766435    -0.632625278238    -0.522565674063    12.000000000000
         C           -6.139817301850    -0.674122109163    -0.529555015398    12.000000000000
         C           -7.380188274869    -1.391251661591    -0.522138953857    12.000000000000
         C           -4.918688642988    -1.391740490039    -0.517214517248    12.000000000000
         C           -3.684442458416    -0.687222787745    -0.528246757313    12.000000000000
         C           -2.460821202979    -1.403330650834    -0.517703671123    12.000000000000
         C           -1.231166175052    -0.702159336890    -0.529824049915    12.000000000000
         C           -0.007573788119    -1.417404321420    -0.522367525612    12.000000000000
         C            1.223643553157    -0.715260849273    -0.512361903663    12.000000000000
         C            2.445666486600    -1.429628761016    -0.524111916423    12.000000000000
         C            3.676862540115    -0.726692903565    -0.528252500818    12.000000000000
         C            6.132244683688    -0.739964311859    -0.529780475030    12.000000000000
         C            4.903514982772    -1.444442992550    -0.515939400490    12.000000000000
         C            8.599010685959     0.632618394658    -0.524468423016    12.000000000000
         C            8.591741325369    -0.724836339203    -0.522732042754    12.000000000000
         C            7.364858601658    -1.470318137615    -0.522962219447    12.000000000000
         H           -9.528310134550     1.276861977183    -0.526158725610     1.007825032230
         H            9.541406811874     1.174587016435    -0.525520455277     1.007825032230
         C           -7.369842072500    -2.779530617943    -0.520330745435    12.000000000000
         C           -4.924603271782    -2.808422729350    -0.528062377871    12.000000000000
         C           -6.166626658399    -3.516637664835    -0.521760537712    12.000000000000
         C           -3.702514522437    -3.524667021130    -0.517738308685    12.000000000000
         C           -2.467651147846    -2.821311434813    -0.529782947042    12.000000000000
         C           -0.015137636839    -2.833127117409    -0.529501358533    12.000000000000
         C           -1.247126003958    -3.534717647572    -0.517937405124    12.000000000000
         C            1.209240906912    -3.547900150653    -0.515398375333    12.000000000000
         C            2.437331859423    -2.847627210185    -0.529538133644    12.000000000000
         C            4.894298181039    -2.861108440295    -0.528717393573    12.000000000000
         C            3.664611092309    -3.564205317541    -0.515837973632    12.000000000000
         C            6.128634852014    -3.582569529727    -0.522492131675    12.000000000000
         C            7.339668501964    -2.858398779380    -0.520976905593    12.000000000000
         H           -9.541453273991    -1.174548938674    -0.521196257890     1.007825032230
         H            9.528257705340    -1.276904545914    -0.521482234993     1.007825032230
         H           -8.315169206580    -3.318135325222    -0.516158516904     1.007825032230
         H            8.279150979760    -3.407126261903    -0.516637349610     1.007825032230
         C           -6.144998351434    -4.927632744793    -0.520434539652    12.000000000000
         C           -3.706787510729    -4.941247186127    -0.530255507740    12.000000000000
         C           -4.955594220733    -5.643479445504    -0.522288373095    12.000000000000
         C           -2.486125488958    -5.654771046419    -0.517315836695    12.000000000000
         C           -1.254062498212    -4.956107522011    -0.528491442681    12.000000000000
         C            1.201008411136    -4.969265860202    -0.527310318423    12.000000000000
         C           -0.030340837145    -5.669505775148    -0.519467118759    12.000000000000
         C            3.653745938597    -4.980729247424    -0.526552318675    12.000000000000
         C            2.425488533144    -5.681160107537    -0.517175388123    12.000000000000
         C            6.091961455079    -4.993243435396    -0.520197905001    12.000000000000
         C            4.894972281879    -5.696333892967    -0.521434100831    12.000000000000
         H           -7.089896550772    -5.466985314248    -0.516031777970     1.007825032230
         H            7.031051046468    -5.542644008342    -0.516618125238     1.007825032230
         C           -4.923549484930    -7.078806571687    -0.522843142000    12.000000000000
         C           -2.485346250970    -7.087713549939    -0.525353034436    12.000000000000
         C           -3.751690054511    -7.763932629646    -0.525158355510    12.000000000000
         C           -0.037953119720    -7.099450346479    -0.525137309288    12.000000000000
         C           -1.277960263133    -7.772889856676    -0.527122002050    12.000000000000
         C            2.409440157995    -7.114007484012    -0.524274108477    12.000000000000
         C            1.194745774421    -7.786170837572    -0.526426399359    12.000000000000
         C            4.847616889766    -7.131247582589    -0.521767293817    12.000000000000
         C            3.668467443144    -7.803773464953    -0.524115728181    12.000000000000
         H           -5.869944513148    -7.613816070051    -0.521299105134     1.007825032230
         H            5.788245462656    -7.676317661324    -0.520640174336     1.007825032230
         H           -3.753531102181    -8.851057041246    -0.526994269939     1.007825032230
         H           -1.284308568626    -8.860860864507    -0.531549385908     1.007825032230
         H            1.189217411964    -8.874146092599    -0.530519036049     1.007825032230
         H            3.658542452092    -8.890846106063    -0.525770269604     1.007825032230

  Charge       = 0
  Multiplicity = 1
  Basis Set: JUN-CC-PVDZ
    Blend: JUN-CC-PVDZ
  Basis Set: (JUN-CC-PVDZ AUX)
    Blend: JUN-CC-PVDZ-JKFIT

    Orbital Energies [Eh]
    ---------------------

    Doubly Occupied:

       1A    -11.264063     2A    -11.263748     3A    -11.263748
       4A    -11.263406     5A    -11.263404     6A    -11.263368
       7A    -11.263212     8A    -11.263185     9A    -11.263182
      10A    -11.263025    11A    -11.262866    12A    -11.262861
      13A    -11.262382    14A    -11.262379    15A    -11.262305
      16A    -11.262304    17A    -11.262254    18A    -11.262218
      19A    -11.262173    20A    -11.262134    21A    -11.262133
      22A    -11.261979    23A    -11.261975    24A    -11.261854
      25A    -11.261839    26A    -11.261826    27A    -11.261822
      28A    -11.261774    29A    -11.261767    30A    -11.261694
      31A    -11.261668    32A    -11.261665    33A    -11.261639
      34A    -11.261637    35A    -11.261617    36A    -11.261571
      37A    -11.261428    38A    -11.261417    39A    -11.261411
      40A    -11.261403    41A    -11.261398    42A    -11.261390
      43A    -11.261386    44A    -11.261372    45A    -11.261367
      46A    -11.261345    47A    -11.261341    48A    -11.261336
      49A    -11.261185    50A    -11.261154    51A    -11.261152
      52A    -11.261072    53A    -11.261071    54A    -11.261001
      55A    -11.260030    56A    -11.260017    57A    -11.260014
      58A    -11.259985    59A    -11.259983    60A    -11.259967
      61A    -11.259408    62A    -11.259383    63A    -11.259380
      64A    -11.259328    65A    -11.259326    66A    -11.259297
      67A    -11.259034    68A    -11.259017    69A    -11.259015
      70A    -11.258987    71A    -11.258985    72A    -11.258974
      73A    -11.254600    74A    -11.254599    75A    -11.254597
      76A    -11.254595    77A    -11.254589    78A    -11.254587
      79A    -11.253753    80A    -11.253751    81A    -11.253749
      82A    -11.253747    83A    -11.253745    84A    -11.253739
      85A    -11.253669    86A    -11.253667    87A    -11.253664
      88A    -11.253663    89A    -11.253660    90A    -11.253655
      91A    -11.253128    92A    -11.253126    93A    -11.253125
      94A    -11.253123    95A    -11.253117    96A    -11.253115
      97A     -1.254161    98A     -1.239161    99A     -1.239161
     100A     -1.220602   101A     -1.220597   102A     -1.215633
     103A     -1.201161   104A     -1.195732   105A     -1.188322
     106A     -1.188321   107A     -1.173881   108A     -1.173878
     109A     -1.155794   110A     -1.155791   111A     -1.152901
     112A     -1.144834   113A     -1.144831   114A     -1.128716
     115A     -1.114876   116A     -1.113276   117A     -1.112662
     118A     -1.112648   119A     -1.111724   120A     -1.088577
     121A     -1.088563   122A     -1.077072   123A     -1.077070
     124A     -1.067772   125A     -1.067743   126A     -1.065145
     127A     -1.046936   128A     -1.046928   129A     -1.040625
     130A     -1.038844   131A     -1.038843   132A     -1.025412
     133A     -1.021587   134A     -1.021537   135A     -1.007306
     136A     -1.006952   137A     -1.003926   138A     -1.000654
     139A     -1.000606   140A     -0.991179   141A     -0.971141
     142A     -0.971093   143A     -0.956006   144A     -0.955951
     145A     -0.905784   146A     -0.905743   147A     -0.905651
     148A     -0.905610   149A     -0.904543   150A     -0.892555
     151A     -0.892496   152A     -0.890539   153A     -0.890482
     154A     -0.889612   155A     -0.872335   156A     -0.869145
     157A     -0.851665   158A     -0.848034   159A     -0.848011
     160A     -0.845770   161A     -0.843173   162A     -0.834701
     163A     -0.834688   164A     -0.828226   165A     -0.828223
     166A     -0.784691   167A     -0.784680   168A     -0.783819
     169A     -0.783793   170A     -0.782438   171A     -0.782418
     172A     -0.782204   173A     -0.767125   174A     -0.760977
     175A     -0.750752   176A     -0.733600   177A     -0.727207
     178A     -0.727194   179A     -0.725234   180A     -0.724674
     181A     -0.724656   182A     -0.718681   183A     -0.713942
     184A     -0.713936   185A     -0.699710   186A     -0.699698
     187A     -0.686314   188A     -0.686074   189A     -0.686072
     190A     -0.682298   191A     -0.682288   192A     -0.678935
     193A     -0.653763   194A     -0.651012   195A     -0.650982
     196A     -0.649989   197A     -0.649974   198A     -0.649682
     199A     -0.641109   200A     -0.641082   201A     -0.640207
     202A     -0.639270   203A     -0.636180   204A     -0.636153
     205A     -0.629279   206A     -0.617668   207A     -0.615415
     208A     -0.615396   209A     -0.608930   210A     -0.608923
     211A     -0.599193   212A     -0.599154   213A     -0.598888
     214A     -0.598764   215A     -0.598737   216A     -0.598219
     217A     -0.595183   218A     -0.595170   219A     -0.594857
     220A     -0.594424   221A     -0.592106   222A     -0.592103
     223A     -0.587580   224A     -0.577887   225A     -0.577877
     226A     -0.575740   227A     -0.575737   228A     -0.573504
     229A     -0.569572   230A     -0.568317   231A     -0.568292
     232A     -0.566894   233A     -0.566884   234A     -0.561007
     235A     -0.558874   236A     -0.558855   237A     -0.558524
     238A     -0.554505   239A     -0.550637   240A     -0.547566
     241A     -0.544347   242A     -0.535043   243A     -0.535003
     244A     -0.533668   245A     -0.533645   246A     -0.528193
     247A     -0.528178   248A     -0.527976   249A     -0.517335
     250A     -0.517301   251A     -0.515432   252A     -0.515427
     253A     -0.509755   254A     -0.509739   255A     -0.498152
     256A     -0.496584   257A     -0.496558   258A     -0.493851
     259A     -0.493840   260A     -0.489484   261A     -0.481564
     262A     -0.477495   263A     -0.477492   264A     -0.474117
     265A     -0.469588   266A     -0.466665   267A     -0.466660
     268A     -0.458884   269A     -0.446881   270A     -0.446820
     271A     -0.441109   272A     -0.440834   273A     -0.440809
     274A     -0.434763   275A     -0.433980   276A     -0.407457
     277A     -0.407433   278A     -0.386494   279A     -0.386446
     280A     -0.385804   281A     -0.385803   282A     -0.383839
     283A     -0.354408   284A     -0.354391   285A     -0.350746
     286A     -0.338180   287A     -0.335680   288A     -0.335611
     289A     -0.332787   290A     -0.332780   291A     -0.307174
     292A     -0.302037   293A     -0.301974   294A     -0.300921
     295A     -0.286250   296A     -0.256534   297A     -0.253588
     298A     -0.253535   299A     -0.204345   300A     -0.204255

  @DF-RHF Final Energy: -3650.33750533153125

   => Energetics <=

    Nuclear Repulsion Energy =          15611.4211649754324753
    One-Electron Energy =              -36072.0710851193798590
    Two-Electron Energy =               16810.3124148124152271
    Total Energy =                      -3650.3375053315321566
 Dipole X            :         -0.0009591            0.0002304           -0.0007287
 Dipole Y            :          0.0010700           -0.0013052           -0.0002352
 Dipole Z            :        593.5100442         -593.5109298           -0.0008857
 Magnitude           :                                                    0.0011708

    SAPT Results
  --------------------------------------------------------------------------------------------------------
    Electrostatics                  7.58579967 [mEh]       4.76016116 [kcal/mol]      19.91651429 [kJ/mol]
      Elst10,r                      7.58579967 [mEh]       4.76016116 [kcal/mol]      19.91651429 [kJ/mol]

    Exchange                       -0.00011400 [mEh]      -0.00007153 [kcal/mol]      -0.00029930 [kJ/mol]
      Exch10                       -0.00011400 [mEh]      -0.00007153 [kcal/mol]      -0.00029930 [kJ/mol]
      Exch10(S^2)                  -0.00011400 [mEh]      -0.00007153 [kcal/mol]      -0.00029930 [kJ/mol]

    Induction                      -2.47915690 [mEh]      -1.55569444 [kcal/mol]      -6.50902554 [kJ/mol]
      Ind20,r                      -2.48976821 [mEh]      -1.56235314 [kcal/mol]      -6.53688554 [kJ/mol]
      Exch-Ind20,r                  0.00004396 [mEh]       0.00002759 [kcal/mol]       0.00011542 [kJ/mol]
      delta HF,r (2)                0.01056735 [mEh]       0.00663111 [kcal/mol]       0.02774458 [kJ/mol]

    Dispersion                     -0.30531112 [mEh]      -0.19158562 [kcal/mol]      -0.80159423 [kJ/mol]
      Disp20                       -0.30533438 [mEh]      -0.19160022 [kcal/mol]      -0.80165532 [kJ/mol]
      Exch-Disp20                   0.00002327 [mEh]       0.00001460 [kcal/mol]       0.00006109 [kJ/mol]
      Disp20 (SS)                  -0.15266719 [mEh]      -0.09580011 [kcal/mol]      -0.40082766 [kJ/mol]
      Disp20 (OS)                  -0.15266719 [mEh]      -0.09580011 [kcal/mol]      -0.40082766 [kJ/mol]
      Exch-Disp20 (SS)              0.00001805 [mEh]       0.00001132 [kcal/mol]       0.00004738 [kJ/mol]
      Exch-Disp20 (OS)              0.00000522 [mEh]       0.00000328 [kcal/mol]       0.00001371 [kJ/mol]

  Total HF                          5.10652877 [mEh]       3.20439518 [kcal/mol]      13.40718945 [kJ/mol]
  Total SAPT0                       4.80121766 [mEh]       3.01280956 [kcal/mol]      12.60559522 [kJ/mol]

  Special recipe for scaled SAPT0 (see Manual):
    Electrostatics sSAPT0           7.58579967 [mEh]       4.76016116 [kcal/mol]      19.91651429 [kJ/mol]
    Exchange sSAPT0                -0.00011400 [mEh]      -0.00007153 [kcal/mol]      -0.00029930 [kJ/mol]
    Induction sSAPT0               -2.47915690 [mEh]      -1.55569444 [kcal/mol]      -6.50902554 [kJ/mol]
    Dispersion sSAPT0              -0.30531112 [mEh]      -0.19158562 [kcal/mol]      -0.80159423 [kJ/mol]
  Total sSAPT0                      4.80121766 [mEh]       3.01280956 [kcal/mol]      12.60559522 [kJ/mol]
  --------------------------------------------------------------------------------------------------------

*** Psi4 exiting successfully. Buy a developer a beer!
