                               Psi4 1.9 release

  ==> Input File <==

--------------------------------------------------------------------------
memory 32 GB # how much memory is available ! Depends on the nodes/cores !

molecule dimer {
# monomer A
+1 1    # Charge and multiplicity
C  0.680067 -1.215929 3.808042
C -0.680504 -1.215545 3.806014
N -1.085635  0.102779 3.805016
C  0.000108  0.884180 3.801740
C -2.477365  0.570758 3.755610
N  1.085222  0.102779 3.805016
H  1.385146 -2.033368 3.815870
H -1.385302 -2.033214 3.806204
H -0.000009  1.965269 3.799993
C  2.478117  0.567877 3.821908
H  2.490592  1.658130 3.794563
H  2.967028  0.220701 4.735354
H  3.001428  0.176405 2.946425
H -2.857359  0.490799 2.733539
H -3.082679 -0.042306 4.425694
H -2.518128  1.610706 4.082594
--
# monomer B
0 1     # Charge and multiplicity
C   1.22531237526482      0.70753866091955      0.00613762728373
C   1.22532433589282     -0.70753852257020     -0.00619318228664
C   -0.00000567409046      1.41496628609039     -0.00672680580738
C   2.45644923379077      1.41832825917820      0.00902448468363
C   0.00001130712078     -1.41497612663474      0.00347275151708
C   -1.22530046906674      0.70754574598412      0.00838914760619
C   2.45643823516184     -1.41832293188077     -0.00843833914343
C   -0.00000085313587      2.83680140328112     -0.00913035594137
C   3.68182717731192      0.70931832800114     -0.00808954934571
C   2.45512052870677      2.83422403348893     -0.00819210630633
C   3.68182158506039     -0.70933346742900      0.00798293467272
C   -1.22531311884624     -0.70752714354401     -0.00512042085974
C   1.22670006104402      3.54346985599427      0.00816696660346
C   0.00000526469929     -2.83678176723568      0.00832091913869
C   -2.45643555300670      1.41831729028492      0.00842454345199
C   2.45512389762097     -2.83422965658853      0.00783102630520
C   -1.22671388474763      3.54346943575023      0.00827029982280
C   4.91451777504333      1.42717324448953     -0.00160886631602
C   3.69315067131765      3.54279566454522     -0.00155906667985
C   -2.45643712022637     -1.41831290883911     -0.00846337726810
C   1.22670532178455     -3.54347386990643     -0.00780316414624
C   -2.45512491866593      2.83421703463423     -0.00818572995999
C   4.91452486062398     -1.42718653794377      0.00136387641845
C   1.22142509354026      4.97013443726031      0.00150231067809
C   4.89300870916237      2.82518837202648     -0.00039219795739
C   -1.22669652864725     -3.54347062507680     -0.00753595973677
C   -3.68181849668397      0.70932533873199     -0.00807686886569
C   3.69314758099218     -3.54280096939050      0.00148176697923
C   -1.22143177215231      4.97012866986289      0.00168580605083
C   6.13477145276790      0.68054831910577     -0.00083909176631
C   3.65678936045204      4.97295361556775     -0.00065042889723
C   -2.45512642789169     -2.83421472106065      0.00758666850712
C   -3.68181869921921     -0.70932533146830      0.00810055625144
C   4.89301309775526     -2.82519973363176      0.00021895393805
C   -0.00000059327114      5.65044773803267      0.00045449734393
C   6.13477559217374     -0.68055448207492      0.00042622874941
C   2.47813196269732      5.65357712333155      0.00063835075260
C   1.22142288457925     -4.97012668293268     -0.00129718634452
C   -3.69316190412301      3.54279732619245     -0.00139355922051
C   -1.22142804110313     -4.97011793159564     -0.00140994817719
C   -4.91452132810043      1.42717581899491     -0.00153192130862
C   3.65678749952045     -4.97295485423912      0.00080007163680
C   -2.47813805026426      5.65357479452875      0.00092287576113
C   -3.69314125872231     -3.54278984697859      0.00136564082345
C   -4.91451200321153     -1.42718062802730      0.00139857359209
C   -0.00000552908399     -5.65043791501335      0.00005899322272
C   -4.89302000425900      2.82518897091939     -0.00040227981744
C   2.47812647313991     -5.65357317188818     -0.00029052915548
C   -3.65679823041642      4.97295655404175     -0.00047374852278
C   -4.89299899901461     -2.82519139505969      0.00006491824035
C   -2.47812801824129     -5.65356579800621     -0.00056571680280
C   -6.13477002348955      0.68054913825639     -0.00086464346868
C   -3.65678835334731     -4.97294365097028      0.00058578382008
C   -6.13476456307132     -0.68055354348201      0.00040575295444
H   5.83528897565761      3.36927626695423      0.00396712770529
H   7.07385965258860      1.22821762089947     -0.00037744837300
H   4.60066374401555      5.51238117445323     -0.00014522814529
H   5.83528386714679     -3.36930568472863     -0.00423551337640
H   -0.00001167146422      6.73853104613662     -0.00389474766392
H   7.07386165167227     -1.22822657074368     -0.00008250934481
H   2.47331421164041      6.74068466339473      0.00017162982210
H   4.60066897122302     -5.51237575717576      0.00039007446835
H   -2.47331820069565      6.74068209160650      0.00047297644710
H   -0.00000978838621     -6.73852780445195      0.00458867820736
H   -5.83530143450167      3.36927132229595      0.00410314985360
H   2.47330840367253     -6.74068500242887      0.00027980126949
H   -4.60067436136587      5.51237839860371      0.00002010017831
H   -5.83527902699321     -3.36928859177951     -0.00451481925734
H   -2.47329986759855     -6.74067870613986     -0.00016951527498
H   -7.07385728692578      1.22822084484047     -0.00046143985387
H   -4.60067330624313     -5.51236229778631      0.00021776644566
H   -7.07385645456741     -1.22822025997701     -0.00017736581114

    units angstrom      # Angstroms are the default
    no_reorient         # Geometry fixed, default
    symmetry c1         # C1 symmetry, default
}

set {
    scf_type DF         # Density fitting, faster than exact integrals
    freeze_core True    # Freeze core electrons
    basis jun-cc-pVDZ   # Jun-cc-pVDZ basis set, recommended for sSAPT0 in https://doi.org/10.1063/1.4867135
}

energy('ssapt0')        # Compute sSAPT0 energy, includes also SAPT0
--------------------------------------------------------------------------

  //              Dimer HF             //
    Molecular point group: c1
  Charge       = 1
  Multiplicity = 1
  Basis Set: JUN-CC-PVDZ
    Blend: JUN-CC-PVDZ
  Basis Set: (JUN-CC-PVDZ AUX)
    Blend: JUN-CC-PVDZ-JKFIT
  @DF-RHF Final Energy: -2359.21244253928489
    Total Energy =                      -2359.2124425392848934
 Dipole X            :          0.0039572            0.0006313            0.0045885
 Dipole Y            :         -1.5885542            1.8864948            0.2979406
 Dipole Z            :        -14.9907779           19.7522704            4.7614925
 Magnitude           :                                                    4.7708071
  //            Monomer A HF           //
    Molecular point group: c1
  Multiplicity = 1
  Basis Set: JUN-CC-PVDZ
    Blend: JUN-CC-PVDZ
  Basis Set: (JUN-CC-PVDZ AUX)
    Blend: JUN-CC-PVDZ-JKFIT
  @DF-RHF Final Energy:  -303.29865124728786
    Total Energy =                       -303.2986512472878644
  //            Monomer B HF           //
    Molecular point group: c1

    Geometry (in Angstrom), charge = 0, multiplicity = 1:

       Center              X                  Y                   Z               Mass
    ------------   -----------------  -----------------  -----------------  -----------------
      Gh(C)           0.680066520158    -1.215933861162     3.324707495988    12.000000000000
      Gh(C)          -0.680504479842    -1.215549861162     3.322679495988    12.000000000000
      Gh(N)          -1.085635479842     0.102774138838     3.321681495988    14.003074004430
      Gh(C)           0.000107520158     0.884175138838     3.318405495988    12.000000000000
      Gh(C)          -2.477365479842     0.570753138838     3.272275495988    12.000000000000
      Gh(N)           1.085221520158     0.102774138838     3.321681495988    14.003074004430
      Gh(H)           1.385145520158    -2.033372861162     3.332535495988     1.007825032230
      Gh(H)          -1.385302479842    -2.033218861162     3.322869495988     1.007825032230
      Gh(H)          -0.000009479842     1.965264138838     3.316658495988     1.007825032230
      Gh(C)           2.478116520158     0.567872138838     3.338573495988    12.000000000000
      Gh(H)           2.490591520158     1.658125138838     3.311228495988     1.007825032230
      Gh(H)           2.967027520158     0.220696138838     4.252019495988     1.007825032230
      Gh(H)           3.001427520158     0.176400138838     2.463090495988     1.007825032230
      Gh(H)          -2.857359479842     0.490794138838     2.250204495988     1.007825032230
      Gh(H)          -3.082679479842    -0.042310861162     3.942359495988     1.007825032230
      Gh(H)          -2.518128479842     1.610701138838     3.599259495988     1.007825032230
         C            1.225311895423     0.707533799757    -0.477196876728    12.000000000000
         C            1.225323856051    -0.707543383733    -0.489527686299    12.000000000000
         C           -0.000006153932     1.414961424928    -0.490061309819    12.000000000000
         C            2.456448753949     1.418323398016    -0.474310019328    12.000000000000
         C            0.000010827279    -1.414980987797    -0.479861752495    12.000000000000
         C           -1.225300948908     0.707540884822    -0.474945356406    12.000000000000
         C            2.456437755320    -1.418327793043    -0.491772843155    12.000000000000
         C           -0.000001332978     2.836796542119    -0.492464859953    12.000000000000
         C            3.681826697470     0.709313466839    -0.491424053358    12.000000000000
         C            2.455120048865     2.834219172327    -0.491526610318    12.000000000000
         C            3.681821105219    -0.709338328591    -0.475351569339    12.000000000000
         C           -1.225313598688    -0.707532004706    -0.488454924872    12.000000000000
         C            1.226699581202     3.543464994832    -0.475167537409    12.000000000000
         C            0.000004784858    -2.836786628398    -0.475013584873    12.000000000000
         C           -2.456436032848     1.418312429123    -0.474909960560    12.000000000000
         C            2.455123417779    -2.834234517751    -0.475503477707    12.000000000000
         C           -1.226714364589     3.543464574588    -0.475064204189    12.000000000000
         C            4.914517295202     1.427168383327    -0.484943370328    12.000000000000
         C            3.693150191476     3.542790803383    -0.484893570692    12.000000000000
         C           -2.456437600068    -1.418317770001    -0.491797881280    12.000000000000
         C            1.226704841943    -3.543478731069    -0.491137668158    12.000000000000
         C           -2.455125398508     2.834212173472    -0.491520233972    12.000000000000
         C            4.914524380782    -1.427191399106    -0.481970627594    12.000000000000
         C            1.221424613699     4.970129576098    -0.481832193334    12.000000000000
         C            4.893008229321     2.825183510864    -0.483726701969    12.000000000000
         C           -1.226697008489    -3.543475486239    -0.490870463749    12.000000000000
         C           -3.681818976526     0.709320477570    -0.491411372878    12.000000000000
         C            3.693147101150    -3.542805830553    -0.481852737033    12.000000000000
         C           -1.221432251994     4.970123808701    -0.481648697961    12.000000000000
         C            6.134770972926     0.680543457943    -0.484173595778    12.000000000000
         C            3.656788880610     4.972948754405    -0.483984932909    12.000000000000
         C           -2.455126907733    -2.834219582223    -0.475747835505    12.000000000000
         C           -3.681819179061    -0.709330192631    -0.475233947761    12.000000000000
         C            4.893012617914    -2.825204594794    -0.483115550074    12.000000000000
         C           -0.000001073113     5.650442876870    -0.482880006668    12.000000000000
         C            6.134775112332    -0.680559343237    -0.482908275263    12.000000000000
         C            2.478131482856     5.653572262169    -0.482696153259    12.000000000000
         C            1.221422404738    -4.970131544095    -0.484631690356    12.000000000000
         C           -3.693162383965     3.542792465030    -0.484728063232    12.000000000000
         C           -1.221428520945    -4.970122792758    -0.484744452189    12.000000000000
         C           -4.914521807942     1.427170957833    -0.484866425321    12.000000000000
         C            3.656787019679    -4.972959715401    -0.482534432375    12.000000000000
         C           -2.478138530106     5.653569933366    -0.482411628251    12.000000000000
         C           -3.693141738564    -3.542794708141    -0.481968863189    12.000000000000
         C           -4.914512483053    -1.427185489190    -0.481935930420    12.000000000000
         C           -0.000006008926    -5.650442776176    -0.483275510789    12.000000000000
         C           -4.893020484101     2.825184109757    -0.483736783829    12.000000000000
         C            2.478125993298    -5.653578033051    -0.483625033167    12.000000000000
         C           -3.656798710258     4.972951692879    -0.483808252535    12.000000000000
         C           -4.892999478856    -2.825196256222    -0.483269585772    12.000000000000
         C           -2.478128498083    -5.653570659169    -0.483900220815    12.000000000000
         C           -6.134770503331     0.680544277094    -0.484199147481    12.000000000000
         C           -3.656788833189    -4.972948512133    -0.482748720192    12.000000000000
         C           -6.134765042913    -0.680558404644    -0.482928751058    12.000000000000
         H            5.835288495816     3.369271405792    -0.479367376307     1.007825032230
         H            7.073859172747     1.228212759737    -0.483711952385     1.007825032230
         H            4.600663264174     5.512376313291    -0.483479732157     1.007825032230
         H            5.835283387305    -3.369310545891    -0.487570017388     1.007825032230
         H           -0.000012151306     6.738526184974    -0.487229251676     1.007825032230
         H            7.073861171831    -1.228231431906    -0.483417013357     1.007825032230
         H            2.473313731799     6.740679802232    -0.483162874190     1.007825032230
         H            4.600668491381    -5.512380618338    -0.482944429544     1.007825032230
         H           -2.473318680537     6.740677230444    -0.482861527565     1.007825032230
         H           -0.000010268228    -6.738532665614    -0.478745825805     1.007825032230
         H           -5.835301914343     3.369266461134    -0.479231354158     1.007825032230
         H            2.473307923831    -6.740689863591    -0.483054702742     1.007825032230
         H           -4.600674841208     5.512373537441    -0.483314403834     1.007825032230
         H           -5.835279506835    -3.369293452942    -0.487849323269     1.007825032230
         H           -2.473300347440    -6.740683567302    -0.483504019287     1.007825032230
         H           -7.073857766768     1.228215983678    -0.483795943866     1.007825032230
         H           -4.600673786085    -5.512367158949    -0.483116737566     1.007825032230
         H           -7.073856934409    -1.228225121139    -0.483511869823     1.007825032230

  Charge       = 0
  Multiplicity = 1
  Basis Set: JUN-CC-PVDZ
    Blend: JUN-CC-PVDZ
  Basis Set: (JUN-CC-PVDZ AUX)
    Blend: JUN-CC-PVDZ-JKFIT

    Orbital Energies [Eh]
    ---------------------

    Doubly Occupied:

       1A    -11.260604     2A    -11.260166     3A    -11.260144
       4A    -11.259432     5A    -11.259399     6A    -11.259233
       7A    -11.258995     8A    -11.258938     9A    -11.258896
      10A    -11.258577    11A    -11.258576    12A    -11.258462
      13A    -11.258408    14A    -11.258399    15A    -11.258395
      16A    -11.258370    17A    -11.258349    18A    -11.258341
      19A    -11.258334    20A    -11.258325    21A    -11.258323
      22A    -11.258271    23A    -11.258263    24A    -11.258027
      25A    -11.257275    26A    -11.257234    27A    -11.257192
      28A    -11.257100    29A    -11.257059    30A    -11.256996
      31A    -11.256378    32A    -11.256331    33A    -11.256278
      34A    -11.256211    35A    -11.256168    36A    -11.256140
      37A    -11.252214    38A    -11.252210    39A    -11.252203
      40A    -11.252200    41A    -11.252178    42A    -11.252165
      43A    -11.251309    44A    -11.251295    45A    -11.251292
      46A    -11.251286    47A    -11.251281    48A    -11.251275
      49A    -11.250776    50A    -11.250771    51A    -11.250764
      52A    -11.250761    53A    -11.250739    54A    -11.250726
      55A     -1.243893    56A     -1.219674    57A     -1.219649
      58A     -1.189403    59A     -1.189392    60A     -1.180780
      61A     -1.157433    62A     -1.148837    63A     -1.135345
      64A     -1.135317    65A     -1.113063    66A     -1.113061
      67A     -1.082280    68A     -1.082266    69A     -1.078442
      70A     -1.065857    71A     -1.065848    72A     -1.039260
      73A     -1.024104    74A     -1.021606    75A     -1.021545
      76A     -1.017597    77A     -1.012672    78A     -0.986873
      79A     -0.986816    80A     -0.961748    81A     -0.961690
      82A     -0.894146    83A     -0.894124    84A     -0.887752
      85A     -0.885999    86A     -0.885958    87A     -0.881227
      88A     -0.881183    89A     -0.861761    90A     -0.837290
      91A     -0.818057    92A     -0.816441    93A     -0.811968
      94A     -0.811966    95A     -0.794555    96A     -0.794543
      97A     -0.746441    98A     -0.744693    99A     -0.733247
     100A     -0.733232   101A     -0.732038   102A     -0.732021
     103A     -0.716337   104A     -0.698840   105A     -0.698804
     106A     -0.693439   107A     -0.693395   108A     -0.661089
     109A     -0.652945   110A     -0.650976   111A     -0.650120
     112A     -0.650112   113A     -0.639224   114A     -0.639201
     115A     -0.629548   116A     -0.627352   117A     -0.627344
     118A     -0.606410   119A     -0.605704   120A     -0.601489
     121A     -0.599603   122A     -0.599538   123A     -0.593468
     124A     -0.591039   125A     -0.591004   126A     -0.585157
     127A     -0.576420   128A     -0.576347   129A     -0.567196
     130A     -0.567174   131A     -0.565781   132A     -0.565776
     133A     -0.558551   134A     -0.554708   135A     -0.554699
     136A     -0.538456   137A     -0.538452   138A     -0.538181
     139A     -0.538176   140A     -0.529563   141A     -0.528126
     142A     -0.522733   143A     -0.522698   144A     -0.500366
     145A     -0.495554   146A     -0.493090   147A     -0.487779
     148A     -0.484902   149A     -0.481592   150A     -0.481591
     151A     -0.470287   152A     -0.470279   153A     -0.450825
     154A     -0.450761   155A     -0.439002   156A     -0.438993
     157A     -0.404694   158A     -0.404654   159A     -0.403308
     160A     -0.375347   161A     -0.375344   162A     -0.349061
     163A     -0.337548   164A     -0.336496   165A     -0.336449
     166A     -0.311019   167A     -0.298019   168A     -0.284267
     169A     -0.284214   170A     -0.224832   171A     -0.224775

  @DF-RHF Final Energy: -2055.89533023004515

   => Energetics <=

    Nuclear Repulsion Energy =           6452.5568002797772351
    One-Electron Energy =              -15636.5235228171877679
    Two-Electron Energy =                7128.0713923073653859
    Total Energy =                      -2055.8953302300451469
 Dipole X            :          0.0004051           -0.0000085            0.0003966
 Dipole Y            :          0.0036311           -0.0028843            0.0007468
 Dipole Z            :        312.3679564         -312.3739281           -0.0059717
 Magnitude           :                                                    0.0060313

    SAPT Results
  --------------------------------------------------------------------------------------------------------
    Electrostatics                -15.80617092 [mEh]      -9.91852200 [kcal/mol]     -41.49909603 [kJ/mol]
      Elst10,r                    -15.80617092 [mEh]      -9.91852200 [kcal/mol]     -41.49909603 [kJ/mol]

    Exchange                        7.40249106 [mEh]       4.64513327 [kcal/mol]      19.43523760 [kJ/mol]
      Exch10                        7.40249106 [mEh]       4.64513327 [kcal/mol]      19.43523760 [kJ/mol]
      Exch10(S^2)                   7.39670634 [mEh]       4.64150330 [kcal/mol]      19.42004981 [kJ/mol]

    Induction                     -10.05738209 [mEh]      -6.31110254 [kcal/mol]     -26.40565305 [kJ/mol]
      Ind20,r                     -11.05849147 [mEh]      -6.93930817 [kcal/mol]     -29.03406536 [kJ/mol]
      Exch-Ind20,r                  2.04126875 [mEh]       1.28091548 [kcal/mol]       5.35935037 [kJ/mol]
      delta HF,r (2)               -1.04015937 [mEh]      -0.65270986 [kcal/mol]      -2.73093806 [kJ/mol]

    Dispersion                    -21.94265272 [mEh]     -13.76922246 [kcal/mol]     -57.61042679 [kJ/mol]
      Disp20                      -22.91634140 [mEh]     -14.38022133 [kcal/mol]     -60.16684606 [kJ/mol]
      Exch-Disp20                   0.97368868 [mEh]       0.61099887 [kcal/mol]       2.55641927 [kJ/mol]
      Disp20 (SS)                 -11.45817070 [mEh]      -7.19011067 [kcal/mol]     -30.08342303 [kJ/mol]
      Disp20 (OS)                 -11.45817070 [mEh]      -7.19011067 [kcal/mol]     -30.08342303 [kJ/mol]
      Exch-Disp20 (SS)              0.60467608 [mEh]       0.37943997 [kcal/mol]       1.58757684 [kJ/mol]
      Exch-Disp20 (OS)              0.36901259 [mEh]       0.23155890 [kcal/mol]       0.96884243 [kJ/mol]

  Total HF                        -18.46106195 [mEh]     -11.58449127 [kcal/mol]     -48.46951148 [kJ/mol]
  Total SAPT0                     -40.40371468 [mEh]     -25.35371373 [kcal/mol]    -106.07993826 [kJ/mol]

  Special recipe for scaled SAPT0 (see Manual):
    Electrostatics sSAPT0         -15.80617092 [mEh]      -9.91852200 [kcal/mol]     -41.49909603 [kJ/mol]
    Exchange sSAPT0                 7.40249106 [mEh]       4.64513327 [kcal/mol]      19.43523760 [kJ/mol]
    Induction sSAPT0              -10.05258912 [mEh]      -6.30809491 [kcal/mol]     -26.39306909 [kJ/mol]
    Dispersion sSAPT0             -21.94036647 [mEh]     -13.76778782 [kcal/mol]     -57.60442422 [kJ/mol]
  Total sSAPT0                    -40.39663544 [mEh]     -25.34927145 [kcal/mol]    -106.06135174 [kJ/mol]
  --------------------------------------------------------------------------------------------------------

*** Psi4 exiting successfully. Buy a developer a beer!
