                               Psi4 1.9 release

  ==> Input File <==

--------------------------------------------------------------------------
memory 64 GB # how much memory is available ! Depends on the nodes/cores !

molecule dimer {
# monomer A
-1 1    # Charge and multiplicity
B -1.977592e-04  2.742729e-04 -4.599966
F  1.123153e-16  1.430594e-17 -3.187181
F  1.147860e+00  6.757812e-01 -5.071107
F  1.191806e-02 -1.332011e+00 -5.070905
F -1.159666e+00  6.560735e-01 -5.070826
--
# monomer B
0 1     # Charge and multiplicity
C   -3.66844126402057      7.80375217008252      0.00190004133558
C   -4.84759871934653      7.13124183134024     -0.00046653359696
C   -4.89495929917518      5.69633040353158     -0.00103944469517
C   -3.65374067877320      4.98073034095895      0.00662099703436
C   -2.40942512149445      7.11398103667468      0.00209438359570
C   -2.42547734410473      5.68112195090346     -0.00491050527438
C   -1.19474401643570      7.78614419430947      0.00356656413763
C   0.03795902893699      7.09942164575698      0.00139585983271
C   0.03033258741920      5.66948955970466     -0.00408752508301
C   -1.20098450790502      4.96927034791531      0.00488220885047
C   1.27795782581485      7.77285944319479      0.00277170839332
C   2.48535808472416      7.08769688523756      0.00049722048857
C   2.48612868491717      5.65477081024076     -0.00644052849921
C   1.25408291964399      4.95607811366431      0.00518741308898
C   3.75171459140595      7.76391215098033      0.00062407186893
C   4.92356605618520      7.07878077698995     -0.00143240883900
C   4.95560727132542      5.64344746336949     -0.00159282164606
C   3.70680153420475      4.94121020833308      0.00349873852374
H   -3.65852113775815      8.89082741913536      0.00358502958574
H   -1.18921332975660      8.87412108735996      0.00753844057883
H   1.28429423888630      8.86083343548850      0.00693053253426
H   3.75354208679975      8.85103527897216      0.00214659618464
H   5.86995870320703      7.61379483465560     -0.00235777588134
H   -5.78823170750226      7.67630221293400     -0.00202638095293
C   -6.09197395869619      4.99326001364347     -0.00291168518608
C   -6.12866148031747      3.58258016879823     -0.00171050815740
C   -3.66457974004527      3.56418217974434     -0.00463560277484
C   -4.89429820469869      2.86108077590057      0.00453338221034
C   -2.43733499489796      2.84761165708481      0.00719617576166
C   -1.20922785759670      3.54788693497833     -0.00648285103018
C   1.24714157216223      3.53468075142962     -0.00729145743546
C   0.01517603956900      2.83311183930540      0.00439272578912
C   2.46764517244071      2.82128997725533      0.00449278391269
C   3.70254947457969      3.52466015442405     -0.00899517692985
C   6.14498038638375      4.92757236613191     -0.00282626685777
C   6.16658835886151      3.51658447594213     -0.00065971342101
C   4.92460995845939      2.80840792535402      0.00587903281610
H   7.08990550964105      5.46688776622306     -0.00658814770723
H   -7.03104175110130      5.54268795285765     -0.00714490013730
C   -7.33969804112295      2.85841153457957     -0.00333767559888
C   -7.36488195805880      1.47032337158330     -0.00157213747140
C   -4.90350460894690      1.44442681216000     -0.00628840166334
C   -6.13225715261081      0.73993935705394      0.00600164231964
C   -3.67687480051673      0.72669714267312      0.00433931473643
C   -2.44565658606518      1.42964113326212     -0.00597039546461
C   -1.22360068130162      0.71532450163492      0.00545886906656
C   0.00763786931376      1.41738314923765      0.00392452278437
C   1.23121980774686      0.70211669058719     -0.01490206287210
C   2.46082110053113      1.40329203612573      0.00460244601878
C   3.68443025419614      0.68719842821222      0.00377365974158
C   4.91870890153864      1.39173456118907     -0.00862816189375
C   7.36980207796101      2.77948220318441     -0.00242013321349
C   7.38016266612146      1.39121750785509     -0.00087345036788
C   6.13979953912259      0.67411862320065      0.00545489144369
H   -8.27919079934664      3.40711804112415     -0.00763522772059
H   8.31511347147953      3.31811809662368     -0.00663070901292
C   -8.59175593758115      0.72483255304480     -0.00123170985383
C   -8.59902460370342     -0.63263980622873      0.00089141472904
C   -6.13981313911873     -0.67413663715361     -0.00609792660607
C   -7.38018411213749     -1.39126618958160      0.00131813493501
C   -4.91868448025621     -1.39175501803000      0.00624257154343
C   -3.68443829568458     -0.68723731573599     -0.00478966852105
C   -2.46081704024768     -1.40334517882457      0.00575341766833
C   -1.23116201232071     -0.70217386488055     -0.00636696112346
C   -0.00756962538737     -1.41741884941102      0.00108956317991
C   1.22364771588843     -0.71527537726392      0.01109518512883
C   2.44567064933149     -1.42964328900682     -0.00065482763106
C   3.67686670284649     -0.72670743155550     -0.00479541202602
C   6.13224884641929     -0.73997883984993     -0.00632338623858
C   4.90351914550401     -1.44445752054090      0.00751768830159
C   8.59901484869081      0.63260386666793     -0.00101133422380
C   8.59174548810050     -0.72485086719319      0.00072504603735
C   7.36486276438985     -1.47033266560598      0.00049486934466
H   -9.52830597181814      1.27684744919284     -0.00270163681798
H   9.54141097460619      1.17457248844457     -0.00206336648518
C   -7.36983790976868     -2.77954514593389      0.00312634335708
C   -4.92459910905015     -2.80843725734101     -0.00460528907921
C   -6.16662249566744     -3.51665219282533      0.00169655107992
C   -3.70251035970491     -3.52468154912026      0.00571878010666
C   -2.46764698511392     -2.82132596280400     -0.00632585824990
C   -0.01513347410770     -2.83314164539971     -0.00604426974092
C   -1.24712184122656     -3.53473217556300      0.00551968366725
C   1.20924506964357     -3.54791467864352      0.00805871345849
C   2.43733602215464     -2.84764173817541     -0.00608104485234
C   4.89430234377080     -2.86112296828604     -0.00526030478103
C   3.66461525504104     -3.56421984553201      0.00761911515957
C   6.12863901474565     -3.58258405771778      0.00096495711699
C   7.33967266469532     -2.85841330737039      0.00248018319869
H   -9.54144911125902     -1.17456346666430      0.00226083090216
H   9.52826186807155     -1.27691907390448      0.00197485379837
H   -8.31516504384864     -3.31814985321231      0.00729857188773
H   8.27915514249207     -3.40714078989363      0.00681973918158
C   -6.14499418870218     -4.92764727278338      0.00302254913999
C   -3.70678334799751     -4.94126171411716     -0.00679841894792
C   -4.95559005800169     -5.64349397349412      0.00116871569699
C   -2.48612132622665     -5.65478557440947      0.00614125209662
C   -1.25405833548005     -4.95612205000132     -0.00503435388927
C   1.20101257386816     -4.96928038819302     -0.00385322963129
C   -0.03033667441341     -5.66952030313900      0.00398997003238
C   3.65375010132847     -4.98074377541453     -0.00309522988330
C   2.42549269587528     -5.68117463552727      0.00628170066869
C   6.09196561781097     -4.99325796338655      0.00325918379042
C   4.89497644461045     -5.69634842095790      0.00202298796027
H   -7.08989238804069     -5.46699984223871      0.00742531082125
H   7.03105520920009     -5.54265853633254      0.00683896355417
C   -4.92354532219813     -7.07882109967734      0.00061394679214
C   -2.48534208823777     -7.08772807792913     -0.00189594564379
C   -3.75168589177895     -7.76394715763627     -0.00170126671874
C   -0.03794895698805     -7.09946487446944     -0.00168022049625
C   -1.27795610040136     -7.77290438466689     -0.00366491325785
C   2.40944432072629     -7.11402201200282     -0.00081701968533
C   1.19474993715296     -7.78618536556242     -0.00296931056689
C   4.84762105249800     -7.13126211057943      0.00168979497423
C   3.66847160587561     -7.80378799294376     -0.00065863938960
H   -5.86994035041618     -7.61383059804164      0.00215798365757
H   5.78824962538815     -7.67633218931421      0.00281691445618
H   -3.75352693944918     -8.85107156923607     -0.00353718114765
H   -1.28430440589466     -8.86087539249706     -0.00809229711623
H   1.18922157469537     -8.87416062058945     -0.00706194725726
H   3.65854661482387     -8.89086063405326     -0.00231318081200

    units angstrom      # Angstroms are the default
    no_reorient         # Geometry fixed, default
    symmetry c1         # C1 symmetry, default
}

set {
    scf_type DF         # Density fitting, faster than exact integrals
    freeze_core True    # Freeze core electrons
    basis jun-cc-pVDZ   # Jun-cc-pVDZ basis set, recommended for sSAPT0 in https://doi.org/10.1063/1.4867135
}

energy('ssapt0')        # Compute sSAPT0 energy, includes also SAPT0
--------------------------------------------------------------------------

  //              Dimer HF             //
    Molecular point group: c1
  Charge       = -1
  Multiplicity = 1
  Basis Set: JUN-CC-PVDZ
    Blend: JUN-CC-PVDZ
  Basis Set: (JUN-CC-PVDZ AUX)
    Blend: JUN-CC-PVDZ-JKFIT
  @DF-RHF Final Energy: -4073.10996751164976
    Total Energy =                      -4073.1099675116493017
 Dipole X            :          0.0002283           -0.0000548            0.0001735
 Dipole Y            :          0.0009395           -0.0002464            0.0006931
 Dipole Z            :        -20.6344216           27.3748447            6.7404231
 Magnitude           :                                                    6.7404231
  //            Monomer A HF           //
    Molecular point group: c1
  Multiplicity = 1
  Basis Set: JUN-CC-PVDZ
    Blend: JUN-CC-PVDZ
  Basis Set: (JUN-CC-PVDZ AUX)
    Blend: JUN-CC-PVDZ-JKFIT
  @DF-RHF Final Energy:  -422.77228213230541
    Total Energy =                       -422.7722821323054063
  //            Monomer B HF           //
    Molecular point group: c1

    Geometry (in Angstrom), charge = 0, multiplicity = 1:

       Center              X                  Y                   Z               Mass
    ------------   -----------------  -----------------  -----------------  -----------------
      Gh(B)          -0.000201921932     0.000288800891    -4.283141740972    11.009305360000
      Gh(F)          -0.000004162732     0.000014527991    -2.870356740972    18.998403162730
      Gh(F)           1.147855837268     0.675795727991    -4.754282740972    18.998403162730
      Gh(F)           0.011913897268    -1.331996472009    -4.754080740972    18.998403162730
      Gh(F)          -1.159670162732     0.656088027991    -4.754001740972    18.998403162730
         C           -3.668445426752     7.803766698073     0.318724300363    12.000000000000
         C           -4.847602882078     7.131256359331     0.316357725431    12.000000000000
         C           -4.894963461907     5.696344931522     0.315784814333    12.000000000000
         C           -3.653744841505     4.980744868950     0.323445256062    12.000000000000
         C           -2.409429284226     7.113995564665     0.318918642623    12.000000000000
         C           -2.425481506836     5.681136478894     0.311913753753    12.000000000000
         C           -1.194748179167     7.786158722300     0.320390823165    12.000000000000
         C            0.037954866205     7.099436173748     0.318220118860    12.000000000000
         C            0.030328424687     5.669504087695     0.312736733945    12.000000000000
         C           -1.200988670637     4.969284875906     0.321706467878    12.000000000000
         C            1.277953663083     7.772873971185     0.319595967421    12.000000000000
         C            2.485353921992     7.087711413228     0.317321479516    12.000000000000
         C            2.486124522185     5.654785338231     0.310383730529    12.000000000000
         C            1.254078756912     4.956092641655     0.322011672117    12.000000000000
         C            3.751710428674     7.763926678971     0.317448330897    12.000000000000
         C            4.923561893453     7.078795304981     0.315391850189    12.000000000000
         C            4.955603108594     5.643461991360     0.315231437382    12.000000000000
         C            3.706797371473     4.941224736324     0.320322997551    12.000000000000
         H           -3.658525300490     8.890841947126     0.320409288613     1.007825032230
         H           -1.189217492488     8.874135615351     0.324362699607     1.007825032230
         H            1.284290076155     8.860847963479     0.323754791562     1.007825032230
         H            3.753537924068     8.851049806963     0.318970855212     1.007825032230
         H            5.869954540475     7.613809362646     0.314466483146     1.007825032230
         H           -5.788235870234     7.676316740925     0.314797878075     1.007825032230
         C           -6.091978121428     4.993274541634     0.313912573842    12.000000000000
         C           -6.128665643049     3.582594696789     0.315113750870    12.000000000000
         C           -3.664583902777     3.564196707735     0.312188656253    12.000000000000
         C           -4.894302367430     2.861095303891     0.321357641238    12.000000000000
         C           -2.437339157630     2.847626185075     0.324020434789    12.000000000000
         C           -1.209232020328     3.547901462969     0.310341407998    12.000000000000
         C            1.247137409430     3.534695279420     0.309532801592    12.000000000000
         C            0.015171876837     2.833126367296     0.321216984817    12.000000000000
         C            2.467641009709     2.821304505246     0.321317042940    12.000000000000
         C            3.702545311848     3.524674682415     0.307829082098    12.000000000000
         C            6.144976223652     4.927586894122     0.313997992170    12.000000000000
         C            6.166584196130     3.516599003933     0.316164545607    12.000000000000
         C            4.924605795728     2.808422453345     0.322703291844    12.000000000000
         H            7.089901346909     5.466902294214     0.310236111321     1.007825032230
         H           -7.031045913833     5.542702480848     0.309679358890     1.007825032230
         C           -7.339702203855     2.858426062570     0.313486583429    12.000000000000
         C           -7.364886120791     1.470337899574     0.315252121556    12.000000000000
         C           -4.903508771679     1.444441340151     0.310535857364    12.000000000000
         C           -6.132261315343     0.739953885044     0.322825901347    12.000000000000
         C           -3.676878963248     0.726711670664     0.321163573764    12.000000000000
         C           -2.445660748797     1.429655661253     0.310853863563    12.000000000000
         C           -1.223604844033     0.715339029625     0.322283128094    12.000000000000
         C            0.007633706582     1.417397677228     0.320748781812    12.000000000000
         C            1.231215645015     0.702131218578     0.301922196156    12.000000000000
         C            2.460816937799     1.403306564116     0.321426705047    12.000000000000
         C            3.684426091464     0.687212956203     0.320597918769    12.000000000000
         C            4.918704738807     1.391749089180     0.308196097134    12.000000000000
         C            7.369797915229     2.779496731175     0.314404125814    12.000000000000
         C            7.380158503390     1.391232035846     0.315950808660    12.000000000000
         C            6.139795376391     0.674133151191     0.322279150471    12.000000000000
         H           -8.279194962078     3.407132569115     0.309189031307     1.007825032230
         H            8.315109308748     3.318132624614     0.310193550015     1.007825032230
         C           -8.591760100313     0.724847081035     0.315592549174    12.000000000000
         C           -8.599028766435    -0.632625278238     0.317715673757    12.000000000000
         C           -6.139817301850    -0.674122109163     0.310726332422    12.000000000000
         C           -7.380188274869    -1.391251661591     0.318142393963    12.000000000000
         C           -4.918688642988    -1.391740490039     0.323066830571    12.000000000000
         C           -3.684442458416    -0.687222787745     0.312034590507    12.000000000000
         C           -2.460821202979    -1.403330650834     0.322577676696    12.000000000000
         C           -1.231166175052    -0.702159336890     0.310457297904    12.000000000000
         C           -0.007573788119    -1.417404321420     0.317913822208    12.000000000000
         C            1.223643553157    -0.715260849273     0.327919444157    12.000000000000
         C            2.445666486600    -1.429628761016     0.316169431397    12.000000000000
         C            3.676862540115    -0.726692903565     0.312028847002    12.000000000000
         C            6.132244683688    -0.739964311859     0.310500872789    12.000000000000
         C            4.903514982772    -1.444442992550     0.324341947329    12.000000000000
         C            8.599010685959     0.632618394658     0.315812924804    12.000000000000
         C            8.591741325369    -0.724836339203     0.317549305065    12.000000000000
         C            7.364858601658    -1.470318137615     0.317319128372    12.000000000000
         H           -9.528310134550     1.276861977183     0.314122622210     1.007825032230
         H            9.541406811874     1.174587016435     0.314760892543     1.007825032230
         C           -7.369842072500    -2.779530617943     0.319950602385    12.000000000000
         C           -4.924603271782    -2.808422729350     0.312218969949    12.000000000000
         C           -6.166626658399    -3.516637664835     0.318520810108    12.000000000000
         C           -3.702514522437    -3.524667021130     0.322543039134    12.000000000000
         C           -2.467651147846    -2.821311434813     0.310498400778    12.000000000000
         C           -0.015137636839    -2.833127117409     0.310779989287    12.000000000000
         C           -1.247126003958    -3.534717647572     0.322343942695    12.000000000000
         C            1.209240906912    -3.547900150653     0.324882972486    12.000000000000
         C            2.437331859423    -2.847627210185     0.310743214175    12.000000000000
         C            4.894298181039    -2.861108440295     0.311563954247    12.000000000000
         C            3.664611092309    -3.564205317541     0.324443374187    12.000000000000
         C            6.128634852014    -3.582569529727     0.317789216145    12.000000000000
         C            7.339668501964    -2.858398779380     0.319304442226    12.000000000000
         H           -9.541453273991    -1.174548938674     0.319085089930     1.007825032230
         H            9.528257705340    -1.276904545914     0.318799112826     1.007825032230
         H           -8.315169206580    -3.318135325222     0.324122830915     1.007825032230
         H            8.279150979760    -3.407126261903     0.323643998209     1.007825032230
         C           -6.144998351434    -4.927632744793     0.319846808168    12.000000000000
         C           -3.706787510729    -4.941247186127     0.310025840080    12.000000000000
         C           -4.955594220733    -5.643479445504     0.317992974725    12.000000000000
         C           -2.486125488958    -5.654771046419     0.322965511124    12.000000000000
         C           -1.254062498212    -4.956107522011     0.311789905138    12.000000000000
         C            1.201008411136    -4.969265860202     0.312971029396    12.000000000000
         C           -0.030340837145    -5.669505775148     0.320814229060    12.000000000000
         C            3.653745938597    -4.980729247424     0.313729029144    12.000000000000
         C            2.425488533144    -5.681160107537     0.323105959696    12.000000000000
         C            6.091961455079    -4.993243435396     0.320083442818    12.000000000000
         C            4.894972281879    -5.696333892967     0.318847246988    12.000000000000
         H           -7.089896550772    -5.466985314248     0.324249569849     1.007825032230
         H            7.031051046468    -5.542644008342     0.323663222582     1.007825032230
         C           -4.923549484930    -7.078806571687     0.317438205820    12.000000000000
         C           -2.485346250970    -7.087713549939     0.314928313384    12.000000000000
         C           -3.751690054511    -7.763932629646     0.315122992309    12.000000000000
         C           -0.037953119720    -7.099450346479     0.315144038531    12.000000000000
         C           -1.277960263133    -7.772889856676     0.313159345770    12.000000000000
         C            2.409440157995    -7.114007484012     0.316007239342    12.000000000000
         C            1.194745774421    -7.786170837572     0.313854948461    12.000000000000
         C            4.847616889766    -7.131247582589     0.318514054002    12.000000000000
         C            3.668467443144    -7.803773464953     0.316165619638    12.000000000000
         H           -5.869944513148    -7.613816070051     0.318982242685     1.007825032230
         H            5.788245462656    -7.676317661324     0.319641173484     1.007825032230
         H           -3.753531102181    -8.851057041246     0.313287077880     1.007825032230
         H           -1.284308568626    -8.860860864507     0.308731961912     1.007825032230
         H            1.189217411964    -8.874146092599     0.309762311770     1.007825032230
         H            3.658542452092    -8.890846106063     0.314511078216     1.007825032230

  Charge       = 0
  Multiplicity = 1
  Basis Set: JUN-CC-PVDZ
    Blend: JUN-CC-PVDZ
  Basis Set: (JUN-CC-PVDZ AUX)
    Blend: JUN-CC-PVDZ-JKFIT

    Orbital Energies [Eh]
    ---------------------

    Doubly Occupied:

       1A    -11.264105     2A    -11.263746     3A    -11.263745
       4A    -11.263337     5A    -11.263334     6A    -11.263306
       7A    -11.263155     8A    -11.263152     9A    -11.263142
      10A    -11.262933    11A    -11.262799    12A    -11.262795
      13A    -11.262306    14A    -11.262303    15A    -11.262274
      16A    -11.262274    17A    -11.262173    18A    -11.262163
      19A    -11.262108    20A    -11.262072    21A    -11.262070
      22A    -11.261955    23A    -11.261952    24A    -11.261797
      25A    -11.261794    26A    -11.261772    27A    -11.261765
      28A    -11.261728    29A    -11.261720    30A    -11.261632
      31A    -11.261609    32A    -11.261606    33A    -11.261586
      34A    -11.261575    35A    -11.261574    36A    -11.261551
      37A    -11.261377    38A    -11.261368    39A    -11.261362
      40A    -11.261356    41A    -11.261351    42A    -11.261345
      43A    -11.261333    44A    -11.261317    45A    -11.261312
      46A    -11.261291    47A    -11.261287    48A    -11.261283
      49A    -11.261109    50A    -11.261075    51A    -11.261072
      52A    -11.260992    53A    -11.260990    54A    -11.260929
      55A    -11.259971    56A    -11.259957    57A    -11.259955
      58A    -11.259926    59A    -11.259924    60A    -11.259908
      61A    -11.259344    62A    -11.259318    63A    -11.259316
      64A    -11.259263    65A    -11.259261    66A    -11.259232
      67A    -11.258974    68A    -11.258957    69A    -11.258954
      70A    -11.258926    71A    -11.258925    72A    -11.258913
      73A    -11.254562    74A    -11.254562    75A    -11.254559
      76A    -11.254557    77A    -11.254554    78A    -11.254552
      79A    -11.253701    80A    -11.253699    81A    -11.253697
      82A    -11.253696    83A    -11.253694    84A    -11.253689
      85A    -11.253616    86A    -11.253615    87A    -11.253613
      88A    -11.253611    89A    -11.253610    90A    -11.253604
      91A    -11.253090    92A    -11.253090    93A    -11.253087
      94A    -11.253085    95A    -11.253081    96A    -11.253080
      97A     -1.254014    98A     -1.239068    99A     -1.239067
     100A     -1.220528   101A     -1.220523   102A     -1.215493
     103A     -1.201100   104A     -1.195664   105A     -1.188205
     106A     -1.188203   107A     -1.173820   108A     -1.173817
     109A     -1.155697   110A     -1.155694   111A     -1.152772
     112A     -1.144775   113A     -1.144772   114A     -1.128636
     115A     -1.114783   116A     -1.113214   117A     -1.112539
     118A     -1.112525   119A     -1.111670   120A     -1.088493
     121A     -1.088478   122A     -1.077012   123A     -1.077010
     124A     -1.067678   125A     -1.067649   126A     -1.065031
     127A     -1.046861   128A     -1.046853   129A     -1.040546
     130A     -1.038786   131A     -1.038785   132A     -1.025306
     133A     -1.021450   134A     -1.021399   135A     -1.007235
     136A     -1.006877   137A     -1.003852   138A     -1.000555
     139A     -1.000507   140A     -0.991124   141A     -0.971048
     142A     -0.971000   143A     -0.955936   144A     -0.955881
     145A     -0.905661   146A     -0.905619   147A     -0.905598
     148A     -0.905558   149A     -0.904402   150A     -0.892442
     151A     -0.892382   152A     -0.890427   153A     -0.890369
     154A     -0.889522   155A     -0.872268   156A     -0.869099
     157A     -0.851594   158A     -0.847931   159A     -0.847910
     160A     -0.845663   161A     -0.843087   162A     -0.834624
     163A     -0.834611   164A     -0.828164   165A     -0.828160
     166A     -0.784605   167A     -0.784594   168A     -0.783716
     169A     -0.783689   170A     -0.782350   171A     -0.782330
     172A     -0.782098   173A     -0.767051   174A     -0.760861
     175A     -0.750632   176A     -0.733536   177A     -0.727130
     178A     -0.727117   179A     -0.725147   180A     -0.724601
     181A     -0.724583   182A     -0.718554   183A     -0.713833
     184A     -0.713826   185A     -0.699633   186A     -0.699621
     187A     -0.686185   188A     -0.686011   189A     -0.686008
     190A     -0.682230   191A     -0.682220   192A     -0.678822
     193A     -0.653675   194A     -0.650926   195A     -0.650896
     196A     -0.649872   197A     -0.649856   198A     -0.649617
     199A     -0.640989   200A     -0.640962   201A     -0.640142
     202A     -0.639213   203A     -0.636078   204A     -0.636052
     205A     -0.629203   206A     -0.617719   207A     -0.615354
     208A     -0.615334   209A     -0.608855   210A     -0.608849
     211A     -0.599147   212A     -0.599111   213A     -0.598798
     214A     -0.598674   215A     -0.598649   216A     -0.598088
     217A     -0.595119   218A     -0.595107   219A     -0.594778
     220A     -0.594297   221A     -0.592012   222A     -0.592009
     223A     -0.587458   224A     -0.577838   225A     -0.577828
     226A     -0.575688   227A     -0.575684   228A     -0.573436
     229A     -0.569596   230A     -0.568194   231A     -0.568171
     232A     -0.566809   233A     -0.566798   234A     -0.560956
     235A     -0.558777   236A     -0.558758   237A     -0.558470
     238A     -0.554425   239A     -0.550586   240A     -0.547516
     241A     -0.544296   242A     -0.535036   243A     -0.534997
     244A     -0.533583   245A     -0.533561   246A     -0.528125
     247A     -0.528110   248A     -0.527857   249A     -0.517214
     250A     -0.517180   251A     -0.515384   252A     -0.515379
     253A     -0.509691   254A     -0.509675   255A     -0.498081
     256A     -0.496501   257A     -0.496475   258A     -0.493792
     259A     -0.493781   260A     -0.489469   261A     -0.481501
     262A     -0.477448   263A     -0.477445   264A     -0.474046
     265A     -0.469502   266A     -0.466581   267A     -0.466576
     268A     -0.458825   269A     -0.446749   270A     -0.446689
     271A     -0.441057   272A     -0.440801   273A     -0.440778
     274A     -0.434718   275A     -0.433937   276A     -0.407402
     277A     -0.407378   278A     -0.386425   279A     -0.386377
     280A     -0.385760   281A     -0.385759   282A     -0.383782
     283A     -0.354350   284A     -0.354333   285A     -0.350687
     286A     -0.338102   287A     -0.335630   288A     -0.335559
     289A     -0.332742   290A     -0.332735   291A     -0.307100
     292A     -0.301958   293A     -0.301896   294A     -0.300878
     295A     -0.286198   296A     -0.256496   297A     -0.253528
     298A     -0.253475   299A     -0.204287   300A     -0.204198

  @DF-RHF Final Energy: -3650.33898759555268

   => Energetics <=

    Nuclear Repulsion Energy =          15611.4211649754324753
    One-Electron Energy =              -36072.1160561886572395
    Two-Electron Energy =               16810.3559036176739028
    Total Energy =                      -3650.3389875955508614
 Dipole X            :         -0.0005452            0.0002304           -0.0003147
 Dipole Y            :          0.0011714           -0.0013052           -0.0001338
 Dipole Z            :       -359.2274989          359.2300396            0.0025407
 Magnitude           :                                                    0.0025636

    SAPT Results
  --------------------------------------------------------------------------------------------------------
    Electrostatics                 10.80742306 [mEh]       6.78176036 [kcal/mol]      28.37488534 [kJ/mol]
      Elst10,r                     10.80742306 [mEh]       6.78176036 [kcal/mol]      28.37488534 [kJ/mol]

    Exchange                        1.80671660 [mEh]       1.13373178 [kcal/mol]       4.74353378 [kJ/mol]
      Exch10                        1.80671660 [mEh]       1.13373178 [kcal/mol]       4.74353378 [kJ/mol]
      Exch10(S^2)                   1.80682000 [mEh]       1.13379667 [kcal/mol]       4.74380526 [kJ/mol]

    Induction                     -11.31192346 [mEh]      -7.09833914 [kcal/mol]     -29.69945094 [kJ/mol]
      Ind20,r                     -11.58930874 [mEh]      -7.27240103 [kcal/mol]     -30.42772590 [kJ/mol]
      Exch-Ind20,r                  0.35309108 [mEh]       0.22156800 [kcal/mol]       0.92704049 [kJ/mol]
      delta HF,r (2)               -0.07570579 [mEh]      -0.04750610 [kcal/mol]      -0.19876553 [kJ/mol]

    Dispersion                     -4.44466631 [mEh]      -2.78907022 [kcal/mol]     -11.66946979 [kJ/mol]
      Disp20                       -4.74009283 [mEh]      -2.97445316 [kcal/mol]     -12.44511201 [kJ/mol]
      Exch-Disp20                   0.29542652 [mEh]       0.18538294 [kcal/mol]       0.77564222 [kJ/mol]
      Disp20 (SS)                  -2.37004641 [mEh]      -1.48722658 [kcal/mol]      -6.22255600 [kJ/mol]
      Disp20 (OS)                  -2.37004641 [mEh]      -1.48722658 [kcal/mol]      -6.22255600 [kJ/mol]
      Exch-Disp20 (SS)              0.17959561 [mEh]       0.11269795 [kcal/mol]       0.47152820 [kJ/mol]
      Exch-Disp20 (OS)              0.11583091 [mEh]       0.07268499 [kcal/mol]       0.30411402 [kJ/mol]

  Total HF                          1.30221621 [mEh]       0.81715301 [kcal/mol]       3.41896818 [kJ/mol]
  Total SAPT0                      -3.14245010 [mEh]      -1.97191721 [kcal/mol]      -8.25050161 [kJ/mol]

  Special recipe for scaled SAPT0 (see Manual):
    Electrostatics sSAPT0          10.80742306 [mEh]       6.78176036 [kcal/mol]      28.37488534 [kJ/mol]
    Exchange sSAPT0                 1.80671660 [mEh]       1.13373178 [kcal/mol]       4.74353378 [kJ/mol]
    Induction sSAPT0              -11.31198407 [mEh]      -7.09837717 [kcal/mol]     -29.69961009 [kJ/mol]
    Dispersion sSAPT0              -4.44471703 [mEh]      -2.78910204 [kcal/mol]     -11.66960295 [kJ/mol]
  Total sSAPT0                     -3.14256143 [mEh]      -1.97198707 [kcal/mol]      -8.25079391 [kJ/mol]
  --------------------------------------------------------------------------------------------------------

*** Psi4 exiting successfully. Buy a developer a beer!
