                               Psi4 1.9 release

  ==> Input File <==

--------------------------------------------------------------------------
memory 32 GB # how much memory is available ! Depends on the nodes/cores !

molecule dimer {
# monomer A
-1 1    # Charge and multiplicity
B -1.977592e-04  2.742729e-04 -6.599966
F  1.123153e-16  1.430594e-17 -5.187181
F  1.147860e+00  6.757812e-01 -7.071107
F  1.191806e-02 -1.332011e+00 -7.070905
F -1.159666e+00  6.560735e-01 -7.070826
--
# monomer B
0 1     # Charge and multiplicity
C   1.22531237526482      0.70753866091955      0.00613762728373
C   1.22532433589282     -0.70753852257020     -0.00619318228664
C   -0.00000567409046      1.41496628609039     -0.00672680580738
C   2.45644923379077      1.41832825917820      0.00902448468363
C   0.00001130712078     -1.41497612663474      0.00347275151708
C   -1.22530046906674      0.70754574598412      0.00838914760619
C   2.45643823516184     -1.41832293188077     -0.00843833914343
C   -0.00000085313587      2.83680140328112     -0.00913035594137
C   3.68182717731192      0.70931832800114     -0.00808954934571
C   2.45512052870677      2.83422403348893     -0.00819210630633
C   3.68182158506039     -0.70933346742900      0.00798293467272
C   -1.22531311884624     -0.70752714354401     -0.00512042085974
C   1.22670006104402      3.54346985599427      0.00816696660346
C   0.00000526469929     -2.83678176723568      0.00832091913869
C   -2.45643555300670      1.41831729028492      0.00842454345199
C   2.45512389762097     -2.83422965658853      0.00783102630520
C   -1.22671388474763      3.54346943575023      0.00827029982280
C   4.91451777504333      1.42717324448953     -0.00160886631602
C   3.69315067131765      3.54279566454522     -0.00155906667985
C   -2.45643712022637     -1.41831290883911     -0.00846337726810
C   1.22670532178455     -3.54347386990643     -0.00780316414624
C   -2.45512491866593      2.83421703463423     -0.00818572995999
C   4.91452486062398     -1.42718653794377      0.00136387641845
C   1.22142509354026      4.97013443726031      0.00150231067809
C   4.89300870916237      2.82518837202648     -0.00039219795739
C   -1.22669652864725     -3.54347062507680     -0.00753595973677
C   -3.68181849668397      0.70932533873199     -0.00807686886569
C   3.69314758099218     -3.54280096939050      0.00148176697923
C   -1.22143177215231      4.97012866986289      0.00168580605083
C   6.13477145276790      0.68054831910577     -0.00083909176631
C   3.65678936045204      4.97295361556775     -0.00065042889723
C   -2.45512642789169     -2.83421472106065      0.00758666850712
C   -3.68181869921921     -0.70932533146830      0.00810055625144
C   4.89301309775526     -2.82519973363176      0.00021895393805
C   -0.00000059327114      5.65044773803267      0.00045449734393
C   6.13477559217374     -0.68055448207492      0.00042622874941
C   2.47813196269732      5.65357712333155      0.00063835075260
C   1.22142288457925     -4.97012668293268     -0.00129718634452
C   -3.69316190412301      3.54279732619245     -0.00139355922051
C   -1.22142804110313     -4.97011793159564     -0.00140994817719
C   -4.91452132810043      1.42717581899491     -0.00153192130862
C   3.65678749952045     -4.97295485423912      0.00080007163680
C   -2.47813805026426      5.65357479452875      0.00092287576113
C   -3.69314125872231     -3.54278984697859      0.00136564082345
C   -4.91451200321153     -1.42718062802730      0.00139857359209
C   -0.00000552908399     -5.65043791501335      0.00005899322272
C   -4.89302000425900      2.82518897091939     -0.00040227981744
C   2.47812647313991     -5.65357317188818     -0.00029052915548
C   -3.65679823041642      4.97295655404175     -0.00047374852278
C   -4.89299899901461     -2.82519139505969      0.00006491824035
C   -2.47812801824129     -5.65356579800621     -0.00056571680280
C   -6.13477002348955      0.68054913825639     -0.00086464346868
C   -3.65678835334731     -4.97294365097028      0.00058578382008
C   -6.13476456307132     -0.68055354348201      0.00040575295444
H   5.83528897565761      3.36927626695423      0.00396712770529
H   7.07385965258860      1.22821762089947     -0.00037744837300
H   4.60066374401555      5.51238117445323     -0.00014522814529
H   5.83528386714679     -3.36930568472863     -0.00423551337640
H   -0.00001167146422      6.73853104613662     -0.00389474766392
H   7.07386165167227     -1.22822657074368     -0.00008250934481
H   2.47331421164041      6.74068466339473      0.00017162982210
H   4.60066897122302     -5.51237575717576      0.00039007446835
H   -2.47331820069565      6.74068209160650      0.00047297644710
H   -0.00000978838621     -6.73852780445195      0.00458867820736
H   -5.83530143450167      3.36927132229595      0.00410314985360
H   2.47330840367253     -6.74068500242887      0.00027980126949
H   -4.60067436136587      5.51237839860371      0.00002010017831
H   -5.83527902699321     -3.36928859177951     -0.00451481925734
H   -2.47329986759855     -6.74067870613986     -0.00016951527498
H   -7.07385728692578      1.22822084484047     -0.00046143985387
H   -4.60067330624313     -5.51236229778631      0.00021776644566
H   -7.07385645456741     -1.22822025997701     -0.00017736581114

    units angstrom      # Angstroms are the default
    no_reorient         # Geometry fixed, default
    symmetry c1         # C1 symmetry, default
}

set {
    scf_type DF         # Density fitting, faster than exact integrals
    freeze_core True    # Freeze core electrons
    basis jun-cc-pVDZ   # Jun-cc-pVDZ basis set, recommended for sSAPT0 in https://doi.org/10.1063/1.4867135
}

energy('ssapt0')        # Compute sSAPT0 energy, includes also SAPT0
--------------------------------------------------------------------------

  //              Dimer HF             //
    Molecular point group: c1
  Charge       = -1
  Multiplicity = 1
  Basis Set: JUN-CC-PVDZ
    Blend: JUN-CC-PVDZ
  Basis Set: (JUN-CC-PVDZ AUX)
    Blend: JUN-CC-PVDZ-JKFIT
  @DF-RHF Final Energy: -2478.65825958479491
    Total Energy =                      -2478.6582595847958146
 Dipole X            :         -0.0005028            0.0000481           -0.0004548
 Dipole Y            :          0.0010338           -0.0001453            0.0008885
 Dipole Z            :        -30.2474417           40.4603568           10.2129151
 Magnitude           :                                                   10.2129152
  //            Monomer A HF           //
    Molecular point group: c1
  Multiplicity = 1
  Basis Set: JUN-CC-PVDZ
    Blend: JUN-CC-PVDZ
  Basis Set: (JUN-CC-PVDZ AUX)
    Blend: JUN-CC-PVDZ-JKFIT
  @DF-RHF Final Energy:  -422.77157075107908
    Total Energy =                       -422.7715707510790821
  //            Monomer B HF           //
    Molecular point group: c1

    Geometry (in Angstrom), charge = 0, multiplicity = 1:

       Center              X                  Y                   Z               Mass
    ------------   -----------------  -----------------  -----------------  -----------------
      Gh(B)          -0.000198161052     0.000273808717    -5.837533980819    11.009305360000
      Gh(F)          -0.000000401852    -0.000000464183    -4.424748980819    18.998403162730
      Gh(F)           1.147859598148     0.675780735817    -6.308674980819    18.998403162730
      Gh(F)           0.011917658148    -1.332011464183    -6.308472980819    18.998403162730
      Gh(F)          -1.159666401852     0.656073035817    -6.308393980819    18.998403162730
         C            1.225311973413     0.707538196736     0.768569646465    12.000000000000
         C            1.225323934041    -0.707538986754     0.756238836895    12.000000000000
         C           -0.000006075942     1.414965821907     0.755705213374    12.000000000000
         C            2.456448831939     1.418327794995     0.771456503865    12.000000000000
         C            0.000010905269    -1.414976590818     0.765904770698    12.000000000000
         C           -1.225300870919     0.707545281801     0.770821166787    12.000000000000
         C            2.456437833310    -1.418323396064     0.753993680038    12.000000000000
         C           -0.000001254988     2.836800939098     0.753301663240    12.000000000000
         C            3.681826775460     0.709317863818     0.754342469835    12.000000000000
         C            2.455120126855     2.834223569306     0.754239912875    12.000000000000
         C            3.681821183209    -0.709333931612     0.770414953854    12.000000000000
         C           -1.225313520698    -0.707527607727     0.757311598321    12.000000000000
         C            1.226699659192     3.543469391811     0.770598985785    12.000000000000
         C            0.000004862847    -2.836782231419     0.770752938320    12.000000000000
         C           -2.456435954859     1.418316826102     0.770856562633    12.000000000000
         C            2.455123495769    -2.834230120772     0.770263045486    12.000000000000
         C           -1.226714286599     3.543468971567     0.770702319004    12.000000000000
         C            4.914517373191     1.427172780306     0.760823152865    12.000000000000
         C            3.693150269466     3.542795200362     0.760872952501    12.000000000000
         C           -2.456437522078    -1.418313373022     0.753968641913    12.000000000000
         C            1.226704919933    -3.543474334090     0.754628855035    12.000000000000
         C           -2.455125320518     2.834216570451     0.754246289221    12.000000000000
         C            4.914524458772    -1.427187002127     0.763795895600    12.000000000000
         C            1.221424691688     4.970133973077     0.763934329859    12.000000000000
         C            4.893008307311     2.825187907843     0.762039821224    12.000000000000
         C           -1.226696930499    -3.543471089260     0.754896059444    12.000000000000
         C           -3.681818898536     0.709324874549     0.754355150315    12.000000000000
         C            3.693147179140    -3.542801433574     0.763913786160    12.000000000000
         C           -1.221432174004     4.970128205680     0.764117825232    12.000000000000
         C            6.134771050916     0.680547854922     0.761592927415    12.000000000000
         C            3.656788958600     4.972953151384     0.761781590284    12.000000000000
         C           -2.455126829744    -2.834215185244     0.770018687688    12.000000000000
         C           -3.681819101071    -0.709325795652     0.770532575433    12.000000000000
         C            4.893012695903    -2.825200197815     0.762650973119    12.000000000000
         C           -0.000000995123     5.650447273849     0.762886516525    12.000000000000
         C            6.134775190322    -0.680554946258     0.762858247931    12.000000000000
         C            2.478131560845     5.653576659148     0.763070369934    12.000000000000
         C            1.221422482727    -4.970127147116     0.761134832837    12.000000000000
         C           -3.693162305975     3.542796862009     0.761038459961    12.000000000000
         C           -1.221428442955    -4.970118395779     0.761022071004    12.000000000000
         C           -4.914521729952     1.427175354812     0.760900097873    12.000000000000
         C            3.656787097669    -4.972955318422     0.763232090818    12.000000000000
         C           -2.478138452116     5.653574330345     0.763354894942    12.000000000000
         C           -3.693141660574    -3.542790311162     0.763797660005    12.000000000000
         C           -4.914512405063    -1.427181092211     0.763830592773    12.000000000000
         C           -0.000005930936    -5.650438379197     0.762491012404    12.000000000000
         C           -4.893020406111     2.825188506736     0.762029739364    12.000000000000
         C            2.478126071288    -5.653573636072     0.762141490026    12.000000000000
         C           -3.656798632268     4.972956089858     0.761958270658    12.000000000000
         C           -4.892999400866    -2.825191859243     0.762496937422    12.000000000000
         C           -2.478128420093    -5.653566262190     0.761866302378    12.000000000000
         C           -6.134770425341     0.680548674073     0.761567375712    12.000000000000
         C           -3.656788755199    -4.972944115154     0.763017803001    12.000000000000
         C           -6.134764964923    -0.680554007665     0.762837772136    12.000000000000
         H            5.835288573806     3.369275802771     0.766399146886     1.007825032230
         H            7.073859250737     1.228217156716     0.762054570808     1.007825032230
         H            4.600663342164     5.512380710270     0.762286791036     1.007825032230
         H            5.835283465295    -3.369306148912     0.758196505805     1.007825032230
         H           -0.000012073316     6.738530581953     0.758537271517     1.007825032230
         H            7.073861249820    -1.228227034927     0.762349509836     1.007825032230
         H            2.473313809789     6.740684199211     0.762603649003     1.007825032230
         H            4.600668569371    -5.512376221359     0.762822093650     1.007825032230
         H           -2.473318602548     6.740681627423     0.762904995628     1.007825032230
         H           -0.000010190238    -6.738528268635     0.767020697389     1.007825032230
         H           -5.835301836354     3.369270858113     0.766535169035     1.007825032230
         H            2.473308001821    -6.740685466612     0.762711820451     1.007825032230
         H           -4.600674763218     5.512377934420     0.762452119359     1.007825032230
         H           -5.835279428845    -3.369289055963     0.757917199924     1.007825032230
         H           -2.473300269450    -6.740679170323     0.762262503906     1.007825032230
         H           -7.073857688778     1.228220380657     0.761970579327     1.007825032230
         H           -4.600673708095    -5.512362761970     0.762649785627     1.007825032230
         H           -7.073856856419    -1.228220724160     0.762254653370     1.007825032230

  Charge       = 0
  Multiplicity = 1
  Basis Set: JUN-CC-PVDZ
    Blend: JUN-CC-PVDZ
  Basis Set: (JUN-CC-PVDZ AUX)
    Blend: JUN-CC-PVDZ-JKFIT

    Orbital Energies [Eh]
    ---------------------

    Doubly Occupied:

       1A    -11.260654     2A    -11.260211     3A    -11.260208
       4A    -11.259494     5A    -11.259493     6A    -11.259322
       7A    -11.259114     8A    -11.259037     9A    -11.259035
      10A    -11.258717    11A    -11.258713    12A    -11.258645
      13A    -11.258583    14A    -11.258578    15A    -11.258576
      16A    -11.258546    17A    -11.258540    18A    -11.258525
      19A    -11.258509    20A    -11.258504    21A    -11.258499
      22A    -11.258399    23A    -11.258395    24A    -11.258098
      25A    -11.257436    26A    -11.257374    27A    -11.257373
      28A    -11.257237    29A    -11.257237    30A    -11.257152
      31A    -11.256530    32A    -11.256459    33A    -11.256458
      34A    -11.256349    35A    -11.256348    36A    -11.256301
      37A    -11.252385    38A    -11.252385    39A    -11.252384
      40A    -11.252382    41A    -11.252380    42A    -11.252378
      43A    -11.251515    44A    -11.251512    45A    -11.251511
      46A    -11.251506    47A    -11.251505    48A    -11.251501
      49A    -11.250947    50A    -11.250946    51A    -11.250945
      52A    -11.250943    53A    -11.250941    54A    -11.250940
      55A     -1.244251    56A     -1.219985    57A     -1.219984
      58A     -1.189699    59A     -1.189691    60A     -1.181124
      61A     -1.157703    62A     -1.149133    63A     -1.135667
      64A     -1.135661    65A     -1.113336    66A     -1.113332
      67A     -1.082598    68A     -1.082590    69A     -1.078776
      70A     -1.066121    71A     -1.066117    72A     -1.039555
      73A     -1.024456    74A     -1.021950    75A     -1.021907
      76A     -1.017870    77A     -1.012931    78A     -0.987191
      79A     -0.987145    80A     -0.962027    81A     -0.961977
      82A     -0.894444    83A     -0.894418    84A     -0.888124
      85A     -0.886370    86A     -0.886312    87A     -0.881571
      88A     -0.881524    89A     -0.862050    90A     -0.837536
      91A     -0.818369    92A     -0.816794    93A     -0.812308
      94A     -0.812298    95A     -0.794833    96A     -0.794822
      97A     -0.746807    98A     -0.745030    99A     -0.733594
     100A     -0.733585   101A     -0.732331   102A     -0.732308
     103A     -0.716666   104A     -0.699126   105A     -0.699116
     106A     -0.693749   107A     -0.693733   108A     -0.661379
     109A     -0.653286   110A     -0.651341   111A     -0.650395
     112A     -0.650389   113A     -0.639509   114A     -0.639507
     115A     -0.629884   116A     -0.627694   117A     -0.627678
     118A     -0.606482   119A     -0.605921   120A     -0.601835
     121A     -0.599895   122A     -0.599864   123A     -0.593800
     124A     -0.591412   125A     -0.591401   126A     -0.585404
     127A     -0.576404   128A     -0.576398   129A     -0.567460
     130A     -0.567446   131A     -0.566127   132A     -0.566108
     133A     -0.558902   134A     -0.554997   135A     -0.554991
     136A     -0.538738   137A     -0.538736   138A     -0.538272
     139A     -0.538266   140A     -0.529872   141A     -0.528236
     142A     -0.523026   143A     -0.523020   144A     -0.500649
     145A     -0.495704   146A     -0.493385   147A     -0.487931
     148A     -0.485241   149A     -0.481920   150A     -0.481912
     151A     -0.470420   152A     -0.470403   153A     -0.451211
     154A     -0.451132   155A     -0.439174   156A     -0.439165
     157A     -0.404848   158A     -0.404825   159A     -0.403484
     160A     -0.375529   161A     -0.375526   162A     -0.349231
     163A     -0.337687   164A     -0.336665   165A     -0.336607
     166A     -0.311209   167A     -0.298199   168A     -0.284457
     169A     -0.284403   170A     -0.225033   171A     -0.224967

  @DF-RHF Final Energy: -2055.89190453515403

   => Energetics <=

    Nuclear Repulsion Energy =           6452.5568002797772351
    One-Electron Energy =              -15636.4348792339860665
    Two-Electron Energy =                7127.9861744190548052
    Total Energy =                      -2055.8919045351540262
 Dipole X            :          0.0000486            0.0000419            0.0000905
 Dipole Y            :          0.0000324           -0.0000426           -0.0000101
 Dipole Z            :       -492.7451143          492.7479523            0.0028381
 Magnitude           :                                                    0.0028395

    SAPT Results
  --------------------------------------------------------------------------------------------------------
    Electrostatics                  8.13502930 [mEh]       5.10480795 [kcal/mol]      21.35851648 [kJ/mol]
      Elst10,r                      8.13502930 [mEh]       5.10480795 [kcal/mol]      21.35851648 [kJ/mol]

    Exchange                       -0.00006783 [mEh]      -0.00004256 [kcal/mol]      -0.00017808 [kJ/mol]
      Exch10                       -0.00006783 [mEh]      -0.00004256 [kcal/mol]      -0.00017808 [kJ/mol]
      Exch10(S^2)                  -0.00006782 [mEh]      -0.00004256 [kcal/mol]      -0.00017806 [kJ/mol]

    Induction                      -2.91926003 [mEh]      -1.83186333 [kcal/mol]      -7.66451616 [kJ/mol]
      Ind20,r                      -2.94512447 [mEh]      -1.84809351 [kcal/mol]      -7.73242324 [kJ/mol]
      Exch-Ind20,r                  0.00143370 [mEh]       0.00089966 [kcal/mol]       0.00376419 [kJ/mol]
      delta HF,r (2)                0.02443074 [mEh]       0.01533052 [kcal/mol]       0.06414289 [kJ/mol]

    Dispersion                     -0.59005747 [mEh]      -0.37026665 [kcal/mol]      -1.54919568 [kJ/mol]
      Disp20                       -0.59091933 [mEh]      -0.37080748 [kcal/mol]      -1.55145849 [kJ/mol]
      Exch-Disp20                   0.00086186 [mEh]       0.00054082 [kcal/mol]       0.00226281 [kJ/mol]
      Disp20 (SS)                  -0.29545967 [mEh]      -0.18540374 [kcal/mol]      -0.77572924 [kJ/mol]
      Disp20 (OS)                  -0.29545967 [mEh]      -0.18540374 [kcal/mol]      -0.77572924 [kJ/mol]
      Exch-Disp20 (SS)              0.00066046 [mEh]       0.00041444 [kcal/mol]       0.00173403 [kJ/mol]
      Exch-Disp20 (OS)              0.00020140 [mEh]       0.00012638 [kcal/mol]       0.00052878 [kJ/mol]

  Total HF                          5.21570144 [mEh]       3.27290206 [kcal/mol]      13.69382224 [kJ/mol]
  Total SAPT0                       4.62564397 [mEh]       2.90263541 [kcal/mol]      12.14462656 [kJ/mol]

  Special recipe for scaled SAPT0 (see Manual):
    Electrostatics sSAPT0           8.13502930 [mEh]       5.10480795 [kcal/mol]      21.35851648 [kJ/mol]
    Exchange sSAPT0                -0.00006783 [mEh]      -0.00004256 [kcal/mol]      -0.00017808 [kJ/mol]
    Induction sSAPT0               -2.91926003 [mEh]      -1.83186333 [kcal/mol]      -7.66451616 [kJ/mol]
    Dispersion sSAPT0              -0.59005747 [mEh]      -0.37026665 [kcal/mol]      -1.54919568 [kJ/mol]
  Total sSAPT0                      4.62564397 [mEh]       2.90263541 [kcal/mol]      12.14462656 [kJ/mol]
  --------------------------------------------------------------------------------------------------------

*** Psi4 exiting successfully. Buy a developer a beer!
