                               Psi4 1.9 release

  ==> Input File <==

--------------------------------------------------------------------------
memory 48 GB # how much memory is available ! Depends on the nodes/cores !

molecule dimer {
# monomer A
+1 1    # Charge and multiplicity
C  0.680067 -1.215929 2.508042
C -0.680504 -1.215545 2.506014
N -1.085635  0.102779 2.505016
C  0.000108  0.884180 2.501740
C -2.477365  0.570758 2.455610
N  1.085222  0.102779 2.505016
H  1.385146 -2.033368 2.515870
H -1.385302 -2.033214 2.506204
H -0.000009  1.965269 2.499993
C  2.478117  0.567877 2.521908
H  2.490592  1.658130 2.494563
H  2.967028  0.220701 3.435354
H  3.001428  0.176405 1.646425
H -2.857359  0.490799 1.433539
H -3.082679 -0.042306 3.125694
H -2.518128  1.610706 2.782594
--
# monomer B
0 1     # Charge and multiplicity
C   1.22531237526482      0.70753866091955      0.00613762728373
C   1.22532433589282     -0.70753852257020     -0.00619318228664
C   -0.00000567409046      1.41496628609039     -0.00672680580738
C   2.45644923379077      1.41832825917820      0.00902448468363
C   0.00001130712078     -1.41497612663474      0.00347275151708
C   -1.22530046906674      0.70754574598412      0.00838914760619
C   2.45643823516184     -1.41832293188077     -0.00843833914343
C   -0.00000085313587      2.83680140328112     -0.00913035594137
C   3.68182717731192      0.70931832800114     -0.00808954934571
C   2.45512052870677      2.83422403348893     -0.00819210630633
C   3.68182158506039     -0.70933346742900      0.00798293467272
C   -1.22531311884624     -0.70752714354401     -0.00512042085974
C   1.22670006104402      3.54346985599427      0.00816696660346
C   0.00000526469929     -2.83678176723568      0.00832091913869
C   -2.45643555300670      1.41831729028492      0.00842454345199
C   2.45512389762097     -2.83422965658853      0.00783102630520
C   -1.22671388474763      3.54346943575023      0.00827029982280
C   4.91451777504333      1.42717324448953     -0.00160886631602
C   3.69315067131765      3.54279566454522     -0.00155906667985
C   -2.45643712022637     -1.41831290883911     -0.00846337726810
C   1.22670532178455     -3.54347386990643     -0.00780316414624
C   -2.45512491866593      2.83421703463423     -0.00818572995999
C   4.91452486062398     -1.42718653794377      0.00136387641845
C   1.22142509354026      4.97013443726031      0.00150231067809
C   4.89300870916237      2.82518837202648     -0.00039219795739
C   -1.22669652864725     -3.54347062507680     -0.00753595973677
C   -3.68181849668397      0.70932533873199     -0.00807686886569
C   3.69314758099218     -3.54280096939050      0.00148176697923
C   -1.22143177215231      4.97012866986289      0.00168580605083
C   6.13477145276790      0.68054831910577     -0.00083909176631
C   3.65678936045204      4.97295361556775     -0.00065042889723
C   -2.45512642789169     -2.83421472106065      0.00758666850712
C   -3.68181869921921     -0.70932533146830      0.00810055625144
C   4.89301309775526     -2.82519973363176      0.00021895393805
C   -0.00000059327114      5.65044773803267      0.00045449734393
C   6.13477559217374     -0.68055448207492      0.00042622874941
C   2.47813196269732      5.65357712333155      0.00063835075260
C   1.22142288457925     -4.97012668293268     -0.00129718634452
C   -3.69316190412301      3.54279732619245     -0.00139355922051
C   -1.22142804110313     -4.97011793159564     -0.00140994817719
C   -4.91452132810043      1.42717581899491     -0.00153192130862
C   3.65678749952045     -4.97295485423912      0.00080007163680
C   -2.47813805026426      5.65357479452875      0.00092287576113
C   -3.69314125872231     -3.54278984697859      0.00136564082345
C   -4.91451200321153     -1.42718062802730      0.00139857359209
C   -0.00000552908399     -5.65043791501335      0.00005899322272
C   -4.89302000425900      2.82518897091939     -0.00040227981744
C   2.47812647313991     -5.65357317188818     -0.00029052915548
C   -3.65679823041642      4.97295655404175     -0.00047374852278
C   -4.89299899901461     -2.82519139505969      0.00006491824035
C   -2.47812801824129     -5.65356579800621     -0.00056571680280
C   -6.13477002348955      0.68054913825639     -0.00086464346868
C   -3.65678835334731     -4.97294365097028      0.00058578382008
C   -6.13476456307132     -0.68055354348201      0.00040575295444
H   5.83528897565761      3.36927626695423      0.00396712770529
H   7.07385965258860      1.22821762089947     -0.00037744837300
H   4.60066374401555      5.51238117445323     -0.00014522814529
H   5.83528386714679     -3.36930568472863     -0.00423551337640
H   -0.00001167146422      6.73853104613662     -0.00389474766392
H   7.07386165167227     -1.22822657074368     -0.00008250934481
H   2.47331421164041      6.74068466339473      0.00017162982210
H   4.60066897122302     -5.51237575717576      0.00039007446835
H   -2.47331820069565      6.74068209160650      0.00047297644710
H   -0.00000978838621     -6.73852780445195      0.00458867820736
H   -5.83530143450167      3.36927132229595      0.00410314985360
H   2.47330840367253     -6.74068500242887      0.00027980126949
H   -4.60067436136587      5.51237839860371      0.00002010017831
H   -5.83527902699321     -3.36928859177951     -0.00451481925734
H   -2.47329986759855     -6.74067870613986     -0.00016951527498
H   -7.07385728692578      1.22822084484047     -0.00046143985387
H   -4.60067330624313     -5.51236229778631      0.00021776644566
H   -7.07385645456741     -1.22822025997701     -0.00017736581114

    units angstrom      # Angstroms are the default
    no_reorient         # Geometry fixed, default
    symmetry c1         # C1 symmetry, default
}

set {
    scf_type DF         # Density fitting, faster than exact integrals
    freeze_core True    # Freeze core electrons
    basis jun-cc-pVDZ   # Jun-cc-pVDZ basis set, recommended for sSAPT0 in https://doi.org/10.1063/1.4867135
}

energy('ssapt0')        # Compute sSAPT0 energy, includes also SAPT0
--------------------------------------------------------------------------

  //              Dimer HF             //
    Molecular point group: c1
  Charge       = 1
  Multiplicity = 1
  Basis Set: JUN-CC-PVDZ
    Blend: JUN-CC-PVDZ
  Basis Set: (JUN-CC-PVDZ AUX)
    Blend: JUN-CC-PVDZ-JKFIT
  @DF-RHF Final Energy: -2359.00431336958400
    Total Energy =                      -2359.0043133695835422
 Dipole X            :          0.0097798            0.0006313            0.0104111
 Dipole Y            :         -1.7522187            1.8864948            0.1342761
 Dipole Z            :        -10.7280890           12.9758055            2.2477164
 Magnitude           :                                                    2.2517477
  //            Monomer A HF           //
    Molecular point group: c1
  Multiplicity = 1
  Basis Set: JUN-CC-PVDZ
    Blend: JUN-CC-PVDZ
  Basis Set: (JUN-CC-PVDZ AUX)
    Blend: JUN-CC-PVDZ-JKFIT
  @DF-RHF Final Energy:  -303.30073517853685
    Total Energy =                       -303.3007351785368542
  //            Monomer B HF           //
    Molecular point group: c1

    Geometry (in Angstrom), charge = 0, multiplicity = 1:

       Center              X                  Y                   Z               Mass
    ------------   -----------------  -----------------  -----------------  -----------------
      Gh(C)           0.680066520158    -1.215933861162     2.190059519330    12.000000000000
      Gh(C)          -0.680504479842    -1.215549861162     2.188031519330    12.000000000000
      Gh(N)          -1.085635479842     0.102774138838     2.187033519330    14.003074004430
      Gh(C)           0.000107520158     0.884175138838     2.183757519330    12.000000000000
      Gh(C)          -2.477365479842     0.570753138838     2.137627519330    12.000000000000
      Gh(N)           1.085221520158     0.102774138838     2.187033519330    14.003074004430
      Gh(H)           1.385145520158    -2.033372861162     2.197887519330     1.007825032230
      Gh(H)          -1.385302479842    -2.033218861162     2.188221519330     1.007825032230
      Gh(H)          -0.000009479842     1.965264138838     2.182010519330     1.007825032230
      Gh(C)           2.478116520158     0.567872138838     2.203925519330    12.000000000000
      Gh(H)           2.490591520158     1.658125138838     2.176580519330     1.007825032230
      Gh(H)           2.967027520158     0.220696138838     3.117371519330     1.007825032230
      Gh(H)           3.001427520158     0.176400138838     1.328442519330     1.007825032230
      Gh(H)          -2.857359479842     0.490794138838     1.115556519330     1.007825032230
      Gh(H)          -3.082679479842    -0.042310861162     2.807711519330     1.007825032230
      Gh(H)          -2.518128479842     1.610701138838     2.464611519330     1.007825032230
         C            1.225311895423     0.707533799757    -0.311844853386    12.000000000000
         C            1.225323856051    -0.707543383733    -0.324175662956    12.000000000000
         C           -0.000006153932     1.414961424928    -0.324709286477    12.000000000000
         C            2.456448753949     1.418323398016    -0.308957995986    12.000000000000
         C            0.000010827279    -1.414980987797    -0.314509729152    12.000000000000
         C           -1.225300948908     0.707540884822    -0.309593333063    12.000000000000
         C            2.456437755320    -1.418327793043    -0.326420819813    12.000000000000
         C           -0.000001332978     2.836796542119    -0.327112836611    12.000000000000
         C            3.681826697470     0.709313466839    -0.326072030015    12.000000000000
         C            2.455120048865     2.834219172327    -0.326174586976    12.000000000000
         C            3.681821105219    -0.709338328591    -0.309999545997    12.000000000000
         C           -1.225313598688    -0.707532004706    -0.323102901529    12.000000000000
         C            1.226699581202     3.543464994832    -0.309815514066    12.000000000000
         C            0.000004784858    -2.836786628398    -0.309661561531    12.000000000000
         C           -2.456436032848     1.418312429123    -0.309557937218    12.000000000000
         C            2.455123417779    -2.834234517751    -0.310151454364    12.000000000000
         C           -1.226714364589     3.543464574588    -0.309712180847    12.000000000000
         C            4.914517295202     1.427168383327    -0.319591346986    12.000000000000
         C            3.693150191476     3.542790803383    -0.319541547349    12.000000000000
         C           -2.456437600068    -1.418317770001    -0.326445857938    12.000000000000
         C            1.226704841943    -3.543478731069    -0.325785644816    12.000000000000
         C           -2.455125398508     2.834212173472    -0.326168210630    12.000000000000
         C            4.914524380782    -1.427191399106    -0.316618604251    12.000000000000
         C            1.221424613699     4.970129576098    -0.316480169991    12.000000000000
         C            4.893008229321     2.825183510864    -0.318374678627    12.000000000000
         C           -1.226697008489    -3.543475486239    -0.325518440406    12.000000000000
         C           -3.681818976526     0.709320477570    -0.326059349535    12.000000000000
         C            3.693147101150    -3.542805830553    -0.316500713690    12.000000000000
         C           -1.221432251994     4.970123808701    -0.316296674619    12.000000000000
         C            6.134770972926     0.680543457943    -0.318821572436    12.000000000000
         C            3.656788880610     4.972948754405    -0.318632909567    12.000000000000
         C           -2.455126907733    -2.834219582223    -0.310395812162    12.000000000000
         C           -3.681819179061    -0.709330192631    -0.309881924418    12.000000000000
         C            4.893012617914    -2.825204594794    -0.317763526731    12.000000000000
         C           -0.000001073113     5.650442876870    -0.317527983326    12.000000000000
         C            6.134775112332    -0.680559343237    -0.317556251920    12.000000000000
         C            2.478131482856     5.653572262169    -0.317344129917    12.000000000000
         C            1.221422404738    -4.970131544095    -0.319279667014    12.000000000000
         C           -3.693162383965     3.542792465030    -0.319376039890    12.000000000000
         C           -1.221428520945    -4.970122792758    -0.319392428847    12.000000000000
         C           -4.914521807942     1.427170957833    -0.319514401978    12.000000000000
         C            3.656787019679    -4.972959715401    -0.317182409033    12.000000000000
         C           -2.478138530106     5.653569933366    -0.317059604908    12.000000000000
         C           -3.693141738564    -3.542794708141    -0.316616839846    12.000000000000
         C           -4.914512483053    -1.427185489190    -0.316583907077    12.000000000000
         C           -0.000006008926    -5.650442776176    -0.317923487447    12.000000000000
         C           -4.893020484101     2.825184109757    -0.318384760487    12.000000000000
         C            2.478125993298    -5.653578033051    -0.318273009825    12.000000000000
         C           -3.656798710258     4.972951692879    -0.318456229192    12.000000000000
         C           -4.892999478856    -2.825196256222    -0.317917562429    12.000000000000
         C           -2.478128498083    -5.653570659169    -0.318548197472    12.000000000000
         C           -6.134770503331     0.680544277094    -0.318847124138    12.000000000000
         C           -3.656788833189    -4.972948512133    -0.317396696849    12.000000000000
         C           -6.134765042913    -0.680558404644    -0.317576727715    12.000000000000
         H            5.835288495816     3.369271405792    -0.314015352964     1.007825032230
         H            7.073859172747     1.228212759737    -0.318359929043     1.007825032230
         H            4.600663264174     5.512376313291    -0.318127708815     1.007825032230
         H            5.835283387305    -3.369310545891    -0.322217994046     1.007825032230
         H           -0.000012151306     6.738526184974    -0.321877228333     1.007825032230
         H            7.073861171831    -1.228231431906    -0.318064990014     1.007825032230
         H            2.473313731799     6.740679802232    -0.317810850847     1.007825032230
         H            4.600668491381    -5.512380618338    -0.317592406201     1.007825032230
         H           -2.473318680537     6.740677230444    -0.317509504222     1.007825032230
         H           -0.000010268228    -6.738532665614    -0.313393802462     1.007825032230
         H           -5.835301914343     3.369266461134    -0.313879330816     1.007825032230
         H            2.473307923831    -6.740689863591    -0.317702679400     1.007825032230
         H           -4.600674841208     5.512373537441    -0.317962380491     1.007825032230
         H           -5.835279506835    -3.369293452942    -0.322497299927     1.007825032230
         H           -2.473300347440    -6.740683567302    -0.318151995945     1.007825032230
         H           -7.073857766768     1.228215983678    -0.318443920523     1.007825032230
         H           -4.600673786085    -5.512367158949    -0.317764714224     1.007825032230
         H           -7.073856934409    -1.228225121139    -0.318159846481     1.007825032230

  Charge       = 0
  Multiplicity = 1
  Basis Set: JUN-CC-PVDZ
    Blend: JUN-CC-PVDZ
  Basis Set: (JUN-CC-PVDZ AUX)
    Blend: JUN-CC-PVDZ-JKFIT

    Orbital Energies [Eh]
    ---------------------

    Doubly Occupied:

       1A    -11.260660     2A    -11.260204     3A    -11.260197
       4A    -11.259424     5A    -11.259412     6A    -11.259210
       7A    -11.258944     8A    -11.258878     9A    -11.258853
      10A    -11.258541    11A    -11.258538    12A    -11.258361
      13A    -11.258320    14A    -11.258307    15A    -11.258297
      16A    -11.258266    17A    -11.258265    18A    -11.258244
      19A    -11.258239    20A    -11.258237    21A    -11.258219
      22A    -11.258201    23A    -11.258193    24A    -11.258036
      25A    -11.257185    26A    -11.257130    27A    -11.257108
      28A    -11.256999    29A    -11.256992    30A    -11.256907
      31A    -11.256286    32A    -11.256222    33A    -11.256196
      34A    -11.256112    35A    -11.256104    36A    -11.256042
      37A    -11.252127    38A    -11.252118    39A    -11.252087
      40A    -11.252086    41A    -11.252084    42A    -11.252081
      43A    -11.251198    44A    -11.251188    45A    -11.251169
      46A    -11.251165    47A    -11.251161    48A    -11.251156
      49A    -11.250688    50A    -11.250679    51A    -11.250649
      52A    -11.250647    53A    -11.250645    54A    -11.250641
      55A     -1.243728    56A     -1.219507    57A     -1.219482
      58A     -1.189249    59A     -1.189227    60A     -1.180639
      61A     -1.157282    62A     -1.148684    63A     -1.135192
      64A     -1.135164    65A     -1.112921    66A     -1.112912
      67A     -1.082117    68A     -1.082107    69A     -1.078295
      70A     -1.065719    71A     -1.065709    72A     -1.039104
      73A     -1.023925    74A     -1.021448    75A     -1.021385
      76A     -1.017455    77A     -1.012544    78A     -0.986707
      79A     -0.986645    80A     -0.961606    81A     -0.961553
      82A     -0.894006    83A     -0.893984    84A     -0.887588
      85A     -0.885830    86A     -0.885794    87A     -0.881060
      88A     -0.881013    89A     -0.861617    90A     -0.837164
      91A     -0.817899    92A     -0.816267    93A     -0.811810
      94A     -0.811806    95A     -0.794417    96A     -0.794402
      97A     -0.746268    98A     -0.744533    99A     -0.733089
     100A     -0.733074   101A     -0.731899   102A     -0.731873
     103A     -0.716188   104A     -0.698690   105A     -0.698654
     106A     -0.693283   107A     -0.693239   108A     -0.660948
     109A     -0.652794   110A     -0.650808   111A     -0.649984
     112A     -0.649978   113A     -0.639076   114A     -0.639056
     115A     -0.629396   116A     -0.627197   117A     -0.627186
     118A     -0.606442   119A     -0.605594   120A     -0.601323
     121A     -0.599452   122A     -0.599381   123A     -0.593302
     124A     -0.590866   125A     -0.590829   126A     -0.585032
     127A     -0.576385   128A     -0.576313   129A     -0.567064
     130A     -0.567045   131A     -0.565628   132A     -0.565623
     133A     -0.558390   134A     -0.554571   135A     -0.554562
     136A     -0.538315   137A     -0.538313   138A     -0.538124
     139A     -0.538114   140A     -0.529413   141A     -0.528102
     142A     -0.522586   143A     -0.522550   144A     -0.500226
     145A     -0.495485   146A     -0.492945   147A     -0.487698
     148A     -0.484741   149A     -0.481437   150A     -0.481436
     151A     -0.470234   152A     -0.470227   153A     -0.450660
     154A     -0.450595   155A     -0.438921   156A     -0.438913
     157A     -0.404569   158A     -0.404564   159A     -0.403206
     160A     -0.375255   161A     -0.375249   162A     -0.348935
     163A     -0.337430   164A     -0.336391   165A     -0.336377
     166A     -0.310885   167A     -0.297936   168A     -0.284141
     169A     -0.284105   170A     -0.224720   171A     -0.224660

  @DF-RHF Final Energy: -2055.89767971240326

   => Energetics <=

    Nuclear Repulsion Energy =           6452.5568002797781446
    One-Electron Energy =              -15636.5682517791228747
    Two-Electron Energy =                7128.1137717869405606
    Total Energy =                      -2055.8976797124032601
 Dipole X            :         -0.0010978           -0.0000085           -0.0011063
 Dipole Y            :         -0.0001887           -0.0028843           -0.0030730
 Dipole Z            :        205.5142738         -205.5091750            0.0050989
 Magnitude           :                                                    0.0060552

    SAPT Results
  --------------------------------------------------------------------------------------------------------
    Electrostatics               -150.38840432 [mEh]     -94.37014846 [kcal/mol]    -394.84470115 [kJ/mol]
      Elst10,r                   -150.38840432 [mEh]     -94.37014846 [kcal/mol]    -394.84470115 [kJ/mol]

    Exchange                      397.27197595 [mEh]     249.29192858 [kcal/mol]    1043.03742916 [kJ/mol]
      Exch10                      397.27197595 [mEh]     249.29192858 [kcal/mol]    1043.03742916 [kJ/mol]
      Exch10(S^2)                 381.59032074 [mEh]     239.45154137 [kcal/mol]    1001.86524908 [kJ/mol]

    Induction                     -52.78205027 [mEh]     -33.12123659 [kcal/mol]    -138.57925390 [kJ/mol]
      Ind20,r                    -208.96602945 [mEh]    -131.12816317 [kcal/mol]    -548.64023472 [kJ/mol]
      Exch-Ind20,r                165.42647182 [mEh]     103.80667828 [kcal/mol]     434.32714192 [kJ/mol]
      delta HF,r (2)               -9.24249265 [mEh]      -5.79975170 [kcal/mol]     -24.26616110 [kJ/mol]

    Dispersion                   -127.25147060 [mEh]     -79.85150335 [kcal/mol]    -334.09869003 [kJ/mol]
      Disp20                     -156.45878537 [mEh]     -98.17937008 [kcal/mol]    -410.78248440 [kJ/mol]
      Exch-Disp20                  29.20731477 [mEh]      18.32786672 [kcal/mol]      76.68379437 [kJ/mol]
      Disp20 (SS)                 -78.22939269 [mEh]     -49.08968504 [kcal/mol]    -205.39124220 [kJ/mol]
      Disp20 (OS)                 -78.22939269 [mEh]     -49.08968504 [kcal/mol]    -205.39124220 [kJ/mol]
      Exch-Disp20 (SS)             17.31494147 [mEh]      10.86528981 [kcal/mol]      45.46037257 [kJ/mol]
      Exch-Disp20 (OS)             11.89237330 [mEh]       7.46257691 [kcal/mol]      31.22342180 [kJ/mol]

  Total HF                        194.10152136 [mEh]     121.80054353 [kcal/mol]     509.61347411 [kJ/mol]
  Total SAPT0                      66.85005076 [mEh]      41.94904017 [kcal/mol]     175.51478408 [kJ/mol]

  Special recipe for scaled SAPT0 (see Manual):
    Electrostatics sSAPT0        -150.38840432 [mEh]     -94.37014846 [kcal/mol]    -394.84470115 [kJ/mol]
    Exchange sSAPT0               397.27197595 [mEh]     249.29192858 [kcal/mol]    1043.03742916 [kJ/mol]
    Induction sSAPT0              -31.53756740 [mEh]     -19.79012232 [kcal/mol]     -82.80187180 [kJ/mol]
    Dispersion sSAPT0            -123.50059390 [mEh]     -77.49779269 [kcal/mol]    -324.25076461 [kJ/mol]
  Total sSAPT0                     91.84541033 [mEh]      57.63386511 [kcal/mol]     241.14009161 [kJ/mol]
  --------------------------------------------------------------------------------------------------------

*** Psi4 exiting successfully. Buy a developer a beer!
