                               Psi4 1.9 release

  ==> Input File <==

--------------------------------------------------------------------------
memory 32 GB # how much memory is available ! Depends on the nodes/cores !

molecule dimer {
# monomer A
+1 1    # Charge and multiplicity
C  0.680067 1.417258 -6.615929
C -0.680504 1.419286 -6.615545
N -1.085635 1.420284 -5.297221
C  0.000108 1.423560 -4.515820
C -2.477365 1.469690 -4.829242
N  1.085222 1.420284 -5.297221
H  1.385146 1.409430 -7.433368
H -1.385302 1.419096 -7.433214
H -0.000009 1.425307 -3.434731
C  2.478117 1.403392 -4.832123
H  2.490592 1.430737 -3.741870
H  2.967028 0.489946 -5.179299
H  3.001428 2.278875 -5.223595
H -2.857359 2.491761 -4.909201
H -3.082679 0.799606 -5.442306
H -2.518128 1.142706 -3.789294
--
# monomer B
0 1     # Charge and multiplicity
C   1.22531237526482      0.70753866091955      0.00613762728373
C   1.22532433589282     -0.70753852257020     -0.00619318228664
C   -0.00000567409046      1.41496628609039     -0.00672680580738
C   2.45644923379077      1.41832825917820      0.00902448468363
C   0.00001130712078     -1.41497612663474      0.00347275151708
C   -1.22530046906674      0.70754574598412      0.00838914760619
C   2.45643823516184     -1.41832293188077     -0.00843833914343
C   -0.00000085313587      2.83680140328112     -0.00913035594137
C   3.68182717731192      0.70931832800114     -0.00808954934571
C   2.45512052870677      2.83422403348893     -0.00819210630633
C   3.68182158506039     -0.70933346742900      0.00798293467272
C   -1.22531311884624     -0.70752714354401     -0.00512042085974
C   1.22670006104402      3.54346985599427      0.00816696660346
C   0.00000526469929     -2.83678176723568      0.00832091913869
C   -2.45643555300670      1.41831729028492      0.00842454345199
C   2.45512389762097     -2.83422965658853      0.00783102630520
C   -1.22671388474763      3.54346943575023      0.00827029982280
C   4.91451777504333      1.42717324448953     -0.00160886631602
C   3.69315067131765      3.54279566454522     -0.00155906667985
C   -2.45643712022637     -1.41831290883911     -0.00846337726810
C   1.22670532178455     -3.54347386990643     -0.00780316414624
C   -2.45512491866593      2.83421703463423     -0.00818572995999
C   4.91452486062398     -1.42718653794377      0.00136387641845
C   1.22142509354026      4.97013443726031      0.00150231067809
C   4.89300870916237      2.82518837202648     -0.00039219795739
C   -1.22669652864725     -3.54347062507680     -0.00753595973677
C   -3.68181849668397      0.70932533873199     -0.00807686886569
C   3.69314758099218     -3.54280096939050      0.00148176697923
C   -1.22143177215231      4.97012866986289      0.00168580605083
C   6.13477145276790      0.68054831910577     -0.00083909176631
C   3.65678936045204      4.97295361556775     -0.00065042889723
C   -2.45512642789169     -2.83421472106065      0.00758666850712
C   -3.68181869921921     -0.70932533146830      0.00810055625144
C   4.89301309775526     -2.82519973363176      0.00021895393805
C   -0.00000059327114      5.65044773803267      0.00045449734393
C   6.13477559217374     -0.68055448207492      0.00042622874941
C   2.47813196269732      5.65357712333155      0.00063835075260
C   1.22142288457925     -4.97012668293268     -0.00129718634452
C   -3.69316190412301      3.54279732619245     -0.00139355922051
C   -1.22142804110313     -4.97011793159564     -0.00140994817719
C   -4.91452132810043      1.42717581899491     -0.00153192130862
C   3.65678749952045     -4.97295485423912      0.00080007163680
C   -2.47813805026426      5.65357479452875      0.00092287576113
C   -3.69314125872231     -3.54278984697859      0.00136564082345
C   -4.91451200321153     -1.42718062802730      0.00139857359209
C   -0.00000552908399     -5.65043791501335      0.00005899322272
C   -4.89302000425900      2.82518897091939     -0.00040227981744
C   2.47812647313991     -5.65357317188818     -0.00029052915548
C   -3.65679823041642      4.97295655404175     -0.00047374852278
C   -4.89299899901461     -2.82519139505969      0.00006491824035
C   -2.47812801824129     -5.65356579800621     -0.00056571680280
C   -6.13477002348955      0.68054913825639     -0.00086464346868
C   -3.65678835334731     -4.97294365097028      0.00058578382008
C   -6.13476456307132     -0.68055354348201      0.00040575295444
H   5.83528897565761      3.36927626695423      0.00396712770529
H   7.07385965258860      1.22821762089947     -0.00037744837300
H   4.60066374401555      5.51238117445323     -0.00014522814529
H   5.83528386714679     -3.36930568472863     -0.00423551337640
H   -0.00001167146422      6.73853104613662     -0.00389474766392
H   7.07386165167227     -1.22822657074368     -0.00008250934481
H   2.47331421164041      6.74068466339473      0.00017162982210
H   4.60066897122302     -5.51237575717576      0.00039007446835
H   -2.47331820069565      6.74068209160650      0.00047297644710
H   -0.00000978838621     -6.73852780445195      0.00458867820736
H   -5.83530143450167      3.36927132229595      0.00410314985360
H   2.47330840367253     -6.74068500242887      0.00027980126949
H   -4.60067436136587      5.51237839860371      0.00002010017831
H   -5.83527902699321     -3.36928859177951     -0.00451481925734
H   -2.47329986759855     -6.74067870613986     -0.00016951527498
H   -7.07385728692578      1.22822084484047     -0.00046143985387
H   -4.60067330624313     -5.51236229778631      0.00021776644566
H   -7.07385645456741     -1.22822025997701     -0.00017736581114

    units angstrom      # Angstroms are the default
    no_reorient         # Geometry fixed, default
    symmetry c1         # C1 symmetry, default
}

set {
    scf_type DF         # Density fitting, faster than exact integrals
    freeze_core True    # Freeze core electrons
    basis jun-cc-pVDZ   # Jun-cc-pVDZ basis set, recommended for sSAPT0 in https://doi.org/10.1063/1.4867135
}

energy('ssapt0')        # Compute sSAPT0 energy, includes also SAPT0
--------------------------------------------------------------------------

  //              Dimer HF             //
    Molecular point group: c1
  Charge       = 1
  Multiplicity = 1
  Basis Set: JUN-CC-PVDZ
    Blend: JUN-CC-PVDZ
  Basis Set: (JUN-CC-PVDZ AUX)
    Blend: JUN-CC-PVDZ-JKFIT
  @DF-RHF Final Energy: -2359.20838417707364
    Total Energy =                      -2359.2083841770727304
 Dipole X            :         -0.0022082            0.0006313           -0.0015769
 Dipole Y            :         -5.8555610            7.4856329            1.6300720
 Dipole Z            :         19.0641512          -26.2616634           -7.1975122
 Magnitude           :                                                    7.3797913
  //            Monomer A HF           //
    Molecular point group: c1
  Multiplicity = 1
  Basis Set: JUN-CC-PVDZ
    Blend: JUN-CC-PVDZ
  Basis Set: (JUN-CC-PVDZ AUX)
    Blend: JUN-CC-PVDZ-JKFIT
  @DF-RHF Final Energy:  -303.29761454581251
    Total Energy =                       -303.2976145458125075
  //            Monomer B HF           //
    Molecular point group: c1

    Geometry (in Angstrom), charge = 0, multiplicity = 1:

       Center              X                  Y                   Z               Mass
    ------------   -----------------  -----------------  -----------------  -----------------
      Gh(C)           0.680066520158     1.235968212970    -5.929084403064    12.000000000000
      Gh(C)          -0.680504479842     1.237996212970    -5.928700403064    12.000000000000
      Gh(N)          -1.085635479842     1.238994212970    -4.610376403064    14.003074004430
      Gh(C)           0.000107520158     1.242270212970    -3.828975403064    12.000000000000
      Gh(C)          -2.477365479842     1.288400212970    -4.142397403064    12.000000000000
      Gh(N)           1.085221520158     1.238994212970    -4.610376403064    14.003074004430
      Gh(H)           1.385145520158     1.228140212970    -6.746523403064     1.007825032230
      Gh(H)          -1.385302479842     1.237806212970    -6.746369403064     1.007825032230
      Gh(H)          -0.000009479842     1.244017212970    -2.747886403064     1.007825032230
      Gh(C)           2.478116520158     1.222102212970    -4.145278403064    12.000000000000
      Gh(H)           2.490591520158     1.249447212970    -3.055025403064     1.007825032230
      Gh(H)           2.967027520158     0.308656212970    -4.492454403064     1.007825032230
      Gh(H)           3.001427520158     2.097585212970    -4.536750403064     1.007825032230
      Gh(H)          -2.857359479842     2.310471212970    -4.222356403064     1.007825032230
      Gh(H)          -3.082679479842     0.618316212970    -4.755461403064     1.007825032230
      Gh(H)          -2.518128479842     0.961416212970    -3.102449403064     1.007825032230
         C            1.225311895423     0.526248873889     0.692982224220    12.000000000000
         C            1.225323856051    -0.888828309601     0.680651414649    12.000000000000
         C           -0.000006153932     1.233676499060     0.680117791129    12.000000000000
         C            2.456448753949     1.237038472148     0.695869081620    12.000000000000
         C            0.000010827279    -1.596265913665     0.690317348453    12.000000000000
         C           -1.225300948908     0.526255958954     0.695233744542    12.000000000000
         C            2.456437755320    -1.599612718911     0.678406257793    12.000000000000
         C           -0.000001332978     2.655511616251     0.677714240995    12.000000000000
         C            3.681826697470     0.528028540971     0.678755047590    12.000000000000
         C            2.455120048865     2.652934246459     0.678652490630    12.000000000000
         C            3.681821105219    -0.890623254459     0.694827531609    12.000000000000
         C           -1.225313598688    -0.888816930574     0.681724176076    12.000000000000
         C            1.226699581202     3.362180068964     0.695011563539    12.000000000000
         C            0.000004784858    -3.018071554266     0.695165516075    12.000000000000
         C           -2.456436032848     1.237027503255     0.695269140388    12.000000000000
         C            2.455123417779    -3.015519443619     0.694675623241    12.000000000000
         C           -1.226714364589     3.362179648720     0.695114896759    12.000000000000
         C            4.914517295202     1.245883457459     0.685235730620    12.000000000000
         C            3.693150191476     3.361505877515     0.685285530256    12.000000000000
         C           -2.456437600068    -1.599602695869     0.678381219668    12.000000000000
         C            1.226704841943    -3.724763656937     0.679041432790    12.000000000000
         C           -2.455125398508     2.652927247604     0.678658866976    12.000000000000
         C            4.914524380782    -1.608476324974     0.688208473354    12.000000000000
         C            1.221424613699     4.788844650230     0.688346907614    12.000000000000
         C            4.893008229321     2.643898584996     0.686452398979    12.000000000000
         C           -1.226697008489    -3.724760412107     0.679308637199    12.000000000000
         C           -3.681818976526     0.528035551702     0.678767728070    12.000000000000
         C            3.693147101150    -3.724090756421     0.688326363915    12.000000000000
         C           -1.221432251994     4.788838882833     0.688530402987    12.000000000000
         C            6.134770972926     0.499258532075     0.686005505170    12.000000000000
         C            3.656788880610     4.791663828537     0.686194168039    12.000000000000
         C           -2.455126907733    -3.015504508091     0.694431265443    12.000000000000
         C           -3.681819179061    -0.890615118499     0.694945153187    12.000000000000
         C            4.893012617914    -3.006489520662     0.687063550874    12.000000000000
         C           -0.000001073113     5.469157951002     0.687299094280    12.000000000000
         C            6.134775112332    -0.861844269105     0.687270825685    12.000000000000
         C            2.478131482856     5.472287336301     0.687482947689    12.000000000000
         C            1.221422404738    -5.151416469963     0.685547410591    12.000000000000
         C           -3.693162383965     3.361507539162     0.685451037715    12.000000000000
         C           -1.221428520945    -5.151407718626     0.685434648759    12.000000000000
         C           -4.914521807942     1.245886031965     0.685312675627    12.000000000000
         C            3.656787019679    -5.154244641269     0.687644668573    12.000000000000
         C           -2.478138530106     5.472285007498     0.687767472697    12.000000000000
         C           -3.693141738564    -3.724079634009     0.688210237759    12.000000000000
         C           -4.914512483053    -1.608470415058     0.688243170528    12.000000000000
         C           -0.000006008926    -5.831727702044     0.686903590159    12.000000000000
         C           -4.893020484101     2.643899183889     0.686442317119    12.000000000000
         C            2.478125993298    -5.834862958919     0.686554067780    12.000000000000
         C           -3.656798710258     4.791666767011     0.686370848413    12.000000000000
         C           -4.892999478856    -3.006481182090     0.686909515176    12.000000000000
         C           -2.478128498083    -5.834855585037     0.686278880133    12.000000000000
         C           -6.134770503331     0.499259351226     0.685979953467    12.000000000000
         C           -3.656788833189    -5.154233438001     0.687430380756    12.000000000000
         C           -6.134765042913    -0.861843330512     0.687250349890    12.000000000000
         H            5.835288495816     3.187986479924     0.690811724641     1.007825032230
         H            7.073859172747     1.046927833869     0.686467148563     1.007825032230
         H            4.600663264174     5.331091387423     0.686699368791     1.007825032230
         H            5.835283387305    -3.550595471759     0.682609083560     1.007825032230
         H           -0.000012151306     6.557241259106     0.682949849272     1.007825032230
         H            7.073861171831    -1.409516357774     0.686762087591     1.007825032230
         H            2.473313731799     6.559394876364     0.687016226758     1.007825032230
         H            4.600668491381    -5.693665544206     0.687234671404     1.007825032230
         H           -2.473318680537     6.559392304576     0.687317573383     1.007825032230
         H           -0.000010268228    -6.919817591482     0.691433275143     1.007825032230
         H           -5.835301914343     3.187981535266     0.690947746790     1.007825032230
         H            2.473307923831    -6.921974789459     0.687124398205     1.007825032230
         H           -4.600674841208     5.331088611573     0.686864697114     1.007825032230
         H           -5.835279506835    -3.550578378810     0.682329777679     1.007825032230
         H           -2.473300347440    -6.921968493170     0.686675081661     1.007825032230
         H           -7.073857766768     1.046931057810     0.686383157082     1.007825032230
         H           -4.600673786085    -5.693652084817     0.687062363382     1.007825032230
         H           -7.073856934409    -1.409510047007     0.686667231125     1.007825032230

  Charge       = 0
  Multiplicity = 1
  Basis Set: JUN-CC-PVDZ
    Blend: JUN-CC-PVDZ
  Basis Set: (JUN-CC-PVDZ AUX)
    Blend: JUN-CC-PVDZ-JKFIT

    Orbital Energies [Eh]
    ---------------------

    Doubly Occupied:

       1A    -11.260590     2A    -11.260145     3A    -11.260118
       4A    -11.259441     5A    -11.259412     6A    -11.259239
       7A    -11.259039     8A    -11.258954     9A    -11.258940
      10A    -11.258621    11A    -11.258604    12A    -11.258529
      13A    -11.258468    14A    -11.258467    15A    -11.258461
      16A    -11.258429    17A    -11.258425    18A    -11.258407
      19A    -11.258403    20A    -11.258395    21A    -11.258391
      22A    -11.258315    23A    -11.258294    24A    -11.258011
      25A    -11.257327    26A    -11.257268    27A    -11.257264
      28A    -11.257138    29A    -11.257130    30A    -11.257050
      31A    -11.256423    32A    -11.256356    33A    -11.256350
      34A    -11.256247    35A    -11.256242    36A    -11.256195
      37A    -11.252294    38A    -11.252291    39A    -11.252262
      40A    -11.252258    41A    -11.252256    42A    -11.252253
      43A    -11.251409    44A    -11.251391    45A    -11.251389
      46A    -11.251381    47A    -11.251379    48A    -11.251361
      49A    -11.250855    50A    -11.250852    51A    -11.250823
      52A    -11.250819    53A    -11.250817    54A    -11.250814
      55A     -1.244045    56A     -1.219806    57A     -1.219783
      58A     -1.189528    59A     -1.189510    60A     -1.180927
      61A     -1.157539    62A     -1.148961    63A     -1.135483
      64A     -1.135457    65A     -1.113173    66A     -1.113170
      67A     -1.082407    68A     -1.082404    69A     -1.078583
      70A     -1.065963    71A     -1.065957    72A     -1.039374
      73A     -1.024253    74A     -1.021755    75A     -1.021694
      76A     -1.017706    77A     -1.012776    78A     -0.987003
      79A     -0.986950    80A     -0.961860    81A     -0.961809
      82A     -0.894267    83A     -0.894243    84A     -0.887908
      85A     -0.886157    86A     -0.886108    87A     -0.881371
      88A     -0.881323    89A     -0.861876    90A     -0.837389
      91A     -0.818184    92A     -0.816590    93A     -0.812107
      94A     -0.812106    95A     -0.794669    96A     -0.794654
      97A     -0.746592    98A     -0.744830    99A     -0.733391
     100A     -0.733387   101A     -0.732160   102A     -0.732135
     103A     -0.716473   104A     -0.698955   105A     -0.698929
     106A     -0.693568   107A     -0.693536   108A     -0.661208
     109A     -0.653091   110A     -0.651132   111A     -0.650233
     112A     -0.650224   113A     -0.639342   114A     -0.639324
     115A     -0.629688   116A     -0.627494   117A     -0.627484
     118A     -0.606464   119A     -0.605790   120A     -0.601632
     121A     -0.599723   122A     -0.599667   123A     -0.593602
     124A     -0.591199   125A     -0.591174   126A     -0.585258
     127A     -0.576441   128A     -0.576370   129A     -0.567303
     130A     -0.567283   131A     -0.565932   132A     -0.565918
     133A     -0.558700   134A     -0.554824   135A     -0.554823
     136A     -0.538569   137A     -0.538568   138A     -0.538217
     139A     -0.538214   140A     -0.529689   141A     -0.528155
     142A     -0.522853   143A     -0.522831   144A     -0.500480
     145A     -0.495616   146A     -0.493211   147A     -0.487854
     148A     -0.485041   149A     -0.481726   150A     -0.481724
     151A     -0.470343   152A     -0.470327   153A     -0.450989
     154A     -0.450918   155A     -0.439072   156A     -0.439064
     157A     -0.404745   158A     -0.404729   159A     -0.403361
     160A     -0.375424   161A     -0.375413   162A     -0.349117
     163A     -0.337605   164A     -0.336563   165A     -0.336480
     166A     -0.311093   167A     -0.298093   168A     -0.284346
     169A     -0.284289   170A     -0.224912   171A     -0.224848

  @DF-RHF Final Energy: -2055.89374776706427

   => Energetics <=

    Nuclear Repulsion Energy =           6452.5568002797781446
    One-Electron Energy =              -15636.4878899345621903
    Two-Electron Energy =                7128.0373418877188669
    Total Energy =                      -2055.8937477670642693
 Dipole X            :          0.0001245           -0.0000085            0.0001160
 Dipole Y            :        117.1703051         -117.1648546            0.0054505
 Dipole Z            :       -443.8906067          443.8968342            0.0062275
 Magnitude           :                                                    0.0082767

    SAPT Results
  --------------------------------------------------------------------------------------------------------
    Electrostatics                -10.73605447 [mEh]      -6.73697589 [kcal/mol]     -28.18750713 [kJ/mol]
      Elst10,r                    -10.73605447 [mEh]      -6.73697589 [kcal/mol]     -28.18750713 [kJ/mol]

    Exchange                        0.40551364 [mEh]       0.25446365 [kcal/mol]       1.06467591 [kJ/mol]
      Exch10                        0.40551364 [mEh]       0.25446365 [kcal/mol]       1.06467591 [kJ/mol]
      Exch10(S^2)                   0.40545093 [mEh]       0.25442430 [kcal/mol]       1.06451126 [kJ/mol]

    Induction                      -6.69132336 [mEh]      -4.19886880 [kcal/mol]     -17.56806707 [kJ/mol]
      Ind20,r                      -6.37727971 [mEh]      -4.00180344 [kcal/mol]     -16.74354558 [kJ/mol]
      Exch-Ind20,r                  0.08467654 [mEh]       0.05313533 [kcal/mol]       0.22231821 [kJ/mol]
      delta HF,r (2)               -0.39872019 [mEh]      -0.25020069 [kcal/mol]      -1.04683971 [kJ/mol]

    Dispersion                     -6.09179646 [mEh]      -3.82265999 [kcal/mol]     -15.99400939 [kJ/mol]
      Disp20                       -6.13955095 [mEh]      -3.85262639 [kcal/mol]     -16.11938881 [kJ/mol]
      Exch-Disp20                   0.04775450 [mEh]       0.02996640 [kcal/mol]       0.12537942 [kJ/mol]
      Disp20 (SS)                  -3.06977548 [mEh]      -1.92631319 [kcal/mol]      -8.05969441 [kJ/mol]
      Disp20 (OS)                  -3.06977548 [mEh]      -1.92631319 [kcal/mol]      -8.05969441 [kJ/mol]
      Exch-Disp20 (SS)              0.03127088 [mEh]       0.01962277 [kcal/mol]       0.08210169 [kJ/mol]
      Exch-Disp20 (OS)              0.01648362 [mEh]       0.01034363 [kcal/mol]       0.04327773 [kJ/mol]

  Total HF                        -17.02186420 [mEh]     -10.68138104 [kcal/mol]     -44.69089829 [kJ/mol]
  Total SAPT0                     -23.11366065 [mEh]     -14.50404103 [kcal/mol]     -60.68490768 [kJ/mol]

  Special recipe for scaled SAPT0 (see Manual):
    Electrostatics sSAPT0         -10.73605447 [mEh]      -6.73697589 [kcal/mol]     -28.18750713 [kJ/mol]
    Exchange sSAPT0                 0.40551364 [mEh]       0.25446365 [kcal/mol]       1.06467591 [kJ/mol]
    Induction sSAPT0               -6.69128407 [mEh]      -4.19884414 [kcal/mol]     -17.56796390 [kJ/mol]
    Dispersion sSAPT0              -6.09177429 [mEh]      -3.82264608 [kcal/mol]     -15.99395120 [kJ/mol]
  Total sSAPT0                    -23.11359919 [mEh]     -14.50400247 [kcal/mol]     -60.68474632 [kJ/mol]
  --------------------------------------------------------------------------------------------------------

*** Psi4 exiting successfully. Buy a developer a beer!
