                               Psi4 1.9 release

  ==> Input File <==

--------------------------------------------------------------------------
memory 32 GB # how much memory is available ! Depends on the nodes/cores !

molecule dimer {
# monomer A
-1 1    # Charge and multiplicity
B -0.000046  0.000337 5.799994
F -1.153597  0.000048 6.615641
F  1.153661 -0.000581 6.615641
F -0.000019 -1.153637 4.984360
F -0.000019  1.153978 4.984360
--
# monomer B
0 1     # Charge and multiplicity
C   1.22531237526482      0.70753866091955      0.00613762728373
C   1.22532433589282     -0.70753852257020     -0.00619318228664
C   -0.00000567409046      1.41496628609039     -0.00672680580738
C   2.45644923379077      1.41832825917820      0.00902448468363
C   0.00001130712078     -1.41497612663474      0.00347275151708
C   -1.22530046906674      0.70754574598412      0.00838914760619
C   2.45643823516184     -1.41832293188077     -0.00843833914343
C   -0.00000085313587      2.83680140328112     -0.00913035594137
C   3.68182717731192      0.70931832800114     -0.00808954934571
C   2.45512052870677      2.83422403348893     -0.00819210630633
C   3.68182158506039     -0.70933346742900      0.00798293467272
C   -1.22531311884624     -0.70752714354401     -0.00512042085974
C   1.22670006104402      3.54346985599427      0.00816696660346
C   0.00000526469929     -2.83678176723568      0.00832091913869
C   -2.45643555300670      1.41831729028492      0.00842454345199
C   2.45512389762097     -2.83422965658853      0.00783102630520
C   -1.22671388474763      3.54346943575023      0.00827029982280
C   4.91451777504333      1.42717324448953     -0.00160886631602
C   3.69315067131765      3.54279566454522     -0.00155906667985
C   -2.45643712022637     -1.41831290883911     -0.00846337726810
C   1.22670532178455     -3.54347386990643     -0.00780316414624
C   -2.45512491866593      2.83421703463423     -0.00818572995999
C   4.91452486062398     -1.42718653794377      0.00136387641845
C   1.22142509354026      4.97013443726031      0.00150231067809
C   4.89300870916237      2.82518837202648     -0.00039219795739
C   -1.22669652864725     -3.54347062507680     -0.00753595973677
C   -3.68181849668397      0.70932533873199     -0.00807686886569
C   3.69314758099218     -3.54280096939050      0.00148176697923
C   -1.22143177215231      4.97012866986289      0.00168580605083
C   6.13477145276790      0.68054831910577     -0.00083909176631
C   3.65678936045204      4.97295361556775     -0.00065042889723
C   -2.45512642789169     -2.83421472106065      0.00758666850712
C   -3.68181869921921     -0.70932533146830      0.00810055625144
C   4.89301309775526     -2.82519973363176      0.00021895393805
C   -0.00000059327114      5.65044773803267      0.00045449734393
C   6.13477559217374     -0.68055448207492      0.00042622874941
C   2.47813196269732      5.65357712333155      0.00063835075260
C   1.22142288457925     -4.97012668293268     -0.00129718634452
C   -3.69316190412301      3.54279732619245     -0.00139355922051
C   -1.22142804110313     -4.97011793159564     -0.00140994817719
C   -4.91452132810043      1.42717581899491     -0.00153192130862
C   3.65678749952045     -4.97295485423912      0.00080007163680
C   -2.47813805026426      5.65357479452875      0.00092287576113
C   -3.69314125872231     -3.54278984697859      0.00136564082345
C   -4.91451200321153     -1.42718062802730      0.00139857359209
C   -0.00000552908399     -5.65043791501335      0.00005899322272
C   -4.89302000425900      2.82518897091939     -0.00040227981744
C   2.47812647313991     -5.65357317188818     -0.00029052915548
C   -3.65679823041642      4.97295655404175     -0.00047374852278
C   -4.89299899901461     -2.82519139505969      0.00006491824035
C   -2.47812801824129     -5.65356579800621     -0.00056571680280
C   -6.13477002348955      0.68054913825639     -0.00086464346868
C   -3.65678835334731     -4.97294365097028      0.00058578382008
C   -6.13476456307132     -0.68055354348201      0.00040575295444
H   5.83528897565761      3.36927626695423      0.00396712770529
H   7.07385965258860      1.22821762089947     -0.00037744837300
H   4.60066374401555      5.51238117445323     -0.00014522814529
H   5.83528386714679     -3.36930568472863     -0.00423551337640
H   -0.00001167146422      6.73853104613662     -0.00389474766392
H   7.07386165167227     -1.22822657074368     -0.00008250934481
H   2.47331421164041      6.74068466339473      0.00017162982210
H   4.60066897122302     -5.51237575717576      0.00039007446835
H   -2.47331820069565      6.74068209160650      0.00047297644710
H   -0.00000978838621     -6.73852780445195      0.00458867820736
H   -5.83530143450167      3.36927132229595      0.00410314985360
H   2.47330840367253     -6.74068500242887      0.00027980126949
H   -4.60067436136587      5.51237839860371      0.00002010017831
H   -5.83527902699321     -3.36928859177951     -0.00451481925734
H   -2.47329986759855     -6.74067870613986     -0.00016951527498
H   -7.07385728692578      1.22822084484047     -0.00046143985387
H   -4.60067330624313     -5.51236229778631      0.00021776644566
H   -7.07385645456741     -1.22822025997701     -0.00017736581114

    units angstrom      # Angstroms are the default
    no_reorient         # Geometry fixed, default
    symmetry c1         # C1 symmetry, default
}

set {
    scf_type DF         # Density fitting, faster than exact integrals
    freeze_core True    # Freeze core electrons
    basis jun-cc-pVDZ   # Jun-cc-pVDZ basis set, recommended for sSAPT0 in https://doi.org/10.1063/1.4867135
}

energy('ssapt0')        # Compute sSAPT0 energy, includes also SAPT0
--------------------------------------------------------------------------

  //              Dimer HF             //
    Molecular point group: c1
  Charge       = -1
  Multiplicity = 1
  Basis Set: JUN-CC-PVDZ
    Blend: JUN-CC-PVDZ
  Basis Set: (JUN-CC-PVDZ AUX)
    Blend: JUN-CC-PVDZ-JKFIT
  @DF-RHF Final Energy: -2478.65842392597597
    Total Energy =                      -2478.6584239259755122
 Dipole X            :         -0.0002009           -0.0000160           -0.0002169
 Dipole Y            :          0.0012704           -0.0001716            0.0010988
 Dipole Z            :         26.7971373          -35.5557599           -8.7586226
 Magnitude           :                                                    8.7586227
  //            Monomer A HF           //
    Molecular point group: c1
  Multiplicity = 1
  Basis Set: JUN-CC-PVDZ
    Blend: JUN-CC-PVDZ
  Basis Set: (JUN-CC-PVDZ AUX)
    Blend: JUN-CC-PVDZ-JKFIT
  @DF-RHF Final Energy:  -422.77168092306709
    Total Energy =                       -422.7716809230670947
  //            Monomer B HF           //
    Molecular point group: c1

    Geometry (in Angstrom), charge = 0, multiplicity = 1:

       Center              X                  Y                   Z               Mass
    ------------   -----------------  -----------------  -----------------  -----------------
      Gh(B)          -0.000046449334     0.000336519434     5.129982192489    11.009305360000
      Gh(F)          -1.153597449334     0.000047519434     5.945629192489    18.998403162730
      Gh(F)           1.153660550666    -0.000581480566     5.945629192489    18.998403162730
      Gh(F)          -0.000019449334    -1.153637480566     4.314348192489    18.998403162730
      Gh(F)          -0.000019449334     1.153977519434     4.314348192489    18.998403162730
         C            1.225311925931     0.707538180353    -0.663874180227    12.000000000000
         C            1.225323886559    -0.707539003137    -0.676204989797    12.000000000000
         C           -0.000006123424     1.414965805524    -0.676738613318    12.000000000000
         C            2.456448784457     1.418327778612    -0.660987322827    12.000000000000
         C            0.000010857787    -1.414976607201    -0.666539055994    12.000000000000
         C           -1.225300918401     0.707545265418    -0.661622659904    12.000000000000
         C            2.456437785828    -1.418323412447    -0.678450146654    12.000000000000
         C           -0.000001302470     2.836800922715    -0.679142163452    12.000000000000
         C            3.681826727978     0.709317847435    -0.678101356856    12.000000000000
         C            2.455120079373     2.834223552923    -0.678203913817    12.000000000000
         C            3.681821135726    -0.709333947995    -0.662028872838    12.000000000000
         C           -1.225313568180    -0.707527624110    -0.675132228370    12.000000000000
         C            1.226699611710     3.543469375428    -0.661844840907    12.000000000000
         C            0.000004815365    -2.836782247802    -0.661690888372    12.000000000000
         C           -2.456436002341     1.418316809719    -0.661587264059    12.000000000000
         C            2.455123448287    -2.834230137155    -0.662180781205    12.000000000000
         C           -1.226714334082     3.543468955184    -0.661741507688    12.000000000000
         C            4.914517325709     1.427172763923    -0.671620673827    12.000000000000
         C            3.693150221984     3.542795183979    -0.671570874190    12.000000000000
         C           -2.456437569560    -1.418313389406    -0.678475184779    12.000000000000
         C            1.226704872451    -3.543474350473    -0.677814971657    12.000000000000
         C           -2.455125368000     2.834216554068    -0.678197537471    12.000000000000
         C            4.914524411290    -1.427187018510    -0.668647931092    12.000000000000
         C            1.221424644206     4.970133956694    -0.668509496833    12.000000000000
         C            4.893008259828     2.825187891460    -0.670404005468    12.000000000000
         C           -1.226696977981    -3.543471105643    -0.677547767247    12.000000000000
         C           -3.681818946018     0.709324858166    -0.678088676376    12.000000000000
         C            3.693147131658    -3.542801449957    -0.668530040531    12.000000000000
         C           -1.221432221486     4.970128189296    -0.668326001460    12.000000000000
         C            6.134771003434     0.680547838539    -0.670850899277    12.000000000000
         C            3.656788911118     4.972953135001    -0.670662236408    12.000000000000
         C           -2.455126877226    -2.834215201627    -0.662425139004    12.000000000000
         C           -3.681819148553    -0.709325812035    -0.661911251259    12.000000000000
         C            4.893012648421    -2.825200214198    -0.669792853573    12.000000000000
         C           -0.000001042605     5.650447257466    -0.669557310167    12.000000000000
         C            6.134775142840    -0.680554962641    -0.669585578761    12.000000000000
         C            2.478131513363     5.653576642765    -0.669373456758    12.000000000000
         C            1.221422435245    -4.970127163499    -0.671308993855    12.000000000000
         C           -3.693162353457     3.542796845626    -0.671405366731    12.000000000000
         C           -1.221428490437    -4.970118412162    -0.671421755688    12.000000000000
         C           -4.914521777434     1.427175338429    -0.671543728819    12.000000000000
         C            3.656787050187    -4.972955334806    -0.669211735874    12.000000000000
         C           -2.478138499598     5.653574313962    -0.669088931750    12.000000000000
         C           -3.693141708056    -3.542790327545    -0.668646166687    12.000000000000
         C           -4.914512452545    -1.427181108594    -0.668613233919    12.000000000000
         C           -0.000005978418    -5.650438395580    -0.669952814288    12.000000000000
         C           -4.893020453593     2.825188490353    -0.670414087328    12.000000000000
         C            2.478126023806    -5.653573652455    -0.670302336666    12.000000000000
         C           -3.656798679750     4.972956073475    -0.670485556033    12.000000000000
         C           -4.892999448349    -2.825191875626    -0.669946889270    12.000000000000
         C           -2.478128467575    -5.653566278573    -0.670577524313    12.000000000000
         C           -6.134770472823     0.680548657690    -0.670876450979    12.000000000000
         C           -3.656788802681    -4.972944131537    -0.669426023691    12.000000000000
         C           -6.134765012405    -0.680554024048    -0.669606054556    12.000000000000
         H            5.835288526324     3.369275786388    -0.666044679805     1.007825032230
         H            7.073859203255     1.228217140333    -0.670389255884     1.007825032230
         H            4.600663294682     5.512380693887    -0.670157035656     1.007825032230
         H            5.835283417813    -3.369306165295    -0.674247320887     1.007825032230
         H           -0.000012120798     6.738530565570    -0.673906555175     1.007825032230
         H            7.073861202338    -1.228227051310    -0.670094316855     1.007825032230
         H            2.473313762307     6.740684182828    -0.669840177689     1.007825032230
         H            4.600668521889    -5.512376237742    -0.669621733042     1.007825032230
         H           -2.473318650030     6.740681611040    -0.669538831064     1.007825032230
         H           -0.000010237720    -6.738528285018    -0.665423129303     1.007825032230
         H           -5.835301883836     3.369270841730    -0.665908657657     1.007825032230
         H            2.473307954339    -6.740685482995    -0.669732006241     1.007825032230
         H           -4.600674810700     5.512377918037    -0.669991707332     1.007825032230
         H           -5.835279476327    -3.369289072346    -0.674526626768     1.007825032230
         H           -2.473300316932    -6.740679186706    -0.670181322786     1.007825032230
         H           -7.073857736260     1.228220364274    -0.670473247365     1.007825032230
         H           -4.600673755577    -5.512362778353    -0.669794041065     1.007825032230
         H           -7.073856903901    -1.228220740543    -0.670189173322     1.007825032230

  Charge       = 0
  Multiplicity = 1
  Basis Set: JUN-CC-PVDZ
    Blend: JUN-CC-PVDZ
  Basis Set: (JUN-CC-PVDZ AUX)
    Blend: JUN-CC-PVDZ-JKFIT

    Orbital Energies [Eh]
    ---------------------

    Doubly Occupied:

       1A    -11.260632     2A    -11.260197     3A    -11.260179
       4A    -11.259483     5A    -11.259470     6A    -11.259306
       7A    -11.259097     8A    -11.259023     9A    -11.259015
      10A    -11.258699    11A    -11.258691    12A    -11.258625
      13A    -11.258563    14A    -11.258559    15A    -11.258556
      16A    -11.258526    17A    -11.258523    18A    -11.258505
      19A    -11.258492    20A    -11.258486    21A    -11.258481
      22A    -11.258384    23A    -11.258373    24A    -11.258077
      25A    -11.257415    26A    -11.257354    27A    -11.257352
      28A    -11.257217    29A    -11.257217    30A    -11.257132
      31A    -11.256509    32A    -11.256439    33A    -11.256437
      34A    -11.256329    35A    -11.256327    36A    -11.256281
      37A    -11.252369    38A    -11.252369    39A    -11.252368
      40A    -11.252366    41A    -11.252365    42A    -11.252363
      43A    -11.251497    44A    -11.251495    45A    -11.251492
      46A    -11.251488    47A    -11.251484    48A    -11.251481
      49A    -11.250931    50A    -11.250930    51A    -11.250929
      52A    -11.250926    53A    -11.250926    54A    -11.250925
      55A     -1.244215    56A     -1.219961    57A     -1.219951
      58A     -1.189675    59A     -1.189665    60A     -1.181092
      61A     -1.157681    62A     -1.149108    63A     -1.135635
      64A     -1.135633    65A     -1.113314    66A     -1.113308
      67A     -1.082569    68A     -1.082566    69A     -1.078745
      70A     -1.066099    71A     -1.066095    72A     -1.039529
      73A     -1.024423    74A     -1.021915    75A     -1.021878
      76A     -1.017848    77A     -1.012909    78A     -0.987162
      79A     -0.987115    80A     -0.962002    81A     -0.961954
      82A     -0.894419    83A     -0.894393    84A     -0.888090
      85A     -0.886341    86A     -0.886277    87A     -0.881538
      88A     -0.881494    89A     -0.862025    90A     -0.837517
      91A     -0.818341    92A     -0.816762    93A     -0.812279
      94A     -0.812267    95A     -0.794809    96A     -0.794800
      97A     -0.746773    98A     -0.745002    99A     -0.733564
     100A     -0.733552   101A     -0.732306   102A     -0.732283
     103A     -0.716636   104A     -0.699098   105A     -0.699092
     106A     -0.693719   107A     -0.693707   108A     -0.661353
     109A     -0.653257   110A     -0.651306   111A     -0.650372
     112A     -0.650367   113A     -0.639484   114A     -0.639482
     115A     -0.629853   116A     -0.627666   117A     -0.627645
     118A     -0.606469   119A     -0.605905   120A     -0.601804
     121A     -0.599865   122A     -0.599839   123A     -0.593771
     124A     -0.591372   125A     -0.591369   126A     -0.585385
     127A     -0.576427   128A     -0.576388   129A     -0.567438
     130A     -0.567424   131A     -0.566099   132A     -0.566077
     133A     -0.558870   134A     -0.554971   135A     -0.554967
     136A     -0.538715   137A     -0.538712   138A     -0.538258
     139A     -0.538254   140A     -0.529846   141A     -0.528206
     142A     -0.522999   143A     -0.522994   144A     -0.500624
     145A     -0.495688   146A     -0.493360   147A     -0.487916
     148A     -0.485210   149A     -0.481891   150A     -0.481884
     151A     -0.470429   152A     -0.470384   153A     -0.451177
     154A     -0.451096   155A     -0.439158   156A     -0.439149
     157A     -0.404834   158A     -0.404810   159A     -0.403461
     160A     -0.375511   161A     -0.375510   162A     -0.349213
     163A     -0.337677   164A     -0.336653   165A     -0.336579
     166A     -0.311189   167A     -0.298183   168A     -0.284438
     169A     -0.284390   170A     -0.225014   171A     -0.224945

  @DF-RHF Final Energy: -2055.89213529366589

   => Energetics <=

    Nuclear Repulsion Energy =           6452.5568002797781446
    One-Electron Energy =              -15636.4430846875438874
    Two-Electron Energy =                7127.9941491141007646
    Total Energy =                      -2055.8921352936658877
 Dipole X            :          0.0000736            0.0000112            0.0000848
 Dipole Y            :          0.0000953           -0.0000531            0.0000421
 Dipole Z            :        433.0159002         -433.0209184           -0.0050182
 Magnitude           :                                                    0.0050191

    SAPT Results
  --------------------------------------------------------------------------------------------------------
    Electrostatics                  9.59634200 [mEh]       6.02179552 [kcal/mol]      25.19519245 [kJ/mol]
      Elst10,r                      9.59634200 [mEh]       6.02179552 [kcal/mol]      25.19519245 [kJ/mol]

    Exchange                        0.00454960 [mEh]       0.00285492 [kcal/mol]       0.01194498 [kJ/mol]
      Exch10                        0.00454960 [mEh]       0.00285492 [kcal/mol]       0.01194498 [kJ/mol]
      Exch10(S^2)                   0.00454966 [mEh]       0.00285495 [kcal/mol]       0.01194513 [kJ/mol]

    Induction                      -4.20860084 [mEh]      -2.64093690 [kcal/mol]     -11.04967999 [kJ/mol]
      Ind20,r                      -4.25149092 [mEh]      -2.66785083 [kcal/mol]     -11.16228787 [kJ/mol]
      Exch-Ind20,r                  0.00262717 [mEh]       0.00164857 [kcal/mol]       0.00689763 [kJ/mol]
      delta HF,r (2)                0.04026291 [mEh]       0.02526536 [kcal/mol]       0.10571025 [kJ/mol]

    Dispersion                     -1.04200410 [mEh]      -0.65386744 [kcal/mol]      -2.73578139 [kJ/mol]
      Disp20                       -1.04523360 [mEh]      -0.65589399 [kcal/mol]      -2.74426045 [kJ/mol]
      Exch-Disp20                   0.00322950 [mEh]       0.00202654 [kcal/mol]       0.00847906 [kJ/mol]
      Disp20 (SS)                  -0.52261680 [mEh]      -0.32794699 [kcal/mol]      -1.37213022 [kJ/mol]
      Disp20 (OS)                  -0.52261680 [mEh]      -0.32794699 [kcal/mol]      -1.37213022 [kJ/mol]
      Exch-Disp20 (SS)              0.00243419 [mEh]       0.00152748 [kcal/mol]       0.00639097 [kJ/mol]
      Exch-Disp20 (OS)              0.00079531 [mEh]       0.00049906 [kcal/mol]       0.00208809 [kJ/mol]

  Total HF                          5.39229076 [mEh]       3.38371354 [kcal/mol]      14.15745743 [kJ/mol]
  Total SAPT0                       4.35028666 [mEh]       2.72984609 [kcal/mol]      11.42167604 [kJ/mol]

  Special recipe for scaled SAPT0 (see Manual):
    Electrostatics sSAPT0           9.59634200 [mEh]       6.02179552 [kcal/mol]      25.19519245 [kJ/mol]
    Exchange sSAPT0                 0.00454960 [mEh]       0.00285492 [kcal/mol]       0.01194498 [kJ/mol]
    Induction sSAPT0               -4.20860084 [mEh]      -2.64093690 [kcal/mol]     -11.04967999 [kJ/mol]
    Dispersion sSAPT0              -1.04200410 [mEh]      -0.65386744 [kcal/mol]      -2.73578139 [kJ/mol]
  Total sSAPT0                      4.35028666 [mEh]       2.72984609 [kcal/mol]      11.42167604 [kJ/mol]
  --------------------------------------------------------------------------------------------------------

*** Psi4 exiting successfully. Buy a developer a beer!
