                               Psi4 1.9 release

  ==> Input File <==

--------------------------------------------------------------------------
memory 80 GB # how much memory is available ! Depends on the nodes/cores !

molecule dimer {
# monomer A
+1 1    # Charge and multiplicity
C  0.680067 -0.008042 -4.915929
C -0.680504 -0.006014 -4.915545
N -1.085635 -0.005016 -3.597221
C  0.000108 -0.001740 -2.815820
C -2.477365  0.044390 -3.129242
N  1.085222 -0.005016 -3.597221
H  1.385146 -0.015870 -5.733368
H -1.385302 -0.006204 -5.733214
H -0.000009  0.000007 -1.734731
C  2.478117 -0.021908 -3.132123
H  2.490592  0.005437 -2.041870
H  2.967028 -0.935354 -3.479299
H  3.001428  0.853575 -3.523595
H -2.857359  1.066461 -3.209201
H -3.082679 -0.625694 -3.742306
H -2.518128 -0.282594 -2.089294
--
# monomer B
0 1     # Charge and multiplicity
C   -3.66844126402057      7.80375217008252      0.00190004133558
C   -4.84759871934653      7.13124183134024     -0.00046653359696
C   -4.89495929917518      5.69633040353158     -0.00103944469517
C   -3.65374067877320      4.98073034095895      0.00662099703436
C   -2.40942512149445      7.11398103667468      0.00209438359570
C   -2.42547734410473      5.68112195090346     -0.00491050527438
C   -1.19474401643570      7.78614419430947      0.00356656413763
C   0.03795902893699      7.09942164575698      0.00139585983271
C   0.03033258741920      5.66948955970466     -0.00408752508301
C   -1.20098450790502      4.96927034791531      0.00488220885047
C   1.27795782581485      7.77285944319479      0.00277170839332
C   2.48535808472416      7.08769688523756      0.00049722048857
C   2.48612868491717      5.65477081024076     -0.00644052849921
C   1.25408291964399      4.95607811366431      0.00518741308898
C   3.75171459140595      7.76391215098033      0.00062407186893
C   4.92356605618520      7.07878077698995     -0.00143240883900
C   4.95560727132542      5.64344746336949     -0.00159282164606
C   3.70680153420475      4.94121020833308      0.00349873852374
H   -3.65852113775815      8.89082741913536      0.00358502958574
H   -1.18921332975660      8.87412108735996      0.00753844057883
H   1.28429423888630      8.86083343548850      0.00693053253426
H   3.75354208679975      8.85103527897216      0.00214659618464
H   5.86995870320703      7.61379483465560     -0.00235777588134
H   -5.78823170750226      7.67630221293400     -0.00202638095293
C   -6.09197395869619      4.99326001364347     -0.00291168518608
C   -6.12866148031747      3.58258016879823     -0.00171050815740
C   -3.66457974004527      3.56418217974434     -0.00463560277484
C   -4.89429820469869      2.86108077590057      0.00453338221034
C   -2.43733499489796      2.84761165708481      0.00719617576166
C   -1.20922785759670      3.54788693497833     -0.00648285103018
C   1.24714157216223      3.53468075142962     -0.00729145743546
C   0.01517603956900      2.83311183930540      0.00439272578912
C   2.46764517244071      2.82128997725533      0.00449278391269
C   3.70254947457969      3.52466015442405     -0.00899517692985
C   6.14498038638375      4.92757236613191     -0.00282626685777
C   6.16658835886151      3.51658447594213     -0.00065971342101
C   4.92460995845939      2.80840792535402      0.00587903281610
H   7.08990550964105      5.46688776622306     -0.00658814770723
H   -7.03104175110130      5.54268795285765     -0.00714490013730
C   -7.33969804112295      2.85841153457957     -0.00333767559888
C   -7.36488195805880      1.47032337158330     -0.00157213747140
C   -4.90350460894690      1.44442681216000     -0.00628840166334
C   -6.13225715261081      0.73993935705394      0.00600164231964
C   -3.67687480051673      0.72669714267312      0.00433931473643
C   -2.44565658606518      1.42964113326212     -0.00597039546461
C   -1.22360068130162      0.71532450163492      0.00545886906656
C   0.00763786931376      1.41738314923765      0.00392452278437
C   1.23121980774686      0.70211669058719     -0.01490206287210
C   2.46082110053113      1.40329203612573      0.00460244601878
C   3.68443025419614      0.68719842821222      0.00377365974158
C   4.91870890153864      1.39173456118907     -0.00862816189375
C   7.36980207796101      2.77948220318441     -0.00242013321349
C   7.38016266612146      1.39121750785509     -0.00087345036788
C   6.13979953912259      0.67411862320065      0.00545489144369
H   -8.27919079934664      3.40711804112415     -0.00763522772059
H   8.31511347147953      3.31811809662368     -0.00663070901292
C   -8.59175593758115      0.72483255304480     -0.00123170985383
C   -8.59902460370342     -0.63263980622873      0.00089141472904
C   -6.13981313911873     -0.67413663715361     -0.00609792660607
C   -7.38018411213749     -1.39126618958160      0.00131813493501
C   -4.91868448025621     -1.39175501803000      0.00624257154343
C   -3.68443829568458     -0.68723731573599     -0.00478966852105
C   -2.46081704024768     -1.40334517882457      0.00575341766833
C   -1.23116201232071     -0.70217386488055     -0.00636696112346
C   -0.00756962538737     -1.41741884941102      0.00108956317991
C   1.22364771588843     -0.71527537726392      0.01109518512883
C   2.44567064933149     -1.42964328900682     -0.00065482763106
C   3.67686670284649     -0.72670743155550     -0.00479541202602
C   6.13224884641929     -0.73997883984993     -0.00632338623858
C   4.90351914550401     -1.44445752054090      0.00751768830159
C   8.59901484869081      0.63260386666793     -0.00101133422380
C   8.59174548810050     -0.72485086719319      0.00072504603735
C   7.36486276438985     -1.47033266560598      0.00049486934466
H   -9.52830597181814      1.27684744919284     -0.00270163681798
H   9.54141097460619      1.17457248844457     -0.00206336648518
C   -7.36983790976868     -2.77954514593389      0.00312634335708
C   -4.92459910905015     -2.80843725734101     -0.00460528907921
C   -6.16662249566744     -3.51665219282533      0.00169655107992
C   -3.70251035970491     -3.52468154912026      0.00571878010666
C   -2.46764698511392     -2.82132596280400     -0.00632585824990
C   -0.01513347410770     -2.83314164539971     -0.00604426974092
C   -1.24712184122656     -3.53473217556300      0.00551968366725
C   1.20924506964357     -3.54791467864352      0.00805871345849
C   2.43733602215464     -2.84764173817541     -0.00608104485234
C   4.89430234377080     -2.86112296828604     -0.00526030478103
C   3.66461525504104     -3.56421984553201      0.00761911515957
C   6.12863901474565     -3.58258405771778      0.00096495711699
C   7.33967266469532     -2.85841330737039      0.00248018319869
H   -9.54144911125902     -1.17456346666430      0.00226083090216
H   9.52826186807155     -1.27691907390448      0.00197485379837
H   -8.31516504384864     -3.31814985321231      0.00729857188773
H   8.27915514249207     -3.40714078989363      0.00681973918158
C   -6.14499418870218     -4.92764727278338      0.00302254913999
C   -3.70678334799751     -4.94126171411716     -0.00679841894792
C   -4.95559005800169     -5.64349397349412      0.00116871569699
C   -2.48612132622665     -5.65478557440947      0.00614125209662
C   -1.25405833548005     -4.95612205000132     -0.00503435388927
C   1.20101257386816     -4.96928038819302     -0.00385322963129
C   -0.03033667441341     -5.66952030313900      0.00398997003238
C   3.65375010132847     -4.98074377541453     -0.00309522988330
C   2.42549269587528     -5.68117463552727      0.00628170066869
C   6.09196561781097     -4.99325796338655      0.00325918379042
C   4.89497644461045     -5.69634842095790      0.00202298796027
H   -7.08989238804069     -5.46699984223871      0.00742531082125
H   7.03105520920009     -5.54265853633254      0.00683896355417
C   -4.92354532219813     -7.07882109967734      0.00061394679214
C   -2.48534208823777     -7.08772807792913     -0.00189594564379
C   -3.75168589177895     -7.76394715763627     -0.00170126671874
C   -0.03794895698805     -7.09946487446944     -0.00168022049625
C   -1.27795610040136     -7.77290438466689     -0.00366491325785
C   2.40944432072629     -7.11402201200282     -0.00081701968533
C   1.19474993715296     -7.78618536556242     -0.00296931056689
C   4.84762105249800     -7.13126211057943      0.00168979497423
C   3.66847160587561     -7.80378799294376     -0.00065863938960
H   -5.86994035041618     -7.61383059804164      0.00215798365757
H   5.78824962538815     -7.67633218931421      0.00281691445618
H   -3.75352693944918     -8.85107156923607     -0.00353718114765
H   -1.28430440589466     -8.86087539249706     -0.00809229711623
H   1.18922157469537     -8.87416062058945     -0.00706194725726
H   3.65854661482387     -8.89086063405326     -0.00231318081200

    units angstrom      # Angstroms are the default
    no_reorient         # Geometry fixed, default
    symmetry c1         # C1 symmetry, default
}

set {
    scf_type DF         # Density fitting, faster than exact integrals
    freeze_core True    # Freeze core electrons
    basis jun-cc-pVDZ   # Jun-cc-pVDZ basis set, recommended for sSAPT0 in https://doi.org/10.1063/1.4867135
}

energy('ssapt0')        # Compute sSAPT0 energy, includes also SAPT0
--------------------------------------------------------------------------

  //              Dimer HF             //
    Molecular point group: c1
  Charge       = 1
  Multiplicity = 1
  Basis Set: JUN-CC-PVDZ
    Blend: JUN-CC-PVDZ
  Basis Set: (JUN-CC-PVDZ AUX)
    Blend: JUN-CC-PVDZ-JKFIT
  @DF-RHF Final Energy: -3953.63174852271095
    Total Energy =                      -3953.6317485227118596
 Dipole X            :         -0.0004603            0.0004804            0.0000201
 Dipole Y            :         -0.0501152            0.0561130            0.0059978
 Dipole Z            :         16.6276941          -20.5846770           -3.9569828
 Magnitude           :                                                    3.9569874
  //            Monomer A HF           //
    Molecular point group: c1
  Multiplicity = 1
  Basis Set: JUN-CC-PVDZ
    Blend: JUN-CC-PVDZ
  Basis Set: (JUN-CC-PVDZ AUX)
    Blend: JUN-CC-PVDZ-JKFIT
  @DF-RHF Final Energy:  -303.29888335482298
    Total Energy =                       -303.2988833548229763
  //            Monomer B HF           //
    Molecular point group: c1

    Geometry (in Angstrom), charge = 0, multiplicity = 1:

       Center              X                  Y                   Z               Mass
    ------------   -----------------  -----------------  -----------------  -----------------
      Gh(C)           0.680062820275    -0.008027535675    -4.633838358123    12.000000000000
      Gh(C)          -0.680508179725    -0.005999535675    -4.633454358123    12.000000000000
      Gh(N)          -1.085639179725    -0.005001535675    -3.315130358123    14.003074004430
      Gh(C)           0.000103820275    -0.001725535675    -2.533729358123    12.000000000000
      Gh(C)          -2.477369179725     0.044404464325    -2.847151358123    12.000000000000
      Gh(N)           1.085217820275    -0.005001535675    -3.315130358123    14.003074004430
      Gh(H)           1.385141820275    -0.015855535675    -5.451277358123     1.007825032230
      Gh(H)          -1.385306179725    -0.006189535675    -5.451123358123     1.007825032230
      Gh(H)          -0.000013179725     0.000021464325    -1.452640358123     1.007825032230
      Gh(C)           2.478112820275    -0.021893535675    -2.850032358123    12.000000000000
      Gh(H)           2.490587820275     0.005451464325    -1.759779358123     1.007825032230
      Gh(H)           2.967023820275    -0.935339535675    -3.197208358123     1.007825032230
      Gh(H)           3.001423820275     0.853589464325    -3.241504358123     1.007825032230
      Gh(H)          -2.857363179725     1.066475464325    -2.927110358123     1.007825032230
      Gh(H)          -3.082683179725    -0.625679535675    -3.460215358123     1.007825032230
      Gh(H)          -2.518132179725    -0.282579535675    -1.807203358123     1.007825032230
         C           -3.668445443746     7.803766634408     0.283990683213    12.000000000000
         C           -4.847602899072     7.131256295665     0.281624108280    12.000000000000
         C           -4.894963478901     5.696344867857     0.281051197182    12.000000000000
         C           -3.653744858499     4.980744805284     0.288711638912    12.000000000000
         C           -2.409429301220     7.113995501000     0.284185025473    12.000000000000
         C           -2.425481523830     5.681136415228     0.277180136603    12.000000000000
         C           -1.194748196161     7.786158658634     0.285657206015    12.000000000000
         C            0.037954849212     7.099436110082     0.283486501710    12.000000000000
         C            0.030328407694     5.669504024030     0.278003116794    12.000000000000
         C           -1.200988687630     4.969284812240     0.286972850728    12.000000000000
         C            1.277953646089     7.772873907520     0.284862350270    12.000000000000
         C            2.485353904999     7.087711349563     0.282587862366    12.000000000000
         C            2.486124505192     5.654785274566     0.275650113378    12.000000000000
         C            1.254078739919     4.956092577989     0.287278054966    12.000000000000
         C            3.751710411681     7.763926615305     0.282714713746    12.000000000000
         C            4.923561876460     7.078795241315     0.280658233038    12.000000000000
         C            4.955603091600     5.643461927694     0.280497820231    12.000000000000
         C            3.706797354479     4.941224672658     0.285589380401    12.000000000000
         H           -3.658525317484     8.890841883460     0.285675671463     1.007825032230
         H           -1.189217509482     8.874135551685     0.289629082456     1.007825032230
         H            1.284290059161     8.860847899813     0.289021174411     1.007825032230
         H            3.753537907074     8.851049743297     0.284237238062     1.007825032230
         H            5.869954523482     7.613809298981     0.279732865996     1.007825032230
         H           -5.788235887228     7.676316677259     0.280064260924     1.007825032230
         C           -6.091978138422     4.993274477968     0.279178956691    12.000000000000
         C           -6.128665660043     3.582594633123     0.280380133720    12.000000000000
         C           -3.664583919771     3.564196644069     0.277455039102    12.000000000000
         C           -4.894302384424     2.861095240226     0.286624024087    12.000000000000
         C           -2.437339174623     2.847626121410     0.289286817639    12.000000000000
         C           -1.209232037322     3.547901399303     0.275607790847    12.000000000000
         C            1.247137392437     3.534695215755     0.274799184442    12.000000000000
         C            0.015171859844     2.833126303630     0.286483367666    12.000000000000
         C            2.467640992715     2.821304441580     0.286583425790    12.000000000000
         C            3.702545294854     3.524674618749     0.273095464947    12.000000000000
         C            6.144976206658     4.927586830457     0.279264375019    12.000000000000
         C            6.166584179136     3.516598940267     0.281430928456    12.000000000000
         C            4.924605778734     2.808422389679     0.287969674693    12.000000000000
         H            7.089901329916     5.466902230548     0.275502494170     1.007825032230
         H           -7.031045930827     5.542702417183     0.274945741740     1.007825032230
         C           -7.339702220848     2.858425998905     0.278752966278    12.000000000000
         C           -7.364886137784     1.470337835908     0.280518504406    12.000000000000
         C           -4.903508788672     1.444441276485     0.275802240214    12.000000000000
         C           -6.132261332336     0.739953821379     0.288092284197    12.000000000000
         C           -3.676878980242     0.726711606998     0.286429956614    12.000000000000
         C           -2.445660765791     1.429655597587     0.276120246413    12.000000000000
         C           -1.223604861027     0.715338965960     0.287549510944    12.000000000000
         C            0.007633689588     1.417397613563     0.286015164662    12.000000000000
         C            1.231215628021     0.702131154912     0.267188579005    12.000000000000
         C            2.460816920806     1.403306500451     0.286693087896    12.000000000000
         C            3.684426074471     0.687212892537     0.285864301619    12.000000000000
         C            4.918704721813     1.391749025514     0.273462479983    12.000000000000
         C            7.369797898236     2.779496667509     0.279670508664    12.000000000000
         C            7.380158486396     1.391231972180     0.281217191509    12.000000000000
         C            6.139795359397     0.674133087526     0.287545533321    12.000000000000
         H           -8.279194979072     3.407132505449     0.274455414157     1.007825032230
         H            8.315109291754     3.318132560949     0.275459932864     1.007825032230
         C           -8.591760117307     0.724847017370     0.280858932023    12.000000000000
         C           -8.599028783429    -0.632625341904     0.282982056606    12.000000000000
         C           -6.139817318844    -0.674122172829     0.275992715271    12.000000000000
         C           -7.380188291863    -1.391251725257     0.283408776812    12.000000000000
         C           -4.918688659982    -1.391740553705     0.288333213421    12.000000000000
         C           -3.684442475410    -0.687222851411     0.277300973356    12.000000000000
         C           -2.460821219973    -1.403330714500     0.287844059545    12.000000000000
         C           -1.231166192046    -0.702159400556     0.275723680754    12.000000000000
         C           -0.007573805113    -1.417404385086     0.283180205057    12.000000000000
         C            1.223643536163    -0.715260912939     0.293185827006    12.000000000000
         C            2.445666469606    -1.429628824682     0.281435814246    12.000000000000
         C            3.676862523121    -0.726692967231     0.277295229851    12.000000000000
         C            6.132244666694    -0.739964375525     0.275767255639    12.000000000000
         C            4.903514965779    -1.444443056216     0.289608330179    12.000000000000
         C            8.599010668965     0.632618330993     0.281079307653    12.000000000000
         C            8.591741308375    -0.724836402868     0.282815687914    12.000000000000
         C            7.364858584664    -1.470318201281     0.282585511222    12.000000000000
         H           -9.528310151544     1.276861913518     0.279389005059     1.007825032230
         H            9.541406794881     1.174586952770     0.280027275392     1.007825032230
         C           -7.369842089494    -2.779530681609     0.285216985234    12.000000000000
         C           -4.924603288776    -2.808422793016     0.277485352798    12.000000000000
         C           -6.166626675393    -3.516637728500     0.283787192957    12.000000000000
         C           -3.702514539430    -3.524667084795     0.287809421984    12.000000000000
         C           -2.467651164839    -2.821311498479     0.275764783627    12.000000000000
         C           -0.015137653833    -2.833127181075     0.276046372136    12.000000000000
         C           -1.247126020952    -3.534717711238     0.287610325544    12.000000000000
         C            1.209240889918    -3.547900214319     0.290149355336    12.000000000000
         C            2.437331842429    -2.847627273850     0.276009597025    12.000000000000
         C            4.894298164045    -2.861108503961     0.276830337096    12.000000000000
         C            3.664611075316    -3.564205381207     0.289709757037    12.000000000000
         C            6.128634835020    -3.582569593393     0.283055598994    12.000000000000
         C            7.339668484970    -2.858398843045     0.284570825076    12.000000000000
         H           -9.541453290984    -1.174549002339     0.284351472779     1.007825032230
         H            9.528257688346    -1.276904609579     0.284065495676     1.007825032230
         H           -8.315169223574    -3.318135388887     0.289389213765     1.007825032230
         H            8.279150962767    -3.407126325569     0.288910381059     1.007825032230
         C           -6.144998368428    -4.927632808458     0.285113191017    12.000000000000
         C           -3.706787527723    -4.941247249792     0.275292222929    12.000000000000
         C           -4.955594237727    -5.643479509169     0.283259357574    12.000000000000
         C           -2.486125505952    -5.654771110084     0.288231893974    12.000000000000
         C           -1.254062515205    -4.956107585676     0.277056287988    12.000000000000
         C            1.201008394143    -4.969265923868     0.278237412246    12.000000000000
         C           -0.030340854139    -5.669505838814     0.286080611910    12.000000000000
         C            3.653745921603    -4.980729311090     0.278995411994    12.000000000000
         C            2.425488516150    -5.681160171202     0.288372342546    12.000000000000
         C            6.091961438086    -4.993243499062     0.285349825668    12.000000000000
         C            4.894972264885    -5.696333956633     0.284113629837    12.000000000000
         H           -7.089896567766    -5.466985377914     0.289515952698     1.007825032230
         H            7.031051029475    -5.542644072008     0.288929605431     1.007825032230
         C           -4.923549501924    -7.078806635352     0.282704588669    12.000000000000
         C           -2.485346267963    -7.087713613604     0.280194696233    12.000000000000
         C           -3.751690071504    -7.763932693311     0.280389375158    12.000000000000
         C           -0.037953136713    -7.099450410144     0.280410421381    12.000000000000
         C           -1.277960280127    -7.772889920342     0.278425728619    12.000000000000
         C            2.409440141001    -7.114007547678     0.281273622192    12.000000000000
         C            1.194745757428    -7.786170901237     0.279121331310    12.000000000000
         C            4.847616872773    -7.131247646254     0.283780436851    12.000000000000
         C            3.668467426150    -7.803773528619     0.281432002488    12.000000000000
         H           -5.869944530142    -7.613816133717     0.284248625535     1.007825032230
         H            5.788245445663    -7.676317724989     0.284907556333     1.007825032230
         H           -3.753531119175    -8.851057104911     0.278553460729     1.007825032230
         H           -1.284308585620    -8.860860928172     0.273998344761     1.007825032230
         H            1.189217394970    -8.874146156264     0.275028694620     1.007825032230
         H            3.658542435098    -8.890846169728     0.279777461065     1.007825032230

  Charge       = 0
  Multiplicity = 1
  Basis Set: JUN-CC-PVDZ
    Blend: JUN-CC-PVDZ
  Basis Set: (JUN-CC-PVDZ AUX)
    Blend: JUN-CC-PVDZ-JKFIT

    Orbital Energies [Eh]
    ---------------------

    Doubly Occupied:

       1A    -11.264041     2A    -11.263734     3A    -11.263638
       4A    -11.263308     5A    -11.263301     6A    -11.263210
       7A    -11.263146     8A    -11.263092     9A    -11.263036
      10A    -11.262853    11A    -11.262738    12A    -11.262709
      13A    -11.262240    14A    -11.262234    15A    -11.262221
      16A    -11.262149    17A    -11.262072    18A    -11.262055
      19A    -11.262019    20A    -11.261970    21A    -11.261961
      22A    -11.261869    23A    -11.261841    24A    -11.261698
      25A    -11.261696    26A    -11.261666    27A    -11.261658
      28A    -11.261620    29A    -11.261614    30A    -11.261522
      31A    -11.261505    32A    -11.261500    33A    -11.261496
      34A    -11.261478    35A    -11.261458    36A    -11.261442
      37A    -11.261278    38A    -11.261268    39A    -11.261260
      40A    -11.261255    41A    -11.261239    42A    -11.261232
      43A    -11.261226    44A    -11.261212    45A    -11.261203
      46A    -11.261185    47A    -11.261173    48A    -11.261166
      49A    -11.261032    50A    -11.261024    51A    -11.260961
      52A    -11.260929    53A    -11.260877    54A    -11.260839
      55A    -11.259849    56A    -11.259831    57A    -11.259827
      58A    -11.259803    59A    -11.259794    60A    -11.259778
      61A    -11.259219    62A    -11.259194    63A    -11.259181
      64A    -11.259140    65A    -11.259123    66A    -11.259099
      67A    -11.258850    68A    -11.258829    69A    -11.258826
      70A    -11.258803    71A    -11.258791    72A    -11.258780
      73A    -11.254488    74A    -11.254479    75A    -11.254478
      76A    -11.254468    77A    -11.254455    78A    -11.254447
      79A    -11.253607    80A    -11.253592    81A    -11.253586
      82A    -11.253574    83A    -11.253571    84A    -11.253569
      85A    -11.253522    86A    -11.253508    87A    -11.253497
      88A    -11.253486    89A    -11.253482    90A    -11.253479
      91A    -11.253015    92A    -11.253006    93A    -11.253005
      94A    -11.252996    95A    -11.252983    96A    -11.252975
      97A     -1.253804    98A     -1.238894    99A     -1.238846
     100A     -1.220363   101A     -1.220339   102A     -1.215315
     103A     -1.200942   104A     -1.195505   105A     -1.188028
     106A     -1.187999   107A     -1.173671   108A     -1.173670
     109A     -1.155505   110A     -1.155500   111A     -1.152590
     112A     -1.144634   113A     -1.144633   114A     -1.128450
     115A     -1.114591   116A     -1.113077   117A     -1.112371
     118A     -1.112331   119A     -1.111534   120A     -1.088316
     121A     -1.088293   122A     -1.076877   123A     -1.076876
     124A     -1.067507   125A     -1.067459   126A     -1.064847
     127A     -1.046695   128A     -1.046682   129A     -1.040368
     130A     -1.038656   131A     -1.038645   132A     -1.025116
     133A     -1.021251   134A     -1.021180   135A     -1.007083
     136A     -1.006688   137A     -1.003695   138A     -1.000374
     139A     -1.000307   140A     -0.990996   141A     -0.970877
     142A     -0.970821   143A     -0.955793   144A     -0.955730
     145A     -0.905472   146A     -0.905438   147A     -0.905426
     148A     -0.905414   149A     -0.904181   150A     -0.892215
     151A     -0.892162   152A     -0.890229   153A     -0.890181
     154A     -0.889329   155A     -0.872129   156A     -0.868987
     157A     -0.851438   158A     -0.847730   159A     -0.847721
     160A     -0.845467   161A     -0.842888   162A     -0.834448
     163A     -0.834439   164A     -0.828038   165A     -0.828024
     166A     -0.784444   167A     -0.784436   168A     -0.783540
     169A     -0.783531   170A     -0.782165   171A     -0.782148
     172A     -0.781905   173A     -0.766878   174A     -0.760656
     175A     -0.750450   176A     -0.733396   177A     -0.726977
     178A     -0.726920   179A     -0.724962   180A     -0.724439
     181A     -0.724397   182A     -0.718355   183A     -0.713642
     184A     -0.713634   185A     -0.699477   186A     -0.699447
     187A     -0.685991   188A     -0.685860   189A     -0.685842
     190A     -0.682065   191A     -0.682056   192A     -0.678666
     193A     -0.653522   194A     -0.650764   195A     -0.650726
     196A     -0.649677   197A     -0.649666   198A     -0.649466
     199A     -0.640809   200A     -0.640750   201A     -0.639983
     202A     -0.639064   203A     -0.635903   204A     -0.635867
     205A     -0.629023   206A     -0.617698   207A     -0.615212
     208A     -0.615181   209A     -0.608693   210A     -0.608686
     211A     -0.599156   212A     -0.599061   213A     -0.598632
     214A     -0.598468   215A     -0.598444   216A     -0.597906
     217A     -0.594968   218A     -0.594954   219A     -0.594611
     220A     -0.594084   221A     -0.591836   222A     -0.591830
     223A     -0.587245   224A     -0.577723   225A     -0.577696
     226A     -0.575671   227A     -0.575630   228A     -0.573272
     229A     -0.569533   230A     -0.568014   231A     -0.567987
     232A     -0.566634   233A     -0.566628   234A     -0.560830
     235A     -0.558608   236A     -0.558548   237A     -0.558342
     238A     -0.554252   239A     -0.550532   240A     -0.547393
     241A     -0.544210   242A     -0.534971   243A     -0.534927
     244A     -0.533431   245A     -0.533416   246A     -0.527980
     247A     -0.527956   248A     -0.527645   249A     -0.517032
     250A     -0.517014   251A     -0.515292   252A     -0.515286
     253A     -0.509539   254A     -0.509528   255A     -0.497915
     256A     -0.496349   257A     -0.496289   258A     -0.493748
     259A     -0.493700   260A     -0.489382   261A     -0.481346
     262A     -0.477347   263A     -0.477347   264A     -0.473882
     265A     -0.469303   266A     -0.466400   267A     -0.466392
     268A     -0.458750   269A     -0.446523   270A     -0.446476
     271A     -0.440962   272A     -0.440711   273A     -0.440656
     274A     -0.434617   275A     -0.433841   276A     -0.407301
     277A     -0.407278   278A     -0.386319   279A     -0.386264
     280A     -0.385666   281A     -0.385656   282A     -0.383668
     283A     -0.354242   284A     -0.354215   285A     -0.350577
     286A     -0.338002   287A     -0.335466   288A     -0.335456
     289A     -0.332647   290A     -0.332628   291A     -0.306957
     292A     -0.301852   293A     -0.301777   294A     -0.300780
     295A     -0.286080   296A     -0.256419   297A     -0.253373
     298A     -0.253335   299A     -0.204166   300A     -0.204089

  @DF-RHF Final Energy: -3650.34205788812778

   => Energetics <=

    Nuclear Repulsion Energy =          15611.4211649754306563
    One-Electron Energy =              -36072.2041624257544754
    Two-Electron Energy =               16810.4409395621987642
    Total Energy =                      -3650.3420578881268739
 Dipole X            :         -0.0007496            0.0002112           -0.0005385
 Dipole Y            :          0.0026971           -0.0013774            0.0013197
 Dipole Z            :       -319.8451824          319.8478253            0.0026429
 Magnitude           :                                                    0.0030028

    SAPT Results
  --------------------------------------------------------------------------------------------------------
    Electrostatics                -30.72764438 [mEh]     -19.28188795 [kcal/mol]     -80.67541920 [kJ/mol]
      Elst10,r                    -30.72764438 [mEh]     -19.28188795 [kcal/mol]     -80.67541920 [kJ/mol]

    Exchange                       73.94993022 [mEh]      46.40428180 [kcal/mol]     194.15551504 [kJ/mol]
      Exch10                       73.94993022 [mEh]      46.40428180 [kcal/mol]     194.15551504 [kJ/mol]
      Exch10(S^2)                  72.54146609 [mEh]      45.52045721 [kcal/mol]     190.45759297 [kJ/mol]

    Induction                     -34.02956560 [mEh]     -21.35387480 [kcal/mol]     -89.34461217 [kJ/mol]
      Ind20,r                     -45.26518361 [mEh]     -28.40433155 [kcal/mol]    -118.84372320 [kJ/mol]
      Exch-Ind20,r                 20.66951645 [mEh]      12.97031739 [kcal/mol]      54.26780796 [kJ/mol]
      delta HF,r (2)               -9.43389844 [mEh]      -5.91986064 [kcal/mol]     -24.76869693 [kJ/mol]

    Dispersion                    -47.63341071 [mEh]     -29.89041649 [kcal/mol]    -125.06150260 [kJ/mol]
      Disp20                      -53.21527772 [mEh]     -33.39309092 [kcal/mol]    -139.71669241 [kJ/mol]
      Exch-Disp20                   5.58186701 [mEh]       3.50267443 [kcal/mol]      14.65518981 [kJ/mol]
      Disp20 (SS)                 -26.60763886 [mEh]     -16.69654546 [kcal/mol]     -69.85834621 [kJ/mol]
      Disp20 (OS)                 -26.60763886 [mEh]     -16.69654546 [kcal/mol]     -69.85834621 [kJ/mol]
      Exch-Disp20 (SS)              3.30520703 [mEh]       2.07404872 [kcal/mol]       8.67781986 [kJ/mol]
      Exch-Disp20 (OS)              2.27665998 [mEh]       1.42862571 [kcal/mol]       5.97736996 [kJ/mol]

  Total HF                          9.19272024 [mEh]       5.76851904 [kcal/mol]      24.13548366 [kJ/mol]
  Total SAPT0                     -38.44069047 [mEh]     -24.12189745 [kcal/mol]    -100.92601893 [kJ/mol]

  Special recipe for scaled SAPT0 (see Manual):
    Electrostatics sSAPT0         -30.72764438 [mEh]     -19.28188795 [kcal/mol]     -80.67541920 [kJ/mol]
    Exchange sSAPT0                73.94993022 [mEh]      46.40428180 [kcal/mol]     194.15551504 [kJ/mol]
    Induction sSAPT0              -32.80208113 [mEh]     -20.58361667 [kcal/mol]     -86.12185215 [kJ/mol]
    Dispersion sSAPT0             -47.30192473 [mEh]     -29.68240589 [kcal/mol]    -124.19118626 [kJ/mol]
  Total sSAPT0                    -36.88172002 [mEh]     -23.14362872 [kcal/mol]     -96.83294257 [kJ/mol]
  --------------------------------------------------------------------------------------------------------

*** Psi4 exiting successfully. Buy a developer a beer!
