                               Psi4 1.9 release

  ==> Input File <==

--------------------------------------------------------------------------
memory 80 GB # how much memory is available ! Depends on the nodes/cores !

molecule dimer {
# monomer A
+1 1    # Charge and multiplicity
C  0.680067 -1.215929 2.308042
C -0.680504 -1.215545 2.306014
N -1.085635  0.102779 2.305016
C  0.000108  0.884180 2.301740
C -2.477365  0.570758 2.255610
N  1.085222  0.102779 2.305016
H  1.385146 -2.033368 2.315870
H -1.385302 -2.033214 2.306204
H -0.000009  1.965269 2.299993
C  2.478117  0.567877 2.321908
H  2.490592  1.658130 2.294563
H  2.967028  0.220701 3.235354
H  3.001428  0.176405 1.446425
H -2.857359  0.490799 1.233539
H -3.082679 -0.042306 2.925694
H -2.518128  1.610706 2.582594
--
# monomer B
0 1     # Charge and multiplicity
C   -3.66844126402057      7.80375217008252      0.00190004133558
C   -4.84759871934653      7.13124183134024     -0.00046653359696
C   -4.89495929917518      5.69633040353158     -0.00103944469517
C   -3.65374067877320      4.98073034095895      0.00662099703436
C   -2.40942512149445      7.11398103667468      0.00209438359570
C   -2.42547734410473      5.68112195090346     -0.00491050527438
C   -1.19474401643570      7.78614419430947      0.00356656413763
C   0.03795902893699      7.09942164575698      0.00139585983271
C   0.03033258741920      5.66948955970466     -0.00408752508301
C   -1.20098450790502      4.96927034791531      0.00488220885047
C   1.27795782581485      7.77285944319479      0.00277170839332
C   2.48535808472416      7.08769688523756      0.00049722048857
C   2.48612868491717      5.65477081024076     -0.00644052849921
C   1.25408291964399      4.95607811366431      0.00518741308898
C   3.75171459140595      7.76391215098033      0.00062407186893
C   4.92356605618520      7.07878077698995     -0.00143240883900
C   4.95560727132542      5.64344746336949     -0.00159282164606
C   3.70680153420475      4.94121020833308      0.00349873852374
H   -3.65852113775815      8.89082741913536      0.00358502958574
H   -1.18921332975660      8.87412108735996      0.00753844057883
H   1.28429423888630      8.86083343548850      0.00693053253426
H   3.75354208679975      8.85103527897216      0.00214659618464
H   5.86995870320703      7.61379483465560     -0.00235777588134
H   -5.78823170750226      7.67630221293400     -0.00202638095293
C   -6.09197395869619      4.99326001364347     -0.00291168518608
C   -6.12866148031747      3.58258016879823     -0.00171050815740
C   -3.66457974004527      3.56418217974434     -0.00463560277484
C   -4.89429820469869      2.86108077590057      0.00453338221034
C   -2.43733499489796      2.84761165708481      0.00719617576166
C   -1.20922785759670      3.54788693497833     -0.00648285103018
C   1.24714157216223      3.53468075142962     -0.00729145743546
C   0.01517603956900      2.83311183930540      0.00439272578912
C   2.46764517244071      2.82128997725533      0.00449278391269
C   3.70254947457969      3.52466015442405     -0.00899517692985
C   6.14498038638375      4.92757236613191     -0.00282626685777
C   6.16658835886151      3.51658447594213     -0.00065971342101
C   4.92460995845939      2.80840792535402      0.00587903281610
H   7.08990550964105      5.46688776622306     -0.00658814770723
H   -7.03104175110130      5.54268795285765     -0.00714490013730
C   -7.33969804112295      2.85841153457957     -0.00333767559888
C   -7.36488195805880      1.47032337158330     -0.00157213747140
C   -4.90350460894690      1.44442681216000     -0.00628840166334
C   -6.13225715261081      0.73993935705394      0.00600164231964
C   -3.67687480051673      0.72669714267312      0.00433931473643
C   -2.44565658606518      1.42964113326212     -0.00597039546461
C   -1.22360068130162      0.71532450163492      0.00545886906656
C   0.00763786931376      1.41738314923765      0.00392452278437
C   1.23121980774686      0.70211669058719     -0.01490206287210
C   2.46082110053113      1.40329203612573      0.00460244601878
C   3.68443025419614      0.68719842821222      0.00377365974158
C   4.91870890153864      1.39173456118907     -0.00862816189375
C   7.36980207796101      2.77948220318441     -0.00242013321349
C   7.38016266612146      1.39121750785509     -0.00087345036788
C   6.13979953912259      0.67411862320065      0.00545489144369
H   -8.27919079934664      3.40711804112415     -0.00763522772059
H   8.31511347147953      3.31811809662368     -0.00663070901292
C   -8.59175593758115      0.72483255304480     -0.00123170985383
C   -8.59902460370342     -0.63263980622873      0.00089141472904
C   -6.13981313911873     -0.67413663715361     -0.00609792660607
C   -7.38018411213749     -1.39126618958160      0.00131813493501
C   -4.91868448025621     -1.39175501803000      0.00624257154343
C   -3.68443829568458     -0.68723731573599     -0.00478966852105
C   -2.46081704024768     -1.40334517882457      0.00575341766833
C   -1.23116201232071     -0.70217386488055     -0.00636696112346
C   -0.00756962538737     -1.41741884941102      0.00108956317991
C   1.22364771588843     -0.71527537726392      0.01109518512883
C   2.44567064933149     -1.42964328900682     -0.00065482763106
C   3.67686670284649     -0.72670743155550     -0.00479541202602
C   6.13224884641929     -0.73997883984993     -0.00632338623858
C   4.90351914550401     -1.44445752054090      0.00751768830159
C   8.59901484869081      0.63260386666793     -0.00101133422380
C   8.59174548810050     -0.72485086719319      0.00072504603735
C   7.36486276438985     -1.47033266560598      0.00049486934466
H   -9.52830597181814      1.27684744919284     -0.00270163681798
H   9.54141097460619      1.17457248844457     -0.00206336648518
C   -7.36983790976868     -2.77954514593389      0.00312634335708
C   -4.92459910905015     -2.80843725734101     -0.00460528907921
C   -6.16662249566744     -3.51665219282533      0.00169655107992
C   -3.70251035970491     -3.52468154912026      0.00571878010666
C   -2.46764698511392     -2.82132596280400     -0.00632585824990
C   -0.01513347410770     -2.83314164539971     -0.00604426974092
C   -1.24712184122656     -3.53473217556300      0.00551968366725
C   1.20924506964357     -3.54791467864352      0.00805871345849
C   2.43733602215464     -2.84764173817541     -0.00608104485234
C   4.89430234377080     -2.86112296828604     -0.00526030478103
C   3.66461525504104     -3.56421984553201      0.00761911515957
C   6.12863901474565     -3.58258405771778      0.00096495711699
C   7.33967266469532     -2.85841330737039      0.00248018319869
H   -9.54144911125902     -1.17456346666430      0.00226083090216
H   9.52826186807155     -1.27691907390448      0.00197485379837
H   -8.31516504384864     -3.31814985321231      0.00729857188773
H   8.27915514249207     -3.40714078989363      0.00681973918158
C   -6.14499418870218     -4.92764727278338      0.00302254913999
C   -3.70678334799751     -4.94126171411716     -0.00679841894792
C   -4.95559005800169     -5.64349397349412      0.00116871569699
C   -2.48612132622665     -5.65478557440947      0.00614125209662
C   -1.25405833548005     -4.95612205000132     -0.00503435388927
C   1.20101257386816     -4.96928038819302     -0.00385322963129
C   -0.03033667441341     -5.66952030313900      0.00398997003238
C   3.65375010132847     -4.98074377541453     -0.00309522988330
C   2.42549269587528     -5.68117463552727      0.00628170066869
C   6.09196561781097     -4.99325796338655      0.00325918379042
C   4.89497644461045     -5.69634842095790      0.00202298796027
H   -7.08989238804069     -5.46699984223871      0.00742531082125
H   7.03105520920009     -5.54265853633254      0.00683896355417
C   -4.92354532219813     -7.07882109967734      0.00061394679214
C   -2.48534208823777     -7.08772807792913     -0.00189594564379
C   -3.75168589177895     -7.76394715763627     -0.00170126671874
C   -0.03794895698805     -7.09946487446944     -0.00168022049625
C   -1.27795610040136     -7.77290438466689     -0.00366491325785
C   2.40944432072629     -7.11402201200282     -0.00081701968533
C   1.19474993715296     -7.78618536556242     -0.00296931056689
C   4.84762105249800     -7.13126211057943      0.00168979497423
C   3.66847160587561     -7.80378799294376     -0.00065863938960
H   -5.86994035041618     -7.61383059804164      0.00215798365757
H   5.78824962538815     -7.67633218931421      0.00281691445618
H   -3.75352693944918     -8.85107156923607     -0.00353718114765
H   -1.28430440589466     -8.86087539249706     -0.00809229711623
H   1.18922157469537     -8.87416062058945     -0.00706194725726
H   3.65854661482387     -8.89086063405326     -0.00231318081200

    units angstrom      # Angstroms are the default
    no_reorient         # Geometry fixed, default
    symmetry c1         # C1 symmetry, default
}

set {
    scf_type DF         # Density fitting, faster than exact integrals
    freeze_core True    # Freeze core electrons
    basis jun-cc-pVDZ   # Jun-cc-pVDZ basis set, recommended for sSAPT0 in https://doi.org/10.1063/1.4867135
}

energy('ssapt0')        # Compute sSAPT0 energy, includes also SAPT0
--------------------------------------------------------------------------

  //              Dimer HF             //
    Molecular point group: c1
  Charge       = 1
  Multiplicity = 1
  Basis Set: JUN-CC-PVDZ
    Blend: JUN-CC-PVDZ
  Basis Set: (JUN-CC-PVDZ AUX)
    Blend: JUN-CC-PVDZ-JKFIT
  @DF-RHF Final Energy: -3953.29787974180363
    Total Energy =                      -3953.2978797418036265
 Dipole X            :         -0.0289799            0.0004804           -0.0284995
 Dipole Y            :         -1.7135537            1.8866171            0.1730634
 Dipole Z            :        -11.9178230           13.9118495            1.9940265
 Magnitude           :                                                    2.0017254
  //            Monomer A HF           //
    Molecular point group: c1
  Multiplicity = 1
  Basis Set: JUN-CC-PVDZ
    Blend: JUN-CC-PVDZ
  Basis Set: (JUN-CC-PVDZ AUX)
    Blend: JUN-CC-PVDZ-JKFIT
  @DF-RHF Final Energy:  -303.30157455409756
    Total Energy =                       -303.3015745540975558
  //            Monomer B HF           //
    Molecular point group: c1

    Geometry (in Angstrom), charge = 0, multiplicity = 1:

       Center              X                  Y                   Z               Mass
    ------------   -----------------  -----------------  -----------------  -----------------
      Gh(C)           0.680062820275    -1.215917226251     2.132681655101    12.000000000000
      Gh(C)          -0.680508179725    -1.215533226251     2.130653655101    12.000000000000
      Gh(N)          -1.085639179725     0.102790773749     2.129655655101    14.003074004430
      Gh(C)           0.000103820275     0.884191773749     2.126379655101    12.000000000000
      Gh(C)          -2.477369179725     0.570769773749     2.080249655101    12.000000000000
      Gh(N)           1.085217820275     0.102790773749     2.129655655101    14.003074004430
      Gh(H)           1.385141820275    -2.033356226251     2.140509655101     1.007825032230
      Gh(H)          -1.385306179725    -2.033202226251     2.130843655101     1.007825032230
      Gh(H)          -0.000013179725     1.965280773749     2.124632655101     1.007825032230
      Gh(C)           2.478112820275     0.567888773749     2.146547655101    12.000000000000
      Gh(H)           2.490587820275     1.658141773750     2.119202655101     1.007825032230
      Gh(H)           2.967023820275     0.220712773749     3.059993655101     1.007825032230
      Gh(H)           3.001423820275     0.176416773749     1.271064655101     1.007825032230
      Gh(H)          -2.857363179725     0.490810773749     1.058178655101     1.007825032230
      Gh(H)          -3.082683179725    -0.042294226251     2.750333655101     1.007825032230
      Gh(H)          -2.518132179725     1.610717773749     2.407233655101     1.007825032230
         C           -3.668445443746     7.803763943832    -0.173460303563    12.000000000000
         C           -4.847602899072     7.131253605090    -0.175826878496    12.000000000000
         C           -4.894963478901     5.696342177281    -0.176399789594    12.000000000000
         C           -3.653744858499     4.980742114708    -0.168739347864    12.000000000000
         C           -2.409429301220     7.113992810424    -0.173265961303    12.000000000000
         C           -2.425481523830     5.681133724653    -0.180270850173    12.000000000000
         C           -1.194748196161     7.786155968059    -0.171793780761    12.000000000000
         C            0.037954849212     7.099433419506    -0.173964485066    12.000000000000
         C            0.030328407694     5.669501333454    -0.179447869982    12.000000000000
         C           -1.200988687630     4.969282121665    -0.170478136048    12.000000000000
         C            1.277953646089     7.772871216944    -0.172588636505    12.000000000000
         C            2.485353904999     7.087708658987    -0.174863124410    12.000000000000
         C            2.486124505192     5.654782583990    -0.181800873398    12.000000000000
         C            1.254078739919     4.956089887414    -0.170172931810    12.000000000000
         C            3.751710411681     7.763923924730    -0.174736273030    12.000000000000
         C            4.923561876460     7.078792550739    -0.176792753738    12.000000000000
         C            4.955603091600     5.643459237119    -0.176953166545    12.000000000000
         C            3.706797354479     4.941221982083    -0.171861606375    12.000000000000
         H           -3.658525317484     8.890839192885    -0.171775315313     1.007825032230
         H           -1.189217509482     8.874132861109    -0.167821904320     1.007825032230
         H            1.284290059161     8.860845209238    -0.168429812364     1.007825032230
         H            3.753537907074     8.851047052722    -0.173213748714     1.007825032230
         H            5.869954523482     7.613806608405    -0.177718120780     1.007825032230
         H           -5.788235887228     7.676313986684    -0.177386725852     1.007825032230
         C           -6.091978138422     4.993271787393    -0.178272030085    12.000000000000
         C           -6.128665660043     3.582591942548    -0.177070853056    12.000000000000
         C           -3.664583919771     3.564193953494    -0.179995947674    12.000000000000
         C           -4.894302384424     2.861092549650    -0.170826962688    12.000000000000
         C           -2.437339174623     2.847623430834    -0.168164169137    12.000000000000
         C           -1.209232037322     3.547898708728    -0.181843195929    12.000000000000
         C            1.247137392437     3.534692525179    -0.182651802334    12.000000000000
         C            0.015171859844     2.833123613055    -0.170967619110    12.000000000000
         C            2.467640992715     2.821301751005    -0.170867560986    12.000000000000
         C            3.702545294854     3.524671928174    -0.184355521829    12.000000000000
         C            6.144976206658     4.927584139881    -0.178186611757    12.000000000000
         C            6.166584179136     3.516596249692    -0.176020058320    12.000000000000
         C            4.924605778734     2.808419699104    -0.169481312083    12.000000000000
         H            7.089901329916     5.466899539973    -0.181948492606     1.007825032230
         H           -7.031045930827     5.542699726607    -0.182505245036     1.007825032230
         C           -7.339702220848     2.858423308329    -0.178698020498    12.000000000000
         C           -7.364886137784     1.470335145333    -0.176932482370    12.000000000000
         C           -4.903508788672     1.444438585909    -0.181648746562    12.000000000000
         C           -6.132261332336     0.739951130803    -0.169358702579    12.000000000000
         C           -3.676878980242     0.726708916423    -0.171021030162    12.000000000000
         C           -2.445660765791     1.429652907012    -0.181330740363    12.000000000000
         C           -1.223604861027     0.715336275384    -0.169901475832    12.000000000000
         C            0.007633689588     1.417394922987    -0.171435822114    12.000000000000
         C            1.231215628021     0.702128464337    -0.190262407771    12.000000000000
         C            2.460816920806     1.403303809875    -0.170757898880    12.000000000000
         C            3.684426074471     0.687210201962    -0.171586685157    12.000000000000
         C            4.918704721813     1.391746334939    -0.183988506792    12.000000000000
         C            7.369797898236     2.779493976934    -0.177780478112    12.000000000000
         C            7.380158486396     1.391229281605    -0.176233795267    12.000000000000
         C            6.139795359397     0.674130396950    -0.169905453455    12.000000000000
         H           -8.279194979072     3.407129814874    -0.182995572619     1.007825032230
         H            8.315109291754     3.318129870373    -0.181991053912     1.007825032230
         C           -8.591760117307     0.724844326794    -0.176592054753    12.000000000000
         C           -8.599028783429    -0.632628032479    -0.174468930170    12.000000000000
         C           -6.139817318844    -0.674124863404    -0.181458271505    12.000000000000
         C           -7.380188291863    -1.391254415832    -0.174042209964    12.000000000000
         C           -4.918688659982    -1.391743244281    -0.169117773355    12.000000000000
         C           -3.684442475410    -0.687225541986    -0.180150013420    12.000000000000
         C           -2.460821219973    -1.403333405075    -0.169606927230    12.000000000000
         C           -1.231166192046    -0.702162091131    -0.181727306022    12.000000000000
         C           -0.007573805113    -1.417407075662    -0.174270781719    12.000000000000
         C            1.223643536163    -0.715263603514    -0.164265159770    12.000000000000
         C            2.445666469606    -1.429631515257    -0.176015172530    12.000000000000
         C            3.676862523121    -0.726695657806    -0.180155756925    12.000000000000
         C            6.132244666694    -0.739967066100    -0.181683731137    12.000000000000
         C            4.903514965779    -1.444445746791    -0.167842656597    12.000000000000
         C            8.599010668965     0.632615640417    -0.176371679123    12.000000000000
         C            8.591741308375    -0.724839093444    -0.174635298861    12.000000000000
         C            7.364858584664    -1.470320891856    -0.174865475554    12.000000000000
         H           -9.528310151544     1.276859222942    -0.178061981717     1.007825032230
         H            9.541406794881     1.174584262194    -0.177423711384     1.007825032230
         C           -7.369842089494    -2.779533372184    -0.172234001542    12.000000000000
         C           -4.924603288776    -2.808425483592    -0.179965633978    12.000000000000
         C           -6.166626675393    -3.516640419076    -0.173663793819    12.000000000000
         C           -3.702514539430    -3.524669775371    -0.169641564792    12.000000000000
         C           -2.467651164839    -2.821314189055    -0.181686203149    12.000000000000
         C           -0.015137653833    -2.833129871650    -0.181404614640    12.000000000000
         C           -1.247126020952    -3.534720401814    -0.169840661231    12.000000000000
         C            1.209240889918    -3.547902904894    -0.167301631440    12.000000000000
         C            2.437331842429    -2.847629964426    -0.181441389751    12.000000000000
         C            4.894298164045    -2.861111194537    -0.180620649680    12.000000000000
         C            3.664611075316    -3.564208071783    -0.167741229739    12.000000000000
         C            6.128634835020    -3.582572283968    -0.174395387782    12.000000000000
         C            7.339668484970    -2.858401533621    -0.172880161700    12.000000000000
         H           -9.541453290984    -1.174551692915    -0.173099513997     1.007825032230
         H            9.528257688346    -1.276907300155    -0.173385491100     1.007825032230
         H           -8.315169223574    -3.318138079463    -0.168061773011     1.007825032230
         H            8.279150962767    -3.407129016144    -0.168540605717     1.007825032230
         C           -6.144998368428    -4.927635499034    -0.172337795759    12.000000000000
         C           -3.706787527723    -4.941249940368    -0.182158763847    12.000000000000
         C           -4.955594237727    -5.643482199745    -0.174191629202    12.000000000000
         C           -2.486125505952    -5.654773800660    -0.169219092802    12.000000000000
         C           -1.254062515205    -4.956110276252    -0.180394698788    12.000000000000
         C            1.201008394143    -4.969268614444    -0.179213574530    12.000000000000
         C           -0.030340854139    -5.669508529390    -0.171370374866    12.000000000000
         C            3.653745921603    -4.980732001665    -0.178455574782    12.000000000000
         C            2.425488516150    -5.681162861778    -0.169078644230    12.000000000000
         C            6.091961438086    -4.993246189637    -0.172101161108    12.000000000000
         C            4.894972264885    -5.696336647208    -0.173337356938    12.000000000000
         H           -7.089896567766    -5.466988068489    -0.167935034077     1.007825032230
         H            7.031051029475    -5.542646762583    -0.168521381345     1.007825032230
         C           -4.923549501924    -7.078809325928    -0.174746398107    12.000000000000
         C           -2.485346267963    -7.087716304180    -0.177256290543    12.000000000000
         C           -3.751690071504    -7.763935383887    -0.177061611617    12.000000000000
         C           -0.037953136713    -7.099453100720    -0.177040565395    12.000000000000
         C           -1.277960280127    -7.772892610917    -0.179025258157    12.000000000000
         C            2.409440141001    -7.114010238253    -0.176177364584    12.000000000000
         C            1.194745757428    -7.786173591813    -0.178329655466    12.000000000000
         C            4.847616872773    -7.131250336830    -0.173670549925    12.000000000000
         C            3.668467426150    -7.803776219194    -0.176018984288    12.000000000000
         H           -5.869944530142    -7.613818824292    -0.173202361241     1.007825032230
         H            5.788245445663    -7.676320415565    -0.172543430443     1.007825032230
         H           -3.753531119175    -8.851059795487    -0.178897526046     1.007825032230
         H           -1.284308585620    -8.860863618748    -0.183452642015     1.007825032230
         H            1.189217394970    -8.874148846840    -0.182422292156     1.007825032230
         H            3.658542435098    -8.890848860304    -0.177673525711     1.007825032230

  Charge       = 0
  Multiplicity = 1
  Basis Set: JUN-CC-PVDZ
    Blend: JUN-CC-PVDZ
  Basis Set: (JUN-CC-PVDZ AUX)
    Blend: JUN-CC-PVDZ-JKFIT

    Orbital Energies [Eh]
    ---------------------

    Doubly Occupied:

       1A    -11.264032     2A    -11.263659     3A    -11.263655
       4A    -11.263223     5A    -11.263211     6A    -11.263172
       7A    -11.263038     8A    -11.263022     9A    -11.262999
      10A    -11.262763    11A    -11.262652    12A    -11.262633
      13A    -11.262160    14A    -11.262147    15A    -11.262125
      16A    -11.262102    17A    -11.261985    18A    -11.261980
      19A    -11.261939    20A    -11.261894    21A    -11.261887
      22A    -11.261799    23A    -11.261794    24A    -11.261643
      25A    -11.261631    26A    -11.261600    27A    -11.261593
      28A    -11.261558    29A    -11.261546    30A    -11.261457
      31A    -11.261450    32A    -11.261425    33A    -11.261417
      34A    -11.261401    35A    -11.261389    36A    -11.261366
      37A    -11.261223    38A    -11.261217    39A    -11.261195
      40A    -11.261187    41A    -11.261180    42A    -11.261174
      43A    -11.261166    44A    -11.261147    45A    -11.261136
      46A    -11.261121    47A    -11.261102    48A    -11.261090
      49A    -11.260934    50A    -11.260898    51A    -11.260876
      52A    -11.260824    53A    -11.260821    54A    -11.260757
      55A    -11.259781    56A    -11.259754    57A    -11.259739
      58A    -11.259722    59A    -11.259709    60A    -11.259688
      61A    -11.259142    62A    -11.259108    63A    -11.259102
      64A    -11.259055    65A    -11.259046    66A    -11.259016
      67A    -11.258779    68A    -11.258752    69A    -11.258735
      70A    -11.258719    71A    -11.258706    72A    -11.258687
      73A    -11.254449    74A    -11.254442    75A    -11.254420
      76A    -11.254420    77A    -11.254419    78A    -11.254412
      79A    -11.253555    80A    -11.253524    81A    -11.253524
      82A    -11.253516    83A    -11.253506    84A    -11.253503
      85A    -11.253470    86A    -11.253436    87A    -11.253435
      88A    -11.253431    89A    -11.253421    90A    -11.253418
      91A    -11.252977    92A    -11.252970    93A    -11.252948
      94A    -11.252948    95A    -11.252947    96A    -11.252939
      97A     -1.253662    98A     -1.238771    99A     -1.238735
     100A     -1.220258   101A     -1.220246   102A     -1.215200
     103A     -1.200861   104A     -1.195413   105A     -1.187910
     106A     -1.187882   107A     -1.173592   108A     -1.173590
     109A     -1.155391   110A     -1.155382   111A     -1.152477
     112A     -1.144561   113A     -1.144558   114A     -1.128343
     115A     -1.114475   116A     -1.113002   117A     -1.112257
     118A     -1.112224   119A     -1.111466   120A     -1.088212
     121A     -1.088194   122A     -1.076807   123A     -1.076804
     124A     -1.067393   125A     -1.067355   126A     -1.064733
     127A     -1.046601   128A     -1.046590   129A     -1.040267
     130A     -1.038583   131A     -1.038575   132A     -1.024993
     133A     -1.021119   134A     -1.021052   135A     -1.006995
     136A     -1.006584   137A     -1.003605   138A     -1.000255
     139A     -1.000200   140A     -0.990929   141A     -0.970771
     142A     -0.970721   143A     -0.955711   144A     -0.955651
     145A     -0.905406   146A     -0.905361   147A     -0.905319
     148A     -0.905286   149A     -0.904048   150A     -0.892087
     151A     -0.892031   152A     -0.890112   153A     -0.890064
     154A     -0.889221   155A     -0.872053   156A     -0.868932
     157A     -0.851354   158A     -0.847615   159A     -0.847609
     160A     -0.845346   161A     -0.842778   162A     -0.834357
     163A     -0.834348   164A     -0.827966   165A     -0.827956
     166A     -0.784360   167A     -0.784349   168A     -0.783438
     169A     -0.783427   170A     -0.782066   171A     -0.782045
     172A     -0.781790   173A     -0.766784   174A     -0.760532
     175A     -0.750339   176A     -0.733319   177A     -0.726872
     178A     -0.726835   179A     -0.724856   180A     -0.724341
     181A     -0.724306   182A     -0.718233   183A     -0.713531
     184A     -0.713523   185A     -0.699385   186A     -0.699359
     187A     -0.685870   188A     -0.685774   189A     -0.685766
     190A     -0.681976   191A     -0.681969   192A     -0.678572
     193A     -0.653436   194A     -0.650671   195A     -0.650636
     196A     -0.649561   197A     -0.649557   198A     -0.649391
     199A     -0.640687   200A     -0.640641   201A     -0.639896
     202A     -0.638988   203A     -0.635798   204A     -0.635764
     205A     -0.628926   206A     -0.617715   207A     -0.615134
     208A     -0.615108   209A     -0.608605   210A     -0.608598
     211A     -0.599072   212A     -0.599036   213A     -0.598533
     214A     -0.598359   215A     -0.598341   216A     -0.597793
     217A     -0.594888   218A     -0.594873   219A     -0.594518
     220A     -0.593956   221A     -0.591734   222A     -0.591730
     223A     -0.587120   224A     -0.577656   225A     -0.577638
     226A     -0.575613   227A     -0.575606   228A     -0.573183
     229A     -0.569520   230A     -0.567906   231A     -0.567881
     232A     -0.566540   233A     -0.566531   234A     -0.560769
     235A     -0.558495   236A     -0.558450   237A     -0.558276
     238A     -0.554157   239A     -0.550470   240A     -0.547330
     241A     -0.544160   242A     -0.534924   243A     -0.534910
     244A     -0.533345   245A     -0.533331   246A     -0.527898
     247A     -0.527880   248A     -0.527526   249A     -0.516937
     250A     -0.516912   251A     -0.515240   252A     -0.515237
     253A     -0.509460   254A     -0.509448   255A     -0.497823
     256A     -0.496252   257A     -0.496206   258A     -0.493695
     259A     -0.493669   260A     -0.489359   261A     -0.481267
     262A     -0.477301   263A     -0.477295   264A     -0.473796
     265A     -0.469196   266A     -0.466299   267A     -0.466297
     268A     -0.458684   269A     -0.446401   270A     -0.446354
     271A     -0.440911   272A     -0.440669   273A     -0.440630
     274A     -0.434566   275A     -0.433786   276A     -0.407255
     277A     -0.407222   278A     -0.386235   279A     -0.386186
     280A     -0.385616   281A     -0.385613   282A     -0.383592
     283A     -0.354182   284A     -0.354162   285A     -0.350498
     286A     -0.337913   287A     -0.335404   288A     -0.335372
     289A     -0.332585   290A     -0.332575   291A     -0.306863
     292A     -0.301765   293A     -0.301713   294A     -0.300696
     295A     -0.286002   296A     -0.256370   297A     -0.253299
     298A     -0.253245   299A     -0.204092   300A     -0.204010

  @DF-RHF Final Energy: -3650.34444951599107

   => Energetics <=

    Nuclear Repulsion Energy =          15611.4211649754324753
    One-Electron Energy =              -36072.2576369017988327
    Two-Electron Energy =               16810.4920224103771034
    Total Energy =                      -3650.3444495159892540
 Dipole X            :         -0.0004139            0.0002112           -0.0002028
 Dipole Y            :          0.0002343           -0.0044281           -0.0041938
 Dipole Z            :        198.8289380         -198.8264232            0.0025148
 Magnitude           :                                                    0.0048942

    SAPT Results
  --------------------------------------------------------------------------------------------------------
    Electrostatics               -253.76564654 [mEh]    -159.24034732 [kcal/mol]    -666.26161320 [kJ/mol]
      Elst10,r                   -253.76564654 [mEh]    -159.24034732 [kcal/mol]    -666.26161320 [kJ/mol]

    Exchange                      688.42887766 [mEh]     431.99564276 [kcal/mol]    1807.46976929 [kJ/mol]
      Exch10                      688.42887766 [mEh]     431.99564276 [kcal/mol]    1807.46976929 [kJ/mol]
      Exch10(S^2)                 645.12421697 [mEh]     404.82155791 [kcal/mol]    1693.77339831 [kJ/mol]

    Induction                     -86.51890284 [mEh]     -54.29143119 [kcal/mol]    -227.15534812 [kJ/mol]
      Ind20,r                    -386.69453729 [mEh]    -242.65448561 [kcal/mol]   -1015.26636778 [kJ/mol]
      Exch-Ind20,r                295.03762201 [mEh]     185.13890293 [kcal/mol]     774.62116987 [kJ/mol]
      delta HF,r (2)                5.13801244 [mEh]       3.22415148 [kcal/mol]      13.48984980 [kJ/mol]

    Dispersion                   -176.44356962 [mEh]    -110.72001152 [kcal/mol]    -463.25252821 [kJ/mol]
      Disp20                     -221.01402765 [mEh]    -138.68839619 [kcal/mol]    -580.27224966 [kJ/mol]
      Exch-Disp20                  44.57045804 [mEh]      27.96838467 [kcal/mol]     117.01972145 [kJ/mol]
      Disp20 (SS)                -110.50701383 [mEh]     -69.34419810 [kcal/mol]    -290.13612483 [kJ/mol]
      Disp20 (OS)                -110.50701383 [mEh]     -69.34419810 [kcal/mol]    -290.13612483 [kJ/mol]
      Exch-Disp20 (SS)             26.20406686 [mEh]      16.44330021 [kcal/mol]      68.79876807 [kJ/mol]
      Exch-Disp20 (OS)             18.36639117 [mEh]      11.52508446 [kcal/mol]      48.22095338 [kJ/mol]

  Total HF                        348.14432828 [mEh]     218.46386424 [kcal/mol]     914.05280798 [kJ/mol]
  Total SAPT0                     171.70075867 [mEh]     107.74385272 [kcal/mol]     450.80027977 [kJ/mol]

  Special recipe for scaled SAPT0 (see Manual):
    Electrostatics sSAPT0        -253.76564654 [mEh]    -159.24034732 [kcal/mol]    -666.26161320 [kJ/mol]
    Exchange sSAPT0               688.42887766 [mEh]     431.99564276 [kcal/mol]    1807.46976929 [kJ/mol]
    Induction sSAPT0              -23.02726664 [mEh]     -14.44982797 [kcal/mol]     -60.45808022 [kJ/mol]
    Dispersion sSAPT0            -166.85207655 [mEh]    -104.70125875 [kcal/mol]    -438.07006662 [kJ/mol]
  Total sSAPT0                    244.78388794 [mEh]     153.60420871 [kcal/mol]     642.68000925 [kJ/mol]
  --------------------------------------------------------------------------------------------------------

*** Psi4 exiting successfully. Buy a developer a beer!
