                               Psi4 1.9 release

  ==> Input File <==

--------------------------------------------------------------------------
memory 80 GB # how much memory is available ! Depends on the nodes/cores !

molecule dimer {
# monomer A
+1 1    # Charge and multiplicity
C  0.680067 1.417258 -5.315929
C -0.680504 1.419286 -5.315545
N -1.085635 1.420284 -3.997221
C  0.000108 1.423560 -3.215820
C -2.477365 1.469690 -3.529242
N  1.085222 1.420284 -3.997221
H  1.385146 1.409430 -6.133368
H -1.385302 1.419096 -6.133214
H -0.000009 1.425307 -2.134731
C  2.478117 1.403392 -3.532123
H  2.490592 1.430737 -2.441870
H  2.967028 0.489946 -3.879299
H  3.001428 2.278875 -3.923595
H -2.857359 2.491761 -3.609201
H -3.082679 0.799606 -4.142306
H -2.518128 1.142706 -2.489294
--
# monomer B
0 1     # Charge and multiplicity
C   -3.66844126402057      7.80375217008252      0.00190004133558
C   -4.84759871934653      7.13124183134024     -0.00046653359696
C   -4.89495929917518      5.69633040353158     -0.00103944469517
C   -3.65374067877320      4.98073034095895      0.00662099703436
C   -2.40942512149445      7.11398103667468      0.00209438359570
C   -2.42547734410473      5.68112195090346     -0.00491050527438
C   -1.19474401643570      7.78614419430947      0.00356656413763
C   0.03795902893699      7.09942164575698      0.00139585983271
C   0.03033258741920      5.66948955970466     -0.00408752508301
C   -1.20098450790502      4.96927034791531      0.00488220885047
C   1.27795782581485      7.77285944319479      0.00277170839332
C   2.48535808472416      7.08769688523756      0.00049722048857
C   2.48612868491717      5.65477081024076     -0.00644052849921
C   1.25408291964399      4.95607811366431      0.00518741308898
C   3.75171459140595      7.76391215098033      0.00062407186893
C   4.92356605618520      7.07878077698995     -0.00143240883900
C   4.95560727132542      5.64344746336949     -0.00159282164606
C   3.70680153420475      4.94121020833308      0.00349873852374
H   -3.65852113775815      8.89082741913536      0.00358502958574
H   -1.18921332975660      8.87412108735996      0.00753844057883
H   1.28429423888630      8.86083343548850      0.00693053253426
H   3.75354208679975      8.85103527897216      0.00214659618464
H   5.86995870320703      7.61379483465560     -0.00235777588134
H   -5.78823170750226      7.67630221293400     -0.00202638095293
C   -6.09197395869619      4.99326001364347     -0.00291168518608
C   -6.12866148031747      3.58258016879823     -0.00171050815740
C   -3.66457974004527      3.56418217974434     -0.00463560277484
C   -4.89429820469869      2.86108077590057      0.00453338221034
C   -2.43733499489796      2.84761165708481      0.00719617576166
C   -1.20922785759670      3.54788693497833     -0.00648285103018
C   1.24714157216223      3.53468075142962     -0.00729145743546
C   0.01517603956900      2.83311183930540      0.00439272578912
C   2.46764517244071      2.82128997725533      0.00449278391269
C   3.70254947457969      3.52466015442405     -0.00899517692985
C   6.14498038638375      4.92757236613191     -0.00282626685777
C   6.16658835886151      3.51658447594213     -0.00065971342101
C   4.92460995845939      2.80840792535402      0.00587903281610
H   7.08990550964105      5.46688776622306     -0.00658814770723
H   -7.03104175110130      5.54268795285765     -0.00714490013730
C   -7.33969804112295      2.85841153457957     -0.00333767559888
C   -7.36488195805880      1.47032337158330     -0.00157213747140
C   -4.90350460894690      1.44442681216000     -0.00628840166334
C   -6.13225715261081      0.73993935705394      0.00600164231964
C   -3.67687480051673      0.72669714267312      0.00433931473643
C   -2.44565658606518      1.42964113326212     -0.00597039546461
C   -1.22360068130162      0.71532450163492      0.00545886906656
C   0.00763786931376      1.41738314923765      0.00392452278437
C   1.23121980774686      0.70211669058719     -0.01490206287210
C   2.46082110053113      1.40329203612573      0.00460244601878
C   3.68443025419614      0.68719842821222      0.00377365974158
C   4.91870890153864      1.39173456118907     -0.00862816189375
C   7.36980207796101      2.77948220318441     -0.00242013321349
C   7.38016266612146      1.39121750785509     -0.00087345036788
C   6.13979953912259      0.67411862320065      0.00545489144369
H   -8.27919079934664      3.40711804112415     -0.00763522772059
H   8.31511347147953      3.31811809662368     -0.00663070901292
C   -8.59175593758115      0.72483255304480     -0.00123170985383
C   -8.59902460370342     -0.63263980622873      0.00089141472904
C   -6.13981313911873     -0.67413663715361     -0.00609792660607
C   -7.38018411213749     -1.39126618958160      0.00131813493501
C   -4.91868448025621     -1.39175501803000      0.00624257154343
C   -3.68443829568458     -0.68723731573599     -0.00478966852105
C   -2.46081704024768     -1.40334517882457      0.00575341766833
C   -1.23116201232071     -0.70217386488055     -0.00636696112346
C   -0.00756962538737     -1.41741884941102      0.00108956317991
C   1.22364771588843     -0.71527537726392      0.01109518512883
C   2.44567064933149     -1.42964328900682     -0.00065482763106
C   3.67686670284649     -0.72670743155550     -0.00479541202602
C   6.13224884641929     -0.73997883984993     -0.00632338623858
C   4.90351914550401     -1.44445752054090      0.00751768830159
C   8.59901484869081      0.63260386666793     -0.00101133422380
C   8.59174548810050     -0.72485086719319      0.00072504603735
C   7.36486276438985     -1.47033266560598      0.00049486934466
H   -9.52830597181814      1.27684744919284     -0.00270163681798
H   9.54141097460619      1.17457248844457     -0.00206336648518
C   -7.36983790976868     -2.77954514593389      0.00312634335708
C   -4.92459910905015     -2.80843725734101     -0.00460528907921
C   -6.16662249566744     -3.51665219282533      0.00169655107992
C   -3.70251035970491     -3.52468154912026      0.00571878010666
C   -2.46764698511392     -2.82132596280400     -0.00632585824990
C   -0.01513347410770     -2.83314164539971     -0.00604426974092
C   -1.24712184122656     -3.53473217556300      0.00551968366725
C   1.20924506964357     -3.54791467864352      0.00805871345849
C   2.43733602215464     -2.84764173817541     -0.00608104485234
C   4.89430234377080     -2.86112296828604     -0.00526030478103
C   3.66461525504104     -3.56421984553201      0.00761911515957
C   6.12863901474565     -3.58258405771778      0.00096495711699
C   7.33967266469532     -2.85841330737039      0.00248018319869
H   -9.54144911125902     -1.17456346666430      0.00226083090216
H   9.52826186807155     -1.27691907390448      0.00197485379837
H   -8.31516504384864     -3.31814985321231      0.00729857188773
H   8.27915514249207     -3.40714078989363      0.00681973918158
C   -6.14499418870218     -4.92764727278338      0.00302254913999
C   -3.70678334799751     -4.94126171411716     -0.00679841894792
C   -4.95559005800169     -5.64349397349412      0.00116871569699
C   -2.48612132622665     -5.65478557440947      0.00614125209662
C   -1.25405833548005     -4.95612205000132     -0.00503435388927
C   1.20101257386816     -4.96928038819302     -0.00385322963129
C   -0.03033667441341     -5.66952030313900      0.00398997003238
C   3.65375010132847     -4.98074377541453     -0.00309522988330
C   2.42549269587528     -5.68117463552727      0.00628170066869
C   6.09196561781097     -4.99325796338655      0.00325918379042
C   4.89497644461045     -5.69634842095790      0.00202298796027
H   -7.08989238804069     -5.46699984223871      0.00742531082125
H   7.03105520920009     -5.54265853633254      0.00683896355417
C   -4.92354532219813     -7.07882109967734      0.00061394679214
C   -2.48534208823777     -7.08772807792913     -0.00189594564379
C   -3.75168589177895     -7.76394715763627     -0.00170126671874
C   -0.03794895698805     -7.09946487446944     -0.00168022049625
C   -1.27795610040136     -7.77290438466689     -0.00366491325785
C   2.40944432072629     -7.11402201200282     -0.00081701968533
C   1.19474993715296     -7.78618536556242     -0.00296931056689
C   4.84762105249800     -7.13126211057943      0.00168979497423
C   3.66847160587561     -7.80378799294376     -0.00065863938960
H   -5.86994035041618     -7.61383059804164      0.00215798365757
H   5.78824962538815     -7.67633218931421      0.00281691445618
H   -3.75352693944918     -8.85107156923607     -0.00353718114765
H   -1.28430440589466     -8.86087539249706     -0.00809229711623
H   1.18922157469537     -8.87416062058945     -0.00706194725726
H   3.65854661482387     -8.89086063405326     -0.00231318081200

    units angstrom      # Angstroms are the default
    no_reorient         # Geometry fixed, default
    symmetry c1         # C1 symmetry, default
}

set {
    scf_type DF         # Density fitting, faster than exact integrals
    freeze_core True    # Freeze core electrons
    basis jun-cc-pVDZ   # Jun-cc-pVDZ basis set, recommended for sSAPT0 in https://doi.org/10.1063/1.4867135
}

energy('ssapt0')        # Compute sSAPT0 energy, includes also SAPT0
--------------------------------------------------------------------------

  //              Dimer HF             //
    Molecular point group: c1
  Charge       = 1
  Multiplicity = 1
  Basis Set: JUN-CC-PVDZ
    Blend: JUN-CC-PVDZ
  Basis Set: (JUN-CC-PVDZ AUX)
    Blend: JUN-CC-PVDZ-JKFIT
  @DF-RHF Final Energy: -3953.65368525290569
    Total Energy =                      -3953.6536852529061434
 Dipole X            :         -0.0068517            0.0004804           -0.0063713
 Dipole Y            :         -7.3583728            8.7122315            1.3538587
 Dipole Z            :         18.2351937          -23.0139532           -4.7787595
 Magnitude           :                                                    4.9668417
  //            Monomer A HF           //
    Molecular point group: c1
  Multiplicity = 1
  Basis Set: JUN-CC-PVDZ
    Blend: JUN-CC-PVDZ
  Basis Set: (JUN-CC-PVDZ AUX)
    Blend: JUN-CC-PVDZ-JKFIT
  @DF-RHF Final Energy:  -303.29855512628217
    Total Energy =                       -303.2985551262821673
  //            Monomer B HF           //
    Molecular point group: c1

    Geometry (in Angstrom), charge = 0, multiplicity = 1:

       Center              X                  Y                   Z               Mass
    ------------   -----------------  -----------------  -----------------  -----------------
      Gh(C)           0.680062820275     1.308604348936    -5.003341447889    12.000000000000
      Gh(C)          -0.680508179725     1.310632348936    -5.002957447889    12.000000000000
      Gh(N)          -1.085639179725     1.311630348936    -3.684633447889    14.003074004430
      Gh(C)           0.000103820275     1.314906348936    -2.903232447889    12.000000000000
      Gh(C)          -2.477369179725     1.361036348936    -3.216654447889    12.000000000000
      Gh(N)           1.085217820275     1.311630348936    -3.684633447889    14.003074004430
      Gh(H)           1.385141820275     1.300776348936    -5.820780447889     1.007825032230
      Gh(H)          -1.385306179725     1.310442348936    -5.820626447889     1.007825032230
      Gh(H)          -0.000013179725     1.316653348936    -1.822143447889     1.007825032230
      Gh(C)           2.478112820275     1.294738348936    -3.219535447889    12.000000000000
      Gh(H)           2.490587820275     1.322083348936    -2.129282447889     1.007825032230
      Gh(H)           2.967023820275     0.381292348936    -3.566711447889     1.007825032230
      Gh(H)           3.001423820275     2.170221348936    -3.611007447889     1.007825032230
      Gh(H)          -2.857363179725     2.383107348936    -3.296613447889     1.007825032230
      Gh(H)          -3.082683179725     0.690952348936    -3.829718447889     1.007825032230
      Gh(H)          -2.518132179725     1.034052348936    -2.176706447889     1.007825032230
         C           -3.668445443746     7.695098519018     0.314487593446    12.000000000000
         C           -4.847602899072     7.022588180276     0.312121018514    12.000000000000
         C           -4.894963478901     5.587676752467     0.311548107415    12.000000000000
         C           -3.653744858499     4.872076689895     0.319208549145    12.000000000000
         C           -2.409429301220     7.005327385610     0.314681935706    12.000000000000
         C           -2.425481523830     5.572468299839     0.307677046836    12.000000000000
         C           -1.194748196161     7.677490543245     0.316154116248    12.000000000000
         C            0.037954849212     6.990767994693     0.313983411943    12.000000000000
         C            0.030328407694     5.560835908640     0.308500027028    12.000000000000
         C           -1.200988687630     4.860616696851     0.317469760961    12.000000000000
         C            1.277953646089     7.664205792130     0.315359260504    12.000000000000
         C            2.485353904999     6.979043234173     0.313084772599    12.000000000000
         C            2.486124505192     5.546117159176     0.306147023611    12.000000000000
         C            1.254078739919     4.847424462600     0.317774965200    12.000000000000
         C            3.751710411681     7.655258499916     0.313211623980    12.000000000000
         C            4.923561876460     6.970127125926     0.311155143272    12.000000000000
         C            4.955603091600     5.534793812305     0.310994730465    12.000000000000
         C            3.706797354479     4.832556557269     0.316086290634    12.000000000000
         H           -3.658525317484     8.782173768071     0.316172581696     1.007825032230
         H           -1.189217509482     8.765467436296     0.320125992689     1.007825032230
         H            1.284290059161     8.752179784424     0.319518084645     1.007825032230
         H            3.753537907074     8.742381627908     0.314734148295     1.007825032230
         H            5.869954523482     7.505141183591     0.310229776229     1.007825032230
         H           -5.788235887228     7.567648561870     0.310561171158     1.007825032230
         C           -6.091978138422     4.884606362579     0.309675866925    12.000000000000
         C           -6.128665660043     3.473926517734     0.310877043953    12.000000000000
         C           -3.664583919771     3.455528528680     0.307951949336    12.000000000000
         C           -4.894302384424     2.752427124836     0.317120934321    12.000000000000
         C           -2.437339174623     2.738958006020     0.319783727872    12.000000000000
         C           -1.209232037322     3.439233283914     0.306104701080    12.000000000000
         C            1.247137392437     3.426027100365     0.305296094675    12.000000000000
         C            0.015171859844     2.724458188241     0.316980277900    12.000000000000
         C            2.467640992715     2.712636326191     0.317080336023    12.000000000000
         C            3.702545294854     3.416006503360     0.303592375181    12.000000000000
         C            6.144976206658     4.818918715067     0.309761285253    12.000000000000
         C            6.166584179136     3.407930824878     0.311927838690    12.000000000000
         C            4.924605778734     2.699754274290     0.318466584927    12.000000000000
         H            7.089901329916     5.358234115159     0.305999404403     1.007825032230
         H           -7.031045930827     5.434034301793     0.305442651973     1.007825032230
         C           -7.339702220848     2.749757883515     0.309249876512    12.000000000000
         C           -7.364886137784     1.361669720519     0.311015414639    12.000000000000
         C           -4.903508788672     1.335773161096     0.306299150447    12.000000000000
         C           -6.132261332336     0.631285705989     0.318589194430    12.000000000000
         C           -3.676878980242     0.618043491609     0.316926866847    12.000000000000
         C           -2.445660765791     1.320987482198     0.306617156646    12.000000000000
         C           -1.223604861027     0.606670850570     0.318046421177    12.000000000000
         C            0.007633689588     1.308729498173     0.316512074895    12.000000000000
         C            1.231215628021     0.593463039523     0.297685489239    12.000000000000
         C            2.460816920806     1.294638385061     0.317189998129    12.000000000000
         C            3.684426074471     0.578544777148     0.316361211852    12.000000000000
         C            4.918704721813     1.283080910125     0.303959390217    12.000000000000
         C            7.369797898236     2.670828552120     0.310167418897    12.000000000000
         C            7.380158486396     1.282563856791     0.311714101743    12.000000000000
         C            6.139795359397     0.565464972136     0.318042443554    12.000000000000
         H           -8.279194979072     3.298464390060     0.304952324390     1.007825032230
         H            8.315109291754     3.209464445559     0.305956843098     1.007825032230
         C           -8.591760117307     0.616178901980     0.311355842257    12.000000000000
         C           -8.599028783429    -0.741293457293     0.313478966840    12.000000000000
         C           -6.139817318844    -0.782790288218     0.306489625505    12.000000000000
         C           -7.380188291863    -1.499919840646     0.313905687046    12.000000000000
         C           -4.918688659982    -1.500408669094     0.318830123654    12.000000000000
         C           -3.684442475410    -0.795890966800     0.307797883590    12.000000000000
         C           -2.460821219973    -1.511998829889     0.318340969779    12.000000000000
         C           -1.231166192046    -0.810827515945     0.306220590987    12.000000000000
         C           -0.007573805113    -1.526072500475     0.313677115291    12.000000000000
         C            1.223643536163    -0.823929028328     0.323682737239    12.000000000000
         C            2.445666469606    -1.538296940071     0.311932724480    12.000000000000
         C            3.676862523121    -0.835361082620     0.307792140085    12.000000000000
         C            6.132244666694    -0.848632490914     0.306264165872    12.000000000000
         C            4.903514965779    -1.553111171605     0.320105240412    12.000000000000
         C            8.599010668965     0.523950215603     0.311576217887    12.000000000000
         C            8.591741308375    -0.833504518258     0.313312598148    12.000000000000
         C            7.364858584664    -1.578986316670     0.313082421455    12.000000000000
         H           -9.528310151544     1.168193798128     0.309885915293     1.007825032230
         H            9.541406794881     1.065918837380     0.310524185625     1.007825032230
         C           -7.369842089494    -2.888198796998     0.315713895468    12.000000000000
         C           -4.924603288776    -2.917090908405     0.307982263031    12.000000000000
         C           -6.166626675393    -3.625305843890     0.314284103191    12.000000000000
         C           -3.702514539430    -3.633335200185     0.318306332217    12.000000000000
         C           -2.467651164839    -2.929979613868     0.306261693861    12.000000000000
         C           -0.015137653833    -2.941795296464     0.306543282370    12.000000000000
         C           -1.247126020952    -3.643385826627     0.318107235778    12.000000000000
         C            1.209240889918    -3.656568329708     0.320646265569    12.000000000000
         C            2.437331842429    -2.956295389240     0.306506507258    12.000000000000
         C            4.894298164045    -2.969776619350     0.307327247330    12.000000000000
         C            3.664611075316    -3.672873496596     0.320206667270    12.000000000000
         C            6.128634835020    -3.691237708782     0.313552509228    12.000000000000
         C            7.339668484970    -2.967066958435     0.315067735309    12.000000000000
         H           -9.541453290984    -1.283217117729     0.314848383013     1.007825032230
         H            9.528257688346    -1.385572724969     0.314562405909     1.007825032230
         H           -8.315169223574    -3.426803504277     0.319886123998     1.007825032230
         H            8.279150962767    -3.515794440958     0.319407291292     1.007825032230
         C           -6.144998368428    -5.036300923848     0.315610101251    12.000000000000
         C           -3.706787527723    -5.049915365182     0.305789133163    12.000000000000
         C           -4.955594237727    -5.752147624559     0.313756267808    12.000000000000
         C           -2.486125505952    -5.763439225474     0.318728804207    12.000000000000
         C           -1.254062515205    -5.064775701066     0.307553198221    12.000000000000
         C            1.201008394143    -5.077934039257     0.308734322479    12.000000000000
         C           -0.030340854139    -5.778173954203     0.316577522143    12.000000000000
         C            3.653745921603    -5.089397426479     0.309492322227    12.000000000000
         C            2.425488516150    -5.789828286592     0.318869252779    12.000000000000
         C            6.091961438086    -5.101911614451     0.315846735901    12.000000000000
         C            4.894972264885    -5.805002072022     0.314610540071    12.000000000000
         H           -7.089896567766    -5.575653493303     0.320012862932     1.007825032230
         H            7.031051029475    -5.651312187397     0.319426515665     1.007825032230
         C           -4.923549501924    -7.187474750742     0.313201498903    12.000000000000
         C           -2.485346267963    -7.196381728994     0.310691606467    12.000000000000
         C           -3.751690071504    -7.872600808701     0.310886285392    12.000000000000
         C           -0.037953136713    -7.208118525534     0.310907331614    12.000000000000
         C           -1.277960280127    -7.881558035731     0.308922638853    12.000000000000
         C            2.409440141001    -7.222675663067     0.311770532425    12.000000000000
         C            1.194745757428    -7.894839016627     0.309618241544    12.000000000000
         C            4.847616872773    -7.239915761644     0.314277347085    12.000000000000
         C            3.668467426150    -7.912441644008     0.311928912721    12.000000000000
         H           -5.869944530142    -7.722484249106     0.314745535768     1.007825032230
         H            5.788245445663    -7.784985840379     0.315404466567     1.007825032230
         H           -3.753531119175    -8.959725220301     0.309050370963     1.007825032230
         H           -1.284308585620    -8.969529043562     0.304495254994     1.007825032230
         H            1.189217394970    -8.982814271654     0.305525604853     1.007825032230
         H            3.658542435098    -8.999514285118     0.310274371299     1.007825032230

  Charge       = 0
  Multiplicity = 1
  Basis Set: JUN-CC-PVDZ
    Blend: JUN-CC-PVDZ
  Basis Set: (JUN-CC-PVDZ AUX)
    Blend: JUN-CC-PVDZ-JKFIT

    Orbital Energies [Eh]
    ---------------------

    Doubly Occupied:

       1A    -11.264055     2A    -11.263672     3A    -11.263648
       4A    -11.263333     5A    -11.263277     6A    -11.263246
       7A    -11.263085     8A    -11.263071     9A    -11.263055
      10A    -11.262873    11A    -11.262739    12A    -11.262712
      13A    -11.262258    14A    -11.262236    15A    -11.262192
      16A    -11.262170    17A    -11.262092    18A    -11.262076
      19A    -11.262038    20A    -11.261994    21A    -11.261976
      22A    -11.261877    23A    -11.261841    24A    -11.261704
      25A    -11.261696    26A    -11.261674    27A    -11.261666
      28A    -11.261622    29A    -11.261616    30A    -11.261537
      31A    -11.261520    32A    -11.261507    33A    -11.261485
      34A    -11.261478    35A    -11.261464    36A    -11.261455
      37A    -11.261286    38A    -11.261279    39A    -11.261262
      40A    -11.261255    41A    -11.261240    42A    -11.261237
      43A    -11.261228    44A    -11.261220    45A    -11.261212
      46A    -11.261200    47A    -11.261184    48A    -11.261171
      49A    -11.261027    50A    -11.261003    51A    -11.260995
      52A    -11.260931    53A    -11.260924    54A    -11.260843
      55A    -11.259874    56A    -11.259850    57A    -11.259834
      58A    -11.259820    59A    -11.259803    60A    -11.259776
      61A    -11.259244    62A    -11.259214    63A    -11.259210
      64A    -11.259160    65A    -11.259155    66A    -11.259123
      67A    -11.258874    68A    -11.258850    69A    -11.258832
      70A    -11.258820    71A    -11.258804    72A    -11.258779
      73A    -11.254491    74A    -11.254487    75A    -11.254464
      76A    -11.254461    77A    -11.254456    78A    -11.254452
      79A    -11.253621    80A    -11.253597    81A    -11.253596
      82A    -11.253576    83A    -11.253566    84A    -11.253562
      85A    -11.253536    86A    -11.253510    87A    -11.253509
      88A    -11.253491    89A    -11.253481    90A    -11.253478
      91A    -11.253018    92A    -11.253014    93A    -11.252991
      94A    -11.252988    95A    -11.252984    96A    -11.252980
      97A     -1.253826    98A     -1.238896    99A     -1.238875
     100A     -1.220364   101A     -1.220357   102A     -1.215328
     103A     -1.200950   104A     -1.195508   105A     -1.188041
     106A     -1.188023   107A     -1.173675   108A     -1.173673
     109A     -1.155522   110A     -1.155516   111A     -1.152604
     112A     -1.144636   113A     -1.144633   114A     -1.128464
     115A     -1.114607   116A     -1.113076   117A     -1.112380
     118A     -1.112354   119A     -1.111535   120A     -1.088329
     121A     -1.088312   122A     -1.076878   123A     -1.076876
     124A     -1.067513   125A     -1.067475   126A     -1.064859
     127A     -1.046702   128A     -1.046694   129A     -1.040380
     130A     -1.038654   131A     -1.038648   132A     -1.025129
     133A     -1.021265   134A     -1.021207   135A     -1.007084
     136A     -1.006700   137A     -1.003700   138A     -1.000385
     139A     -1.000331   140A     -0.990997   141A     -0.970884
     142A     -0.970832   143A     -0.955796   144A     -0.955737
     145A     -0.905473   146A     -0.905463   147A     -0.905429
     148A     -0.905425   149A     -0.904202   150A     -0.892239
     151A     -0.892182   152A     -0.890242   153A     -0.890192
     154A     -0.889338   155A     -0.872131   156A     -0.868985
     157A     -0.851443   158A     -0.847746   159A     -0.847732
     160A     -0.845480   161A     -0.842903   162A     -0.834461
     163A     -0.834449   164A     -0.828036   165A     -0.828029
     166A     -0.784454   167A     -0.784445   168A     -0.783550
     169A     -0.783540   170A     -0.782183   171A     -0.782160
     172A     -0.781911   173A     -0.766881   174A     -0.760671
     175A     -0.750462   176A     -0.733398   177A     -0.726973
     178A     -0.726941   179A     -0.724972   180A     -0.724438
     181A     -0.724408   182A     -0.718374   183A     -0.713655
     184A     -0.713649   185A     -0.699481   186A     -0.699461
     187A     -0.686006   188A     -0.685860   189A     -0.685853
     190A     -0.682067   191A     -0.682060   192A     -0.678675
     193A     -0.653529   194A     -0.650771   195A     -0.650739
     196A     -0.649690   197A     -0.649686   198A     -0.649469
     199A     -0.640819   200A     -0.640777   201A     -0.639983
     202A     -0.639064   203A     -0.635914   204A     -0.635880
     205A     -0.629032   206A     -0.617727   207A     -0.615211
     208A     -0.615187   209A     -0.608696   210A     -0.608690
     211A     -0.599146   212A     -0.599085   213A     -0.598636
     214A     -0.598480   215A     -0.598469   216A     -0.597920
     217A     -0.594970   218A     -0.594955   219A     -0.594619
     220A     -0.594100   221A     -0.591845   222A     -0.591843
     223A     -0.587266   224A     -0.577716   225A     -0.577698
     226A     -0.575670   227A     -0.575655   228A     -0.573274
     229A     -0.569545   230A     -0.568026   231A     -0.568000
     232A     -0.566643   233A     -0.566637   234A     -0.560830
     235A     -0.558611   236A     -0.558574   237A     -0.558341
     238A     -0.554259   239A     -0.550527   240A     -0.547392
     241A     -0.544230   242A     -0.534959   243A     -0.534952
     244A     -0.533434   245A     -0.533419   246A     -0.527979
     247A     -0.527962   248A     -0.527667   249A     -0.517053
     250A     -0.517025   251A     -0.515304   252A     -0.515295
     253A     -0.509542   254A     -0.509530   255A     -0.497915
     256A     -0.496346   257A     -0.496306   258A     -0.493742
     259A     -0.493719   260A     -0.489382   261A     -0.481351
     262A     -0.477356   263A     -0.477354   264A     -0.473888
     265A     -0.469313   266A     -0.466405   267A     -0.466403
     268A     -0.458745   269A     -0.446546   270A     -0.446492
     271A     -0.440964   272A     -0.440703   273A     -0.440679
     274A     -0.434622   275A     -0.433838   276A     -0.407321
     277A     -0.407279   278A     -0.386334   279A     -0.386286
     280A     -0.385662   281A     -0.385660   282A     -0.383677
     283A     -0.354246   284A     -0.354234   285A     -0.350584
     286A     -0.338014   287A     -0.335495   288A     -0.335435
     289A     -0.332639   290A     -0.332637   291A     -0.306990
     292A     -0.301862   293A     -0.301797   294A     -0.300766
     295A     -0.286084   296A     -0.256406   297A     -0.253396
     298A     -0.253353   299A     -0.204177   300A     -0.204085

  @DF-RHF Final Energy: -3650.34180791321251

   => Energetics <=

    Nuclear Repulsion Energy =          15611.4211649754306563
    One-Electron Energy =              -36072.1987025915441336
    Two-Electron Energy =               16810.4357297029018810
    Total Energy =                      -3650.3418079132134153
 Dipole X            :         -0.0006962            0.0002112           -0.0004850
 Dipole Y            :        123.2196347         -123.2131634            0.0064713
 Dipole Z            :       -354.4207746          354.4263101            0.0055355
 Magnitude           :                                                    0.0085296

    SAPT Results
  --------------------------------------------------------------------------------------------------------
    Electrostatics                -20.73553513 [mEh]     -13.01174474 [kcal/mol]     -54.44113999 [kJ/mol]
      Elst10,r                    -20.73553513 [mEh]     -13.01174474 [kcal/mol]     -54.44113999 [kJ/mol]

    Exchange                       31.80467014 [mEh]      19.95773183 [kcal/mol]      83.50314996 [kJ/mol]
      Exch10                       31.80467014 [mEh]      19.95773183 [kcal/mol]      83.50314996 [kJ/mol]
      Exch10(S^2)                  31.51931052 [mEh]      19.77866596 [kcal/mol]      82.75393836 [kJ/mol]

    Induction                     -24.39134842 [mEh]     -15.30580221 [kcal/mol]     -64.03947646 [kJ/mol]
      Ind20,r                     -27.31062194 [mEh]     -17.13767400 [kcal/mol]     -71.70402802 [kJ/mol]
      Exch-Ind20,r                  8.81501876 [mEh]       5.53150778 [kcal/mol]      23.14382857 [kJ/mol]
      delta HF,r (2)               -5.89574524 [mEh]      -3.69963600 [kcal/mol]     -15.47927701 [kJ/mol]

    Dispersion                    -29.14811905 [mEh]     -18.29072084 [kcal/mol]     -76.52837601 [kJ/mol]
      Disp20                      -31.47173637 [mEh]     -19.74881273 [kcal/mol]     -82.62903244 [kJ/mol]
      Exch-Disp20                   2.32361732 [mEh]       1.45809188 [kcal/mol]       6.10065643 [kJ/mol]
      Disp20 (SS)                 -15.73586818 [mEh]      -9.87440636 [kcal/mol]     -41.31451622 [kJ/mol]
      Disp20 (OS)                 -15.73586818 [mEh]      -9.87440636 [kcal/mol]     -41.31451622 [kJ/mol]
      Exch-Disp20 (SS)              1.42915029 [mEh]       0.89680535 [kcal/mol]       3.75223358 [kJ/mol]
      Exch-Disp20 (OS)              0.89446703 [mEh]       0.56128653 [kcal/mol]       2.34842285 [kJ/mol]

  Total HF                        -13.32221341 [mEh]      -8.35981513 [kcal/mol]     -34.97746649 [kJ/mol]
  Total SAPT0                     -42.47033246 [mEh]     -26.65053597 [kcal/mol]    -111.50584251 [kJ/mol]

  Special recipe for scaled SAPT0 (see Manual):
    Electrostatics sSAPT0         -20.73553513 [mEh]     -13.01174474 [kcal/mol]     -54.44113999 [kJ/mol]
    Exchange sSAPT0                31.80467014 [mEh]      19.95773183 [kcal/mol]      83.50314996 [kJ/mol]
    Induction sSAPT0              -24.14975436 [mEh]     -15.15419965 [kcal/mol]     -63.40517133 [kJ/mol]
    Dispersion sSAPT0             -29.08443544 [mEh]     -18.25075878 [kcal/mol]     -76.36117474 [kJ/mol]
  Total sSAPT0                    -42.16505479 [mEh]     -26.45897134 [kcal/mol]    -110.70433610 [kJ/mol]
  --------------------------------------------------------------------------------------------------------

*** Psi4 exiting successfully. Buy a developer a beer!
