                               Psi4 1.9 release

  ==> Input File <==

--------------------------------------------------------------------------
memory 32 GB # how much memory is available ! Depends on the nodes/cores !

molecule dimer {
# monomer A
+1 1    # Charge and multiplicity
C  0.680067 -1.215929 4.808042
C -0.680504 -1.215545 4.806014
N -1.085635  0.102779 4.805016
C  0.000108  0.884180 4.801740
C -2.477365  0.570758 4.755610
N  1.085222  0.102779 4.805016
H  1.385146 -2.033368 4.815870
H -1.385302 -2.033214 4.806204
H -0.000009  1.965269 4.799993
C  2.478117  0.567877 4.821908
H  2.490592  1.658130 4.794563
H  2.967028  0.220701 5.735354
H  3.001428  0.176405 3.946425
H -2.857359  0.490799 3.733539
H -3.082679 -0.042306 5.425694
H -2.518128  1.610706 5.082594
--
# monomer B
0 1     # Charge and multiplicity
C   1.22531237526482      0.70753866091955      0.00613762728373
C   1.22532433589282     -0.70753852257020     -0.00619318228664
C   -0.00000567409046      1.41496628609039     -0.00672680580738
C   2.45644923379077      1.41832825917820      0.00902448468363
C   0.00001130712078     -1.41497612663474      0.00347275151708
C   -1.22530046906674      0.70754574598412      0.00838914760619
C   2.45643823516184     -1.41832293188077     -0.00843833914343
C   -0.00000085313587      2.83680140328112     -0.00913035594137
C   3.68182717731192      0.70931832800114     -0.00808954934571
C   2.45512052870677      2.83422403348893     -0.00819210630633
C   3.68182158506039     -0.70933346742900      0.00798293467272
C   -1.22531311884624     -0.70752714354401     -0.00512042085974
C   1.22670006104402      3.54346985599427      0.00816696660346
C   0.00000526469929     -2.83678176723568      0.00832091913869
C   -2.45643555300670      1.41831729028492      0.00842454345199
C   2.45512389762097     -2.83422965658853      0.00783102630520
C   -1.22671388474763      3.54346943575023      0.00827029982280
C   4.91451777504333      1.42717324448953     -0.00160886631602
C   3.69315067131765      3.54279566454522     -0.00155906667985
C   -2.45643712022637     -1.41831290883911     -0.00846337726810
C   1.22670532178455     -3.54347386990643     -0.00780316414624
C   -2.45512491866593      2.83421703463423     -0.00818572995999
C   4.91452486062398     -1.42718653794377      0.00136387641845
C   1.22142509354026      4.97013443726031      0.00150231067809
C   4.89300870916237      2.82518837202648     -0.00039219795739
C   -1.22669652864725     -3.54347062507680     -0.00753595973677
C   -3.68181849668397      0.70932533873199     -0.00807686886569
C   3.69314758099218     -3.54280096939050      0.00148176697923
C   -1.22143177215231      4.97012866986289      0.00168580605083
C   6.13477145276790      0.68054831910577     -0.00083909176631
C   3.65678936045204      4.97295361556775     -0.00065042889723
C   -2.45512642789169     -2.83421472106065      0.00758666850712
C   -3.68181869921921     -0.70932533146830      0.00810055625144
C   4.89301309775526     -2.82519973363176      0.00021895393805
C   -0.00000059327114      5.65044773803267      0.00045449734393
C   6.13477559217374     -0.68055448207492      0.00042622874941
C   2.47813196269732      5.65357712333155      0.00063835075260
C   1.22142288457925     -4.97012668293268     -0.00129718634452
C   -3.69316190412301      3.54279732619245     -0.00139355922051
C   -1.22142804110313     -4.97011793159564     -0.00140994817719
C   -4.91452132810043      1.42717581899491     -0.00153192130862
C   3.65678749952045     -4.97295485423912      0.00080007163680
C   -2.47813805026426      5.65357479452875      0.00092287576113
C   -3.69314125872231     -3.54278984697859      0.00136564082345
C   -4.91451200321153     -1.42718062802730      0.00139857359209
C   -0.00000552908399     -5.65043791501335      0.00005899322272
C   -4.89302000425900      2.82518897091939     -0.00040227981744
C   2.47812647313991     -5.65357317188818     -0.00029052915548
C   -3.65679823041642      4.97295655404175     -0.00047374852278
C   -4.89299899901461     -2.82519139505969      0.00006491824035
C   -2.47812801824129     -5.65356579800621     -0.00056571680280
C   -6.13477002348955      0.68054913825639     -0.00086464346868
C   -3.65678835334731     -4.97294365097028      0.00058578382008
C   -6.13476456307132     -0.68055354348201      0.00040575295444
H   5.83528897565761      3.36927626695423      0.00396712770529
H   7.07385965258860      1.22821762089947     -0.00037744837300
H   4.60066374401555      5.51238117445323     -0.00014522814529
H   5.83528386714679     -3.36930568472863     -0.00423551337640
H   -0.00001167146422      6.73853104613662     -0.00389474766392
H   7.07386165167227     -1.22822657074368     -0.00008250934481
H   2.47331421164041      6.74068466339473      0.00017162982210
H   4.60066897122302     -5.51237575717576      0.00039007446835
H   -2.47331820069565      6.74068209160650      0.00047297644710
H   -0.00000978838621     -6.73852780445195      0.00458867820736
H   -5.83530143450167      3.36927132229595      0.00410314985360
H   2.47330840367253     -6.74068500242887      0.00027980126949
H   -4.60067436136587      5.51237839860371      0.00002010017831
H   -5.83527902699321     -3.36928859177951     -0.00451481925734
H   -2.47329986759855     -6.74067870613986     -0.00016951527498
H   -7.07385728692578      1.22822084484047     -0.00046143985387
H   -4.60067330624313     -5.51236229778631      0.00021776644566
H   -7.07385645456741     -1.22822025997701     -0.00017736581114

    units angstrom      # Angstroms are the default
    no_reorient         # Geometry fixed, default
    symmetry c1         # C1 symmetry, default
}

set {
    scf_type DF         # Density fitting, faster than exact integrals
    freeze_core True    # Freeze core electrons
    basis jun-cc-pVDZ   # Jun-cc-pVDZ basis set, recommended for sSAPT0 in https://doi.org/10.1063/1.4867135
}

energy('ssapt0')        # Compute sSAPT0 energy, includes also SAPT0
--------------------------------------------------------------------------

  //              Dimer HF             //
    Molecular point group: c1
  Charge       = 1
  Multiplicity = 1
  Basis Set: JUN-CC-PVDZ
    Blend: JUN-CC-PVDZ
  Basis Set: (JUN-CC-PVDZ AUX)
    Blend: JUN-CC-PVDZ-JKFIT
  @DF-RHF Final Energy: -2359.20826621868082
    Total Energy =                      -2359.2082662186803645
 Dipole X            :          0.0038671            0.0006313            0.0044984
 Dipole Y            :         -1.5591330            1.8864948            0.3273618
 Dipole Z            :        -18.2693894           24.9649356            6.6955463
 Magnitude           :                                                    6.7035458
  //            Monomer A HF           //
    Molecular point group: c1
  Multiplicity = 1
  Basis Set: JUN-CC-PVDZ
    Blend: JUN-CC-PVDZ
  Basis Set: (JUN-CC-PVDZ AUX)
    Blend: JUN-CC-PVDZ-JKFIT
  @DF-RHF Final Energy:  -303.29791814013743
    Total Energy =                       -303.2979181401374262
  //            Monomer B HF           //
    Molecular point group: c1

    Geometry (in Angstrom), charge = 0, multiplicity = 1:

       Center              X                  Y                   Z               Mass
    ------------   -----------------  -----------------  -----------------  -----------------
      Gh(C)           0.680066520158    -1.215933861162     4.197513631878    12.000000000000
      Gh(C)          -0.680504479842    -1.215549861162     4.195485631878    12.000000000000
      Gh(N)          -1.085635479842     0.102774138838     4.194487631878    14.003074004430
      Gh(C)           0.000107520158     0.884175138838     4.191211631878    12.000000000000
      Gh(C)          -2.477365479842     0.570753138838     4.145081631878    12.000000000000
      Gh(N)           1.085221520158     0.102774138838     4.194487631878    14.003074004430
      Gh(H)           1.385145520158    -2.033372861162     4.205341631878     1.007825032230
      Gh(H)          -1.385302479842    -2.033218861162     4.195675631878     1.007825032230
      Gh(H)          -0.000009479842     1.965264138838     4.189464631878     1.007825032230
      Gh(C)           2.478116520158     0.567872138838     4.211379631878    12.000000000000
      Gh(H)           2.490591520158     1.658125138838     4.184034631878     1.007825032230
      Gh(H)           2.967027520158     0.220696138838     5.124825631878     1.007825032230
      Gh(H)           3.001427520158     0.176400138838     3.335896631878     1.007825032230
      Gh(H)          -2.857359479842     0.490794138838     3.123010631878     1.007825032230
      Gh(H)          -3.082679479842    -0.042310861162     4.815165631878     1.007825032230
      Gh(H)          -2.518128479842     1.610701138838     4.472065631878     1.007825032230
         C            1.225311895423     0.707533799757    -0.604390740838    12.000000000000
         C            1.225323856051    -0.707543383733    -0.616721550408    12.000000000000
         C           -0.000006153932     1.414961424928    -0.617255173929    12.000000000000
         C            2.456448753949     1.418323398016    -0.601503883438    12.000000000000
         C            0.000010827279    -1.414980987797    -0.607055616604    12.000000000000
         C           -1.225300948908     0.707540884822    -0.602139220515    12.000000000000
         C            2.456437755320    -1.418327793043    -0.618966707265    12.000000000000
         C           -0.000001332978     2.836796542119    -0.619658724063    12.000000000000
         C            3.681826697470     0.709313466839    -0.618617917467    12.000000000000
         C            2.455120048865     2.834219172327    -0.618720474428    12.000000000000
         C            3.681821105219    -0.709338328591    -0.602545433449    12.000000000000
         C           -1.225313598688    -0.707532004706    -0.615648788981    12.000000000000
         C            1.226699581202     3.543464994832    -0.602361401518    12.000000000000
         C            0.000004784858    -2.836786628398    -0.602207448983    12.000000000000
         C           -2.456436032848     1.418312429123    -0.602103824670    12.000000000000
         C            2.455123417779    -2.834234517751    -0.602697341816    12.000000000000
         C           -1.226714364589     3.543464574588    -0.602258068299    12.000000000000
         C            4.914517295202     1.427168383327    -0.612137234438    12.000000000000
         C            3.693150191476     3.542790803383    -0.612087434801    12.000000000000
         C           -2.456437600068    -1.418317770001    -0.618991745390    12.000000000000
         C            1.226704841943    -3.543478731069    -0.618331532268    12.000000000000
         C           -2.455125398508     2.834212173472    -0.618714098082    12.000000000000
         C            4.914524380782    -1.427191399106    -0.609164491703    12.000000000000
         C            1.221424613699     4.970129576098    -0.609026057443    12.000000000000
         C            4.893008229321     2.825183510864    -0.610920566079    12.000000000000
         C           -1.226697008489    -3.543475486239    -0.618064327858    12.000000000000
         C           -3.681818976526     0.709320477570    -0.618605236987    12.000000000000
         C            3.693147101150    -3.542805830553    -0.609046601142    12.000000000000
         C           -1.221432251994     4.970123808701    -0.608842562071    12.000000000000
         C            6.134770972926     0.680543457943    -0.611367459888    12.000000000000
         C            3.656788880610     4.972948754405    -0.611178797019    12.000000000000
         C           -2.455126907733    -2.834219582223    -0.602941699614    12.000000000000
         C           -3.681819179061    -0.709330192631    -0.602427811870    12.000000000000
         C            4.893012617914    -2.825204594794    -0.610309414183    12.000000000000
         C           -0.000001073113     5.650442876870    -0.610073870778    12.000000000000
         C            6.134775112332    -0.680559343237    -0.610102139372    12.000000000000
         C            2.478131482856     5.653572262169    -0.609890017369    12.000000000000
         C            1.221422404738    -4.970131544095    -0.611825554466    12.000000000000
         C           -3.693162383965     3.542792465030    -0.611921927342    12.000000000000
         C           -1.221428520945    -4.970122792758    -0.611938316299    12.000000000000
         C           -4.914521807942     1.427170957833    -0.612060289430    12.000000000000
         C            3.656787019679    -4.972959715401    -0.609728296485    12.000000000000
         C           -2.478138530106     5.653569933366    -0.609605492360    12.000000000000
         C           -3.693141738564    -3.542794708141    -0.609162727298    12.000000000000
         C           -4.914512483053    -1.427185489190    -0.609129794529    12.000000000000
         C           -0.000006008926    -5.650442776176    -0.610469374899    12.000000000000
         C           -4.893020484101     2.825184109757    -0.610930647939    12.000000000000
         C            2.478125993298    -5.653578033051    -0.610818897277    12.000000000000
         C           -3.656798710258     4.972951692879    -0.611002116644    12.000000000000
         C           -4.892999478856    -2.825196256222    -0.610463449881    12.000000000000
         C           -2.478128498083    -5.653570659169    -0.611094084924    12.000000000000
         C           -6.134770503331     0.680544277094    -0.611393011590    12.000000000000
         C           -3.656788833189    -4.972948512133    -0.609942584301    12.000000000000
         C           -6.134765042913    -0.680558404644    -0.610122615167    12.000000000000
         H            5.835288495816     3.369271405792    -0.606561240416     1.007825032230
         H            7.073859172747     1.228212759737    -0.610905816495     1.007825032230
         H            4.600663264174     5.512376313291    -0.610673596267     1.007825032230
         H            5.835283387305    -3.369310545891    -0.614763881498     1.007825032230
         H           -0.000012151306     6.738526184974    -0.614423115785     1.007825032230
         H            7.073861171831    -1.228231431906    -0.610610877466     1.007825032230
         H            2.473313731799     6.740679802232    -0.610356738299     1.007825032230
         H            4.600668491381    -5.512380618338    -0.610138293653     1.007825032230
         H           -2.473318680537     6.740677230444    -0.610055391674     1.007825032230
         H           -0.000010268228    -6.738532665614    -0.605939689914     1.007825032230
         H           -5.835301914343     3.369266461134    -0.606425218268     1.007825032230
         H            2.473307923831    -6.740689863591    -0.610248566852     1.007825032230
         H           -4.600674841208     5.512373537441    -0.610508267943     1.007825032230
         H           -5.835279506835    -3.369293452942    -0.615043187379     1.007825032230
         H           -2.473300347440    -6.740683567302    -0.610697883397     1.007825032230
         H           -7.073857766768     1.228215983678    -0.610989807975     1.007825032230
         H           -4.600673786085    -5.512367158949    -0.610310601676     1.007825032230
         H           -7.073856934409    -1.228225121139    -0.610705733933     1.007825032230

  Charge       = 0
  Multiplicity = 1
  Basis Set: JUN-CC-PVDZ
    Blend: JUN-CC-PVDZ
  Basis Set: (JUN-CC-PVDZ AUX)
    Blend: JUN-CC-PVDZ-JKFIT

    Orbital Energies [Eh]
    ---------------------

    Doubly Occupied:

       1A    -11.260566     2A    -11.260129     3A    -11.260110
       4A    -11.259405     5A    -11.259391     6A    -11.259222
       7A    -11.259004     8A    -11.258932     9A    -11.258920
      10A    -11.258592    11A    -11.258591    12A    -11.258505
      13A    -11.258444    14A    -11.258438    15A    -11.258434
      16A    -11.258406    17A    -11.258397    18A    -11.258379
      19A    -11.258377    20A    -11.258364    21A    -11.258361
      22A    -11.258283    23A    -11.258279    24A    -11.258003
      25A    -11.257313    26A    -11.257261    27A    -11.257241
      28A    -11.257127    29A    -11.257107    30A    -11.257033
      31A    -11.256413    32A    -11.256354    33A    -11.256327
      34A    -11.256241    35A    -11.256218    36A    -11.256181
      37A    -11.252260    38A    -11.252258    39A    -11.252254
      40A    -11.252252    41A    -11.252250    42A    -11.252241
      43A    -11.251365    44A    -11.251361    45A    -11.251359
      46A    -11.251353    47A    -11.251351    48A    -11.251346
      49A    -11.250822    50A    -11.250818    51A    -11.250815
      52A    -11.250813    53A    -11.250810    54A    -11.250802
      55A     -1.243994    56A     -1.219762    57A     -1.219745
      58A     -1.189489    59A     -1.189478    60A     -1.180884
      61A     -1.157512    62A     -1.148926    63A     -1.135442
      64A     -1.135422    65A     -1.113146    66A     -1.113143
      67A     -1.082373    68A     -1.082364    69A     -1.078542
      70A     -1.065938    71A     -1.065931    72A     -1.039343
      73A     -1.024207    74A     -1.021707    75A     -1.021654
      76A     -1.017680    77A     -1.012752    78A     -0.986962
      79A     -0.986913    80A     -0.961832    81A     -0.961780
      82A     -0.894238    83A     -0.894210    84A     -0.887858
      85A     -0.886112    86A     -0.886063    87A     -0.881329
      88A     -0.881280    89A     -0.861846    90A     -0.837370
      91A     -0.818148    92A     -0.816546    93A     -0.812067
      94A     -0.812065    95A     -0.794642    96A     -0.794628
      97A     -0.746544    98A     -0.744792    99A     -0.733347
     100A     -0.733344   101A     -0.732130   102A     -0.732104
     103A     -0.716434   104A     -0.698923   105A     -0.698900
     106A     -0.693530   107A     -0.693500   108A     -0.661179
     109A     -0.653051   110A     -0.651086   111A     -0.650205
     112A     -0.650201   113A     -0.639308   114A     -0.639294
     115A     -0.629649   116A     -0.627455   117A     -0.627443
     118A     -0.606471   119A     -0.605777   120A     -0.601590
     121A     -0.599685   122A     -0.599637   123A     -0.593567
     124A     -0.591149   125A     -0.591125   126A     -0.585236
     127A     -0.576441   128A     -0.576387   129A     -0.567278
     130A     -0.567262   131A     -0.565891   132A     -0.565878
     133A     -0.558657   134A     -0.554796   135A     -0.554791
     136A     -0.538541   137A     -0.538540   138A     -0.538218
     139A     -0.538208   140A     -0.529654   141A     -0.528159
     142A     -0.522819   143A     -0.522800   144A     -0.500452
     145A     -0.495599   146A     -0.493179   147A     -0.487813
     148A     -0.485001   149A     -0.481691   150A     -0.481685
     151A     -0.470338   152A     -0.470315   153A     -0.450940
     154A     -0.450869   155A     -0.439050   156A     -0.439042
     157A     -0.404743   158A     -0.404704   159A     -0.403357
     160A     -0.375402   161A     -0.375396   162A     -0.349111
     163A     -0.337560   164A     -0.336517   165A     -0.336502
     166A     -0.311071   167A     -0.298075   168A     -0.284315
     169A     -0.284265   170A     -0.224886   171A     -0.224825

  @DF-RHF Final Energy: -2055.89416309565195

   => Energetics <=

    Nuclear Repulsion Energy =           6452.5568002797772351
    One-Electron Energy =              -15636.4981128564031678
    Two-Electron Energy =                7128.0471494809735304
    Total Energy =                      -2055.8941630956524023
 Dipole X            :         -0.0001062           -0.0000085           -0.0001147
 Dipole Y            :          0.0032540           -0.0028843            0.0003697
 Dipole Z            :        394.5678453         -394.5775844           -0.0097390
 Magnitude           :                                                    0.0097467

    SAPT Results
  --------------------------------------------------------------------------------------------------------
    Electrostatics                -11.11838182 [mEh]      -6.97688992 [kcal/mol]     -29.19130744 [kJ/mol]
      Elst10,r                    -11.11838182 [mEh]      -6.97688992 [kcal/mol]     -29.19130744 [kJ/mol]

    Exchange                        0.24461687 [mEh]       0.15349940 [kcal/mol]       0.64224150 [kJ/mol]
      Exch10                        0.24461687 [mEh]       0.15349940 [kcal/mol]       0.64224150 [kJ/mol]
      Exch10(S^2)                   0.24461188 [mEh]       0.15349628 [kcal/mol]       0.64222842 [kJ/mol]

    Induction                      -5.31121794 [mEh]      -3.33283958 [kcal/mol]     -13.94460079 [kJ/mol]
      Ind20,r                      -5.15094533 [mEh]      -3.23226699 [kcal/mol]     -13.52380511 [kJ/mol]
      Exch-Ind20,r                  0.04846278 [mEh]       0.03041085 [kcal/mol]       0.12723901 [kJ/mol]
      delta HF,r (2)               -0.20873539 [mEh]      -0.13098343 [kcal/mol]      -0.54803469 [kJ/mol]

    Dispersion                     -7.38006924 [mEh]      -4.63106336 [kcal/mol]     -19.37636911 [kJ/mol]
      Disp20                       -7.42617656 [mEh]      -4.65999615 [kcal/mol]     -19.49742388 [kJ/mol]
      Exch-Disp20                   0.04610733 [mEh]       0.02893278 [kcal/mol]       0.12105477 [kJ/mol]
      Disp20 (SS)                  -3.71308828 [mEh]      -2.32999807 [kcal/mol]      -9.74871194 [kJ/mol]
      Disp20 (OS)                  -3.71308828 [mEh]      -2.32999807 [kcal/mol]      -9.74871194 [kJ/mol]
      Exch-Disp20 (SS)              0.03065793 [mEh]       0.01923814 [kcal/mol]       0.08049238 [kJ/mol]
      Exch-Disp20 (OS)              0.01544940 [mEh]       0.00969464 [kcal/mol]       0.04056239 [kJ/mol]

  Total HF                        -16.18498289 [mEh]     -10.15623010 [kcal/mol]     -42.49366673 [kJ/mol]
  Total SAPT0                     -23.56505213 [mEh]     -14.78729346 [kcal/mol]     -61.87003584 [kJ/mol]

  Special recipe for scaled SAPT0 (see Manual):
    Electrostatics sSAPT0         -11.11838182 [mEh]      -6.97688992 [kcal/mol]     -29.19130744 [kJ/mol]
    Exchange sSAPT0                 0.24461687 [mEh]       0.15349940 [kcal/mol]       0.64224150 [kJ/mol]
    Induction sSAPT0               -5.31121498 [mEh]      -3.33283772 [kcal/mol]     -13.94459301 [kJ/mol]
    Dispersion sSAPT0              -7.38006642 [mEh]      -4.63106159 [kcal/mol]     -19.37636171 [kJ/mol]
  Total sSAPT0                    -23.56504635 [mEh]     -14.78728983 [kcal/mol]     -61.87002066 [kJ/mol]
  --------------------------------------------------------------------------------------------------------

*** Psi4 exiting successfully. Buy a developer a beer!
