                               Psi4 1.9 release

  ==> Input File <==

--------------------------------------------------------------------------
memory 32 GB # how much memory is available ! Depends on the nodes/cores !

molecule dimer {
# monomer A
-1 1    # Charge and multiplicity
B -1.977592e-04  2.742729e-04 -3.199966
F  1.123153e-16  1.430594e-17 -1.787181
F  1.147860e+00  6.757812e-01 -3.671107
F  1.191806e-02 -1.332011e+00 -3.670905
F -1.159666e+00  6.560735e-01 -3.670826
--
# monomer B
0 1     # Charge and multiplicity
C   1.22531237526482      0.70753866091955      0.00613762728373
C   1.22532433589282     -0.70753852257020     -0.00619318228664
C   -0.00000567409046      1.41496628609039     -0.00672680580738
C   2.45644923379077      1.41832825917820      0.00902448468363
C   0.00001130712078     -1.41497612663474      0.00347275151708
C   -1.22530046906674      0.70754574598412      0.00838914760619
C   2.45643823516184     -1.41832293188077     -0.00843833914343
C   -0.00000085313587      2.83680140328112     -0.00913035594137
C   3.68182717731192      0.70931832800114     -0.00808954934571
C   2.45512052870677      2.83422403348893     -0.00819210630633
C   3.68182158506039     -0.70933346742900      0.00798293467272
C   -1.22531311884624     -0.70752714354401     -0.00512042085974
C   1.22670006104402      3.54346985599427      0.00816696660346
C   0.00000526469929     -2.83678176723568      0.00832091913869
C   -2.45643555300670      1.41831729028492      0.00842454345199
C   2.45512389762097     -2.83422965658853      0.00783102630520
C   -1.22671388474763      3.54346943575023      0.00827029982280
C   4.91451777504333      1.42717324448953     -0.00160886631602
C   3.69315067131765      3.54279566454522     -0.00155906667985
C   -2.45643712022637     -1.41831290883911     -0.00846337726810
C   1.22670532178455     -3.54347386990643     -0.00780316414624
C   -2.45512491866593      2.83421703463423     -0.00818572995999
C   4.91452486062398     -1.42718653794377      0.00136387641845
C   1.22142509354026      4.97013443726031      0.00150231067809
C   4.89300870916237      2.82518837202648     -0.00039219795739
C   -1.22669652864725     -3.54347062507680     -0.00753595973677
C   -3.68181849668397      0.70932533873199     -0.00807686886569
C   3.69314758099218     -3.54280096939050      0.00148176697923
C   -1.22143177215231      4.97012866986289      0.00168580605083
C   6.13477145276790      0.68054831910577     -0.00083909176631
C   3.65678936045204      4.97295361556775     -0.00065042889723
C   -2.45512642789169     -2.83421472106065      0.00758666850712
C   -3.68181869921921     -0.70932533146830      0.00810055625144
C   4.89301309775526     -2.82519973363176      0.00021895393805
C   -0.00000059327114      5.65044773803267      0.00045449734393
C   6.13477559217374     -0.68055448207492      0.00042622874941
C   2.47813196269732      5.65357712333155      0.00063835075260
C   1.22142288457925     -4.97012668293268     -0.00129718634452
C   -3.69316190412301      3.54279732619245     -0.00139355922051
C   -1.22142804110313     -4.97011793159564     -0.00140994817719
C   -4.91452132810043      1.42717581899491     -0.00153192130862
C   3.65678749952045     -4.97295485423912      0.00080007163680
C   -2.47813805026426      5.65357479452875      0.00092287576113
C   -3.69314125872231     -3.54278984697859      0.00136564082345
C   -4.91451200321153     -1.42718062802730      0.00139857359209
C   -0.00000552908399     -5.65043791501335      0.00005899322272
C   -4.89302000425900      2.82518897091939     -0.00040227981744
C   2.47812647313991     -5.65357317188818     -0.00029052915548
C   -3.65679823041642      4.97295655404175     -0.00047374852278
C   -4.89299899901461     -2.82519139505969      0.00006491824035
C   -2.47812801824129     -5.65356579800621     -0.00056571680280
C   -6.13477002348955      0.68054913825639     -0.00086464346868
C   -3.65678835334731     -4.97294365097028      0.00058578382008
C   -6.13476456307132     -0.68055354348201      0.00040575295444
H   5.83528897565761      3.36927626695423      0.00396712770529
H   7.07385965258860      1.22821762089947     -0.00037744837300
H   4.60066374401555      5.51238117445323     -0.00014522814529
H   5.83528386714679     -3.36930568472863     -0.00423551337640
H   -0.00001167146422      6.73853104613662     -0.00389474766392
H   7.07386165167227     -1.22822657074368     -0.00008250934481
H   2.47331421164041      6.74068466339473      0.00017162982210
H   4.60066897122302     -5.51237575717576      0.00039007446835
H   -2.47331820069565      6.74068209160650      0.00047297644710
H   -0.00000978838621     -6.73852780445195      0.00458867820736
H   -5.83530143450167      3.36927132229595      0.00410314985360
H   2.47330840367253     -6.74068500242887      0.00027980126949
H   -4.60067436136587      5.51237839860371      0.00002010017831
H   -5.83527902699321     -3.36928859177951     -0.00451481925734
H   -2.47329986759855     -6.74067870613986     -0.00016951527498
H   -7.07385728692578      1.22822084484047     -0.00046143985387
H   -4.60067330624313     -5.51236229778631      0.00021776644566
H   -7.07385645456741     -1.22822025997701     -0.00017736581114

    units angstrom      # Angstroms are the default
    no_reorient         # Geometry fixed, default
    symmetry c1         # C1 symmetry, default
}

set {
    scf_type DF         # Density fitting, faster than exact integrals
    freeze_core True    # Freeze core electrons
    basis jun-cc-pVDZ   # Jun-cc-pVDZ basis set, recommended for sSAPT0 in https://doi.org/10.1063/1.4867135
}

energy('ssapt0')        # Compute sSAPT0 energy, includes also SAPT0
--------------------------------------------------------------------------

  //              Dimer HF             //
    Molecular point group: c1
  Charge       = -1
  Multiplicity = 1
  Basis Set: JUN-CC-PVDZ
    Blend: JUN-CC-PVDZ
  Basis Set: (JUN-CC-PVDZ AUX)
    Blend: JUN-CC-PVDZ-JKFIT
  @DF-RHF Final Energy: -2478.59539855493131
    Total Energy =                      -2478.5953985549313074
 Dipole X            :         -0.0004410            0.0000481           -0.0003929
 Dipole Y            :          0.0008143           -0.0001453            0.0006690
 Dipole Z            :        -15.8637528           19.6172228            3.7534701
 Magnitude           :                                                    3.7534701
  //            Monomer A HF           //
    Molecular point group: c1
  Multiplicity = 1
  Basis Set: JUN-CC-PVDZ
    Blend: JUN-CC-PVDZ
  Basis Set: (JUN-CC-PVDZ AUX)
    Blend: JUN-CC-PVDZ-JKFIT
  @DF-RHF Final Energy:  -422.77432699652638
    Total Energy =                       -422.7743269965263835
  //            Monomer B HF           //
    Molecular point group: c1

    Geometry (in Angstrom), charge = 0, multiplicity = 1:

       Center              X                  Y                   Z               Mass
    ------------   -----------------  -----------------  -----------------  -----------------
      Gh(B)          -0.000198161052     0.000273808717    -2.830300851599    11.009305360000
      Gh(F)          -0.000000401852    -0.000000464183    -1.417515851599    18.998403162730
      Gh(F)           1.147859598148     0.675780735817    -3.301441851599    18.998403162730
      Gh(F)           0.011917658148    -1.332011464183    -3.301239851599    18.998403162730
      Gh(F)          -1.159666401852     0.656073035817    -3.301160851599    18.998403162730
         C            1.225311973413     0.707538196736     0.375802775685    12.000000000000
         C            1.225323934041    -0.707538986754     0.363471966114    12.000000000000
         C           -0.000006075942     1.414965821907     0.362938342594    12.000000000000
         C            2.456448831939     1.418327794995     0.378689633085    12.000000000000
         C            0.000010905269    -1.414976590818     0.373137899918    12.000000000000
         C           -1.225300870919     0.707545281801     0.378054296007    12.000000000000
         C            2.456437833310    -1.418323396064     0.361226809258    12.000000000000
         C           -0.000001254988     2.836800939098     0.360534792460    12.000000000000
         C            3.681826775460     0.709317863818     0.361575599055    12.000000000000
         C            2.455120126855     2.834223569306     0.361473042095    12.000000000000
         C            3.681821183209    -0.709333931612     0.377648083074    12.000000000000
         C           -1.225313520698    -0.707527607727     0.364544727541    12.000000000000
         C            1.226699659192     3.543469391811     0.377832115004    12.000000000000
         C            0.000004862847    -2.836782231419     0.377986067540    12.000000000000
         C           -2.456435954859     1.418316826102     0.378089691853    12.000000000000
         C            2.455123495769    -2.834230120772     0.377496174706    12.000000000000
         C           -1.226714286599     3.543468971567     0.377935448224    12.000000000000
         C            4.914517373191     1.427172780306     0.368056282085    12.000000000000
         C            3.693150269466     3.542795200362     0.368106081721    12.000000000000
         C           -2.456437522078    -1.418313373022     0.361201771133    12.000000000000
         C            1.226704919933    -3.543474334090     0.361861984255    12.000000000000
         C           -2.455125320518     2.834216570451     0.361479418441    12.000000000000
         C            4.914524458772    -1.427187002127     0.371029024819    12.000000000000
         C            1.221424691688     4.970133973077     0.371167459079    12.000000000000
         C            4.893008307311     2.825187907843     0.369272950444    12.000000000000
         C           -1.226696930499    -3.543471089260     0.362129188664    12.000000000000
         C           -3.681818898536     0.709324874549     0.361588279535    12.000000000000
         C            3.693147179140    -3.542801433574     0.371146915380    12.000000000000
         C           -1.221432174004     4.970128205680     0.371350954452    12.000000000000
         C            6.134771050916     0.680547854922     0.368826056635    12.000000000000
         C            3.656788958600     4.972953151384     0.369014719504    12.000000000000
         C           -2.455126829744    -2.834215185244     0.377251816908    12.000000000000
         C           -3.681819101071    -0.709325795652     0.377765704652    12.000000000000
         C            4.893012695903    -2.825200197815     0.369884102339    12.000000000000
         C           -0.000000995123     5.650447273849     0.370119645745    12.000000000000
         C            6.134775190322    -0.680554946258     0.370091377150    12.000000000000
         C            2.478131560845     5.653576659148     0.370303499154    12.000000000000
         C            1.221422482727    -4.970127147116     0.368367962056    12.000000000000
         C           -3.693162305975     3.542796862009     0.368271589180    12.000000000000
         C           -1.221428442955    -4.970118395779     0.368255200224    12.000000000000
         C           -4.914521729952     1.427175354812     0.368133227092    12.000000000000
         C            3.656787097669    -4.972955318422     0.370465220038    12.000000000000
         C           -2.478138452116     5.653574330345     0.370588024162    12.000000000000
         C           -3.693141660574    -3.542790311162     0.371030789224    12.000000000000
         C           -4.914512405063    -1.427181092211     0.371063721993    12.000000000000
         C           -0.000005930936    -5.650438379197     0.369724141624    12.000000000000
         C           -4.893020406111     2.825188506736     0.369262868584    12.000000000000
         C            2.478126071288    -5.653573636072     0.369374619245    12.000000000000
         C           -3.656798632268     4.972956089858     0.369191399878    12.000000000000
         C           -4.892999400866    -2.825191859243     0.369730066641    12.000000000000
         C           -2.478128420093    -5.653566262190     0.369099431598    12.000000000000
         C           -6.134770425341     0.680548674073     0.368800504932    12.000000000000
         C           -3.656788755199    -4.972944115154     0.370250932221    12.000000000000
         C           -6.134764964923    -0.680554007665     0.370070901355    12.000000000000
         H            5.835288573806     3.369275802771     0.373632276106     1.007825032230
         H            7.073859250737     1.228217156716     0.369287700028     1.007825032230
         H            4.600663342164     5.512380710270     0.369519920256     1.007825032230
         H            5.835283465295    -3.369306148912     0.365429635025     1.007825032230
         H           -0.000012073316     6.738530581953     0.365770400737     1.007825032230
         H            7.073861249820    -1.228227034927     0.369582639056     1.007825032230
         H            2.473313809789     6.740684199211     0.369836778223     1.007825032230
         H            4.600668569371    -5.512376221359     0.370055222869     1.007825032230
         H           -2.473318602548     6.740681627423     0.370138124848     1.007825032230
         H           -0.000010190238    -6.738528268635     0.374253826608     1.007825032230
         H           -5.835301836354     3.369270858113     0.373768298255     1.007825032230
         H            2.473308001821    -6.740685466612     0.369944949670     1.007825032230
         H           -4.600674763218     5.512377934420     0.369685248579     1.007825032230
         H           -5.835279428845    -3.369289055963     0.365150329144     1.007825032230
         H           -2.473300269450    -6.740679170323     0.369495633126     1.007825032230
         H           -7.073857688778     1.228220380657     0.369203708547     1.007825032230
         H           -4.600673708095    -5.512362761970     0.369882914847     1.007825032230
         H           -7.073856856419    -1.228220724160     0.369487782590     1.007825032230

  Charge       = 0
  Multiplicity = 1
  Basis Set: JUN-CC-PVDZ
    Blend: JUN-CC-PVDZ
  Basis Set: (JUN-CC-PVDZ AUX)
    Blend: JUN-CC-PVDZ-JKFIT

    Orbital Energies [Eh]
    ---------------------

    Doubly Occupied:

       1A    -11.260783     2A    -11.260320     3A    -11.260317
       4A    -11.259505     5A    -11.259504     6A    -11.259279
       7A    -11.259007     8A    -11.258942     9A    -11.258941
      10A    -11.258655    11A    -11.258652    12A    -11.258502
      13A    -11.258462    14A    -11.258452    15A    -11.258446
      16A    -11.258409    17A    -11.258403    18A    -11.258385
      19A    -11.258383    20A    -11.258379    21A    -11.258373
      22A    -11.258332    23A    -11.258327    24A    -11.258149
      25A    -11.257280    26A    -11.257220    27A    -11.257219
      28A    -11.257087    29A    -11.257087    30A    -11.257005
      31A    -11.256371    32A    -11.256302    33A    -11.256301
      34A    -11.256194    35A    -11.256194    36A    -11.256148
      37A    -11.252270    38A    -11.252270    39A    -11.252268
      40A    -11.252267    41A    -11.252265    42A    -11.252263
      43A    -11.251371    44A    -11.251370    45A    -11.251370
      46A    -11.251355    47A    -11.251353    48A    -11.251350
      49A    -11.250832    50A    -11.250831    51A    -11.250830
      52A    -11.250827    53A    -11.250826    54A    -11.250824
      55A     -1.243995    56A     -1.219760    57A     -1.219760
      58A     -1.189503    59A     -1.189496    60A     -1.180897
      61A     -1.157534    62A     -1.148945    63A     -1.135432
      64A     -1.135425    65A     -1.113168    66A     -1.113163
      67A     -1.082374    68A     -1.082367    69A     -1.078563
      70A     -1.065961    71A     -1.065957    72A     -1.039359
      73A     -1.024205    74A     -1.021707    75A     -1.021663
      76A     -1.017708    77A     -1.012779    78A     -0.986969
      79A     -0.986923    80A     -0.961853    81A     -0.961803
      82A     -0.894259    83A     -0.894232    84A     -0.887883
      85A     -0.886116    86A     -0.886059    87A     -0.881349
      88A     -0.881301    89A     -0.861863    90A     -0.837400
      91A     -0.818173    92A     -0.816546    93A     -0.812088
      94A     -0.812079    95A     -0.794661    96A     -0.794650
      97A     -0.746578    98A     -0.744802    99A     -0.733356
     100A     -0.733347   101A     -0.732152   102A     -0.732129
     103A     -0.716459   104A     -0.698940   105A     -0.698929
     106A     -0.693544   107A     -0.693529   108A     -0.661199
     109A     -0.653036   110A     -0.651086   111A     -0.650230
     112A     -0.650224   113A     -0.639332   114A     -0.639329
     115A     -0.629676   116A     -0.627473   117A     -0.627458
     118A     -0.606473   119A     -0.605802   120A     -0.601609
     121A     -0.599697   122A     -0.599666   123A     -0.593597
     124A     -0.591148   125A     -0.591137   126A     -0.585266
     127A     -0.576374   128A     -0.576368   129A     -0.567305
     130A     -0.567291   131A     -0.565900   132A     -0.565881
     133A     -0.558661   134A     -0.554813   135A     -0.554806
     136A     -0.538567   137A     -0.538565   138A     -0.538159
     139A     -0.538152   140A     -0.529685   141A     -0.528196
     142A     -0.522836   143A     -0.522830   144A     -0.500476
     145A     -0.495580   146A     -0.493205   147A     -0.487818
     148A     -0.485029   149A     -0.481715   150A     -0.481707
     151A     -0.470380   152A     -0.470362   153A     -0.450953
     154A     -0.450874   155A     -0.439052   156A     -0.439043
     157A     -0.404700   158A     -0.404677   159A     -0.403359
     160A     -0.375419   161A     -0.375416   162A     -0.349096
     163A     -0.337532   164A     -0.336564   165A     -0.336505
     166A     -0.311049   167A     -0.298111   168A     -0.284295
     169A     -0.284242   170A     -0.224876   171A     -0.224810

  @DF-RHF Final Energy: -2055.89414770654457

   => Energetics <=

    Nuclear Repulsion Energy =           6452.5568002797772351
    One-Electron Energy =              -15636.4930013976427290
    Two-Electron Energy =                7128.0420534113209214
    Total Energy =                      -2055.8941477065445724
 Dipole X            :          0.0000205            0.0000419            0.0000624
 Dipole Y            :          0.0000606           -0.0000426            0.0000181
 Dipole Z            :       -238.9081775          238.9080909           -0.0000865
 Magnitude           :                                                    0.0001082

    SAPT Results
  --------------------------------------------------------------------------------------------------------
    Electrostatics                -47.44568505 [mEh]     -29.77261686 [kcal/mol]    -124.56862893 [kJ/mol]
      Elst10,r                    -47.44568505 [mEh]     -29.77261686 [kcal/mol]    -124.56862893 [kJ/mol]

    Exchange                      147.87638008 [mEh]      92.79382945 [kcal/mol]     388.24938240 [kJ/mol]
      Exch10                      147.87638008 [mEh]      92.79382945 [kcal/mol]     388.24938240 [kJ/mol]
      Exch10(S^2)                 145.66032825 [mEh]      91.40323593 [kcal/mol]     382.43113912 [kJ/mol]

    Induction                     -27.35454689 [mEh]     -17.16523732 [kcal/mol]     -71.81935296 [kJ/mol]
      Ind20,r                     -81.78072430 [mEh]     -51.31817927 [kcal/mol]    -214.71526207 [kJ/mol]
      Exch-Ind20,r                 56.69549698 [mEh]      35.57696147 [kcal/mol]     148.85400680 [kJ/mol]
      delta HF,r (2)               -2.26931956 [mEh]      -1.42401952 [kcal/mol]      -5.95809769 [kJ/mol]

    Dispersion                    -26.90234405 [mEh]     -16.88147576 [kcal/mol]     -70.63209457 [kJ/mol]
      Disp20                      -37.96342242 [mEh]     -23.82240723 [kcal/mol]     -99.67295183 [kJ/mol]
      Exch-Disp20                  11.06107837 [mEh]       6.94093147 [kcal/mol]      29.04085726 [kJ/mol]
      Disp20 (SS)                 -18.98171121 [mEh]     -11.91120361 [kcal/mol]     -49.83647592 [kJ/mol]
      Disp20 (OS)                 -18.98171121 [mEh]     -11.91120361 [kcal/mol]     -49.83647592 [kJ/mol]
      Exch-Disp20 (SS)              5.87285501 [mEh]       3.68527216 [kcal/mol]      15.41917871 [kJ/mol]
      Exch-Disp20 (OS)              5.18822336 [mEh]       3.25565931 [kcal/mol]      13.62167855 [kJ/mol]

  Total HF                         73.07614814 [mEh]      45.85597526 [kcal/mol]     191.86140051 [kJ/mol]
  Total SAPT0                      46.17380409 [mEh]      28.97449951 [kcal/mol]     121.22930594 [kJ/mol]

  Special recipe for scaled SAPT0 (see Manual):
    Electrostatics sSAPT0         -47.44568505 [mEh]     -29.77261686 [kcal/mol]    -124.56862893 [kJ/mol]
    Exchange sSAPT0               147.87638008 [mEh]      92.79382945 [kcal/mol]     388.24938240 [kJ/mol]
    Induction sSAPT0              -24.72731153 [mEh]     -15.51662224 [kcal/mol]     -64.92154747 [kJ/mol]
    Dispersion sSAPT0             -26.38978030 [mEh]     -16.55983715 [kcal/mol]     -69.28635864 [kJ/mol]
  Total sSAPT0                     49.31360320 [mEh]      30.94475319 [kcal/mol]     129.47284736 [kJ/mol]
  --------------------------------------------------------------------------------------------------------

*** Psi4 exiting successfully. Buy a developer a beer!
