                               Psi4 1.9 release

  ==> Input File <==

--------------------------------------------------------------------------
memory 32 GB # how much memory is available ! Depends on the nodes/cores !

molecule dimer {
# monomer A
+1 1    # Charge and multiplicity
C  0.680067 1.417258 -5.615929
C -0.680504 1.419286 -5.615545
N -1.085635 1.420284 -4.297221
C  0.000108 1.423560 -3.515820
C -2.477365 1.469690 -3.829242
N  1.085222 1.420284 -4.297221
H  1.385146 1.409430 -6.433368
H -1.385302 1.419096 -6.433214
H -0.000009 1.425307 -2.434731
C  2.478117 1.403392 -3.832123
H  2.490592 1.430737 -2.741870
H  2.967028 0.489946 -4.179299
H  3.001428 2.278875 -4.223595
H -2.857359 2.491761 -3.909201
H -3.082679 0.799606 -4.442306
H -2.518128 1.142706 -2.789294
--
# monomer B
0 1     # Charge and multiplicity
C   1.22531237526482      0.70753866091955      0.00613762728373
C   1.22532433589282     -0.70753852257020     -0.00619318228664
C   -0.00000567409046      1.41496628609039     -0.00672680580738
C   2.45644923379077      1.41832825917820      0.00902448468363
C   0.00001130712078     -1.41497612663474      0.00347275151708
C   -1.22530046906674      0.70754574598412      0.00838914760619
C   2.45643823516184     -1.41832293188077     -0.00843833914343
C   -0.00000085313587      2.83680140328112     -0.00913035594137
C   3.68182717731192      0.70931832800114     -0.00808954934571
C   2.45512052870677      2.83422403348893     -0.00819210630633
C   3.68182158506039     -0.70933346742900      0.00798293467272
C   -1.22531311884624     -0.70752714354401     -0.00512042085974
C   1.22670006104402      3.54346985599427      0.00816696660346
C   0.00000526469929     -2.83678176723568      0.00832091913869
C   -2.45643555300670      1.41831729028492      0.00842454345199
C   2.45512389762097     -2.83422965658853      0.00783102630520
C   -1.22671388474763      3.54346943575023      0.00827029982280
C   4.91451777504333      1.42717324448953     -0.00160886631602
C   3.69315067131765      3.54279566454522     -0.00155906667985
C   -2.45643712022637     -1.41831290883911     -0.00846337726810
C   1.22670532178455     -3.54347386990643     -0.00780316414624
C   -2.45512491866593      2.83421703463423     -0.00818572995999
C   4.91452486062398     -1.42718653794377      0.00136387641845
C   1.22142509354026      4.97013443726031      0.00150231067809
C   4.89300870916237      2.82518837202648     -0.00039219795739
C   -1.22669652864725     -3.54347062507680     -0.00753595973677
C   -3.68181849668397      0.70932533873199     -0.00807686886569
C   3.69314758099218     -3.54280096939050      0.00148176697923
C   -1.22143177215231      4.97012866986289      0.00168580605083
C   6.13477145276790      0.68054831910577     -0.00083909176631
C   3.65678936045204      4.97295361556775     -0.00065042889723
C   -2.45512642789169     -2.83421472106065      0.00758666850712
C   -3.68181869921921     -0.70932533146830      0.00810055625144
C   4.89301309775526     -2.82519973363176      0.00021895393805
C   -0.00000059327114      5.65044773803267      0.00045449734393
C   6.13477559217374     -0.68055448207492      0.00042622874941
C   2.47813196269732      5.65357712333155      0.00063835075260
C   1.22142288457925     -4.97012668293268     -0.00129718634452
C   -3.69316190412301      3.54279732619245     -0.00139355922051
C   -1.22142804110313     -4.97011793159564     -0.00140994817719
C   -4.91452132810043      1.42717581899491     -0.00153192130862
C   3.65678749952045     -4.97295485423912      0.00080007163680
C   -2.47813805026426      5.65357479452875      0.00092287576113
C   -3.69314125872231     -3.54278984697859      0.00136564082345
C   -4.91451200321153     -1.42718062802730      0.00139857359209
C   -0.00000552908399     -5.65043791501335      0.00005899322272
C   -4.89302000425900      2.82518897091939     -0.00040227981744
C   2.47812647313991     -5.65357317188818     -0.00029052915548
C   -3.65679823041642      4.97295655404175     -0.00047374852278
C   -4.89299899901461     -2.82519139505969      0.00006491824035
C   -2.47812801824129     -5.65356579800621     -0.00056571680280
C   -6.13477002348955      0.68054913825639     -0.00086464346868
C   -3.65678835334731     -4.97294365097028      0.00058578382008
C   -6.13476456307132     -0.68055354348201      0.00040575295444
H   5.83528897565761      3.36927626695423      0.00396712770529
H   7.07385965258860      1.22821762089947     -0.00037744837300
H   4.60066374401555      5.51238117445323     -0.00014522814529
H   5.83528386714679     -3.36930568472863     -0.00423551337640
H   -0.00001167146422      6.73853104613662     -0.00389474766392
H   7.07386165167227     -1.22822657074368     -0.00008250934481
H   2.47331421164041      6.74068466339473      0.00017162982210
H   4.60066897122302     -5.51237575717576      0.00039007446835
H   -2.47331820069565      6.74068209160650      0.00047297644710
H   -0.00000978838621     -6.73852780445195      0.00458867820736
H   -5.83530143450167      3.36927132229595      0.00410314985360
H   2.47330840367253     -6.74068500242887      0.00027980126949
H   -4.60067436136587      5.51237839860371      0.00002010017831
H   -5.83527902699321     -3.36928859177951     -0.00451481925734
H   -2.47329986759855     -6.74067870613986     -0.00016951527498
H   -7.07385728692578      1.22822084484047     -0.00046143985387
H   -4.60067330624313     -5.51236229778631      0.00021776644566
H   -7.07385645456741     -1.22822025997701     -0.00017736581114

    units angstrom      # Angstroms are the default
    no_reorient         # Geometry fixed, default
    symmetry c1         # C1 symmetry, default
}

set {
    scf_type DF         # Density fitting, faster than exact integrals
    freeze_core True    # Freeze core electrons
    basis jun-cc-pVDZ   # Jun-cc-pVDZ basis set, recommended for sSAPT0 in https://doi.org/10.1063/1.4867135
}

energy('ssapt0')        # Compute sSAPT0 energy, includes also SAPT0
--------------------------------------------------------------------------

  //              Dimer HF             //
    Molecular point group: c1
  Charge       = 1
  Multiplicity = 1
  Basis Set: JUN-CC-PVDZ
    Blend: JUN-CC-PVDZ
  Basis Set: (JUN-CC-PVDZ AUX)
    Blend: JUN-CC-PVDZ-JKFIT
  @DF-RHF Final Energy: -2359.21181125567364
    Total Energy =                      -2359.2118112556727283
 Dipole X            :         -0.0018370            0.0006313           -0.0012057
 Dipole Y            :         -6.0718406            7.4856329            1.4137923
 Dipole Z            :         15.8647198          -21.0489981           -5.1842783
 Magnitude           :                                                    5.3735977
  //            Monomer A HF           //
    Molecular point group: c1
  Multiplicity = 1
  Basis Set: JUN-CC-PVDZ
    Blend: JUN-CC-PVDZ
  Basis Set: (JUN-CC-PVDZ AUX)
    Blend: JUN-CC-PVDZ-JKFIT
  @DF-RHF Final Energy:  -303.29813648180618
    Total Energy =                       -303.2981364818061820
  //            Monomer B HF           //
    Molecular point group: c1

    Geometry (in Angstrom), charge = 0, multiplicity = 1:

       Center              X                  Y                   Z               Mass
    ------------   -----------------  -----------------  -----------------  -----------------
      Gh(C)           0.680066520158     1.235968212970    -5.056278267174    12.000000000000
      Gh(C)          -0.680504479842     1.237996212970    -5.055894267174    12.000000000000
      Gh(N)          -1.085635479842     1.238994212970    -3.737570267174    14.003074004430
      Gh(C)           0.000107520158     1.242270212970    -2.956169267174    12.000000000000
      Gh(C)          -2.477365479842     1.288400212970    -3.269591267174    12.000000000000
      Gh(N)           1.085221520158     1.238994212970    -3.737570267174    14.003074004430
      Gh(H)           1.385145520158     1.228140212970    -5.873717267174     1.007825032230
      Gh(H)          -1.385302479842     1.237806212970    -5.873563267174     1.007825032230
      Gh(H)          -0.000009479842     1.244017212970    -1.875080267174     1.007825032230
      Gh(C)           2.478116520158     1.222102212970    -3.272472267174    12.000000000000
      Gh(H)           2.490591520158     1.249447212970    -2.182219267174     1.007825032230
      Gh(H)           2.967027520158     0.308656212970    -3.619648267174     1.007825032230
      Gh(H)           3.001427520158     2.097585212970    -3.663944267174     1.007825032230
      Gh(H)          -2.857359479842     2.310471212970    -3.349550267174     1.007825032230
      Gh(H)          -3.082679479842     0.618316212970    -3.882655267174     1.007825032230
      Gh(H)          -2.518128479842     0.961416212970    -2.229643267174     1.007825032230
         C            1.225311895423     0.526248873889     0.565788360110    12.000000000000
         C            1.225323856051    -0.888828309601     0.553457550540    12.000000000000
         C           -0.000006153932     1.233676499060     0.552923927019    12.000000000000
         C            2.456448753949     1.237038472148     0.568675217510    12.000000000000
         C            0.000010827279    -1.596265913665     0.563123484343    12.000000000000
         C           -1.225300948908     0.526255958954     0.568039880433    12.000000000000
         C            2.456437755320    -1.599612718911     0.551212393683    12.000000000000
         C           -0.000001332978     2.655511616251     0.550520376885    12.000000000000
         C            3.681826697470     0.528028540971     0.551561183481    12.000000000000
         C            2.455120048865     2.652934246459     0.551458626520    12.000000000000
         C            3.681821105219    -0.890623254459     0.567633667499    12.000000000000
         C           -1.225313598688    -0.888816930574     0.554530311967    12.000000000000
         C            1.226699581202     3.362180068964     0.567817699430    12.000000000000
         C            0.000004784858    -3.018071554266     0.567971651965    12.000000000000
         C           -2.456436032848     1.237027503255     0.568075276278    12.000000000000
         C            2.455123417779    -3.015519443619     0.567481759132    12.000000000000
         C           -1.226714364589     3.362179648720     0.567921032649    12.000000000000
         C            4.914517295202     1.245883457459     0.558041866510    12.000000000000
         C            3.693150191476     3.361505877515     0.558091666147    12.000000000000
         C           -2.456437600068    -1.599602695869     0.551187355558    12.000000000000
         C            1.226704841943    -3.724763656937     0.551847568680    12.000000000000
         C           -2.455125398508     2.652927247604     0.551465002866    12.000000000000
         C            4.914524380782    -1.608476324974     0.561014609245    12.000000000000
         C            1.221424613699     4.788844650230     0.561153043504    12.000000000000
         C            4.893008229321     2.643898584996     0.559258534869    12.000000000000
         C           -1.226697008489    -3.724760412107     0.552114773090    12.000000000000
         C           -3.681818976526     0.528035551702     0.551573863961    12.000000000000
         C            3.693147101150    -3.724090756421     0.561132499806    12.000000000000
         C           -1.221432251994     4.788838882833     0.561336538877    12.000000000000
         C            6.134770972926     0.499258532075     0.558811641060    12.000000000000
         C            3.656788880610     4.791663828537     0.559000303929    12.000000000000
         C           -2.455126907733    -3.015504508091     0.567237401334    12.000000000000
         C           -3.681819179061    -0.890615118499     0.567751289078    12.000000000000
         C            4.893012617914    -3.006489520662     0.559869686764    12.000000000000
         C           -0.000001073113     5.469157951002     0.560105230170    12.000000000000
         C            6.134775112332    -0.861844269105     0.560076961576    12.000000000000
         C            2.478131482856     5.472287336301     0.560289083579    12.000000000000
         C            1.221422404738    -5.151416469963     0.558353546482    12.000000000000
         C           -3.693162383965     3.361507539162     0.558257173606    12.000000000000
         C           -1.221428520945    -5.151407718626     0.558240784649    12.000000000000
         C           -4.914521807942     1.245886031965     0.558118811518    12.000000000000
         C            3.656787019679    -5.154244641269     0.560450804463    12.000000000000
         C           -2.478138530106     5.472285007498     0.560573608588    12.000000000000
         C           -3.693141738564    -3.724079634009     0.561016373650    12.000000000000
         C           -4.914512483053    -1.608470415058     0.561049306418    12.000000000000
         C           -0.000006008926    -5.831727702044     0.559709726049    12.000000000000
         C           -4.893020484101     2.643899183889     0.559248453009    12.000000000000
         C            2.478125993298    -5.834862958919     0.559360203671    12.000000000000
         C           -3.656798710258     4.791666767011     0.559176984304    12.000000000000
         C           -4.892999478856    -3.006481182090     0.559715651067    12.000000000000
         C           -2.478128498083    -5.834855585037     0.559085016024    12.000000000000
         C           -6.134770503331     0.499259351226     0.558786089358    12.000000000000
         C           -3.656788833189    -5.154233438001     0.560236516646    12.000000000000
         C           -6.134765042913    -0.861843330512     0.560056485781    12.000000000000
         H            5.835288495816     3.187986479924     0.563617860532     1.007825032230
         H            7.073859172747     1.046927833869     0.559273284453     1.007825032230
         H            4.600663264174     5.331091387423     0.559505504681     1.007825032230
         H            5.835283387305    -3.550595471759     0.555415219450     1.007825032230
         H           -0.000012151306     6.557241259106     0.555755985162     1.007825032230
         H            7.073861171831    -1.409516357774     0.559568223482     1.007825032230
         H            2.473313731799     6.559394876364     0.559822362649     1.007825032230
         H            4.600668491381    -5.693665544206     0.560040807295     1.007825032230
         H           -2.473318680537     6.559392304576     0.560123709274     1.007825032230
         H           -0.000010268228    -6.919817591482     0.564239411034     1.007825032230
         H           -5.835301914343     3.187981535266     0.563753882680     1.007825032230
         H            2.473307923831    -6.921974789459     0.559930534096     1.007825032230
         H           -4.600674841208     5.331088611573     0.559670833005     1.007825032230
         H           -5.835279506835    -3.550578378810     0.555135913569     1.007825032230
         H           -2.473300347440    -6.921968493170     0.559481217551     1.007825032230
         H           -7.073857766768     1.046931057810     0.559189292973     1.007825032230
         H           -4.600673786085    -5.693652084817     0.559868499272     1.007825032230
         H           -7.073856934409    -1.409510047007     0.559473367015     1.007825032230

  Charge       = 0
  Multiplicity = 1
  Basis Set: JUN-CC-PVDZ
    Blend: JUN-CC-PVDZ
  Basis Set: (JUN-CC-PVDZ AUX)
    Blend: JUN-CC-PVDZ-JKFIT

    Orbital Energies [Eh]
    ---------------------

    Doubly Occupied:

       1A    -11.260581     2A    -11.260114     3A    -11.260099
       4A    -11.259422     5A    -11.259386     6A    -11.259198
       7A    -11.259013     8A    -11.258932     9A    -11.258886
      10A    -11.258588    11A    -11.258559    12A    -11.258484
      13A    -11.258424    14A    -11.258419    15A    -11.258413
      16A    -11.258382    17A    -11.258377    18A    -11.258362
      19A    -11.258357    20A    -11.258347    21A    -11.258334
      22A    -11.258277    23A    -11.258255    24A    -11.257975
      25A    -11.257292    26A    -11.257240    27A    -11.257212
      28A    -11.257103    29A    -11.257090    30A    -11.257004
      31A    -11.256389    32A    -11.256326    33A    -11.256306
      34A    -11.256211    35A    -11.256208    36A    -11.256141
      37A    -11.252240    38A    -11.252236    39A    -11.252203
      40A    -11.252198    41A    -11.252190    42A    -11.252187
      43A    -11.251349    44A    -11.251345    45A    -11.251333
      46A    -11.251322    47A    -11.251319    48A    -11.251293
      49A    -11.250801    50A    -11.250797    51A    -11.250764
      52A    -11.250759    53A    -11.250752    54A    -11.250748
      55A     -1.243937    56A     -1.219702    57A     -1.219688
      58A     -1.189432    59A     -1.189418    60A     -1.180818
      61A     -1.157450    62A     -1.148869    63A     -1.135378
      64A     -1.135355    65A     -1.113087    66A     -1.113081
      67A     -1.082310    68A     -1.082302    69A     -1.078478
      70A     -1.065877    71A     -1.065870    72A     -1.039282
      73A     -1.024146    74A     -1.021640    75A     -1.021585
      76A     -1.017618    77A     -1.012693    78A     -0.986904
      79A     -0.986848    80A     -0.961770    81A     -0.961718
      82A     -0.894173    83A     -0.894152    84A     -0.887795
      85A     -0.886043    86A     -0.885999    87A     -0.881264
      88A     -0.881219    89A     -0.861785    90A     -0.837306
      91A     -0.818088    92A     -0.816482    93A     -0.812003
      94A     -0.812001    95A     -0.794577    96A     -0.794565
      97A     -0.746486    98A     -0.744726    99A     -0.733286
     100A     -0.733277   101A     -0.732066   102A     -0.732044
     103A     -0.716368   104A     -0.698860   105A     -0.698832
     106A     -0.693469   107A     -0.693433   108A     -0.661116
     109A     -0.652982   110A     -0.651024   111A     -0.650141
     112A     -0.650132   113A     -0.639248   114A     -0.639230
     115A     -0.629586   116A     -0.627389   117A     -0.627380
     118A     -0.606413   119A     -0.605714   120A     -0.601524
     121A     -0.599629   122A     -0.599570   123A     -0.593498
     124A     -0.591083   125A     -0.591055   126A     -0.585176
     127A     -0.576446   128A     -0.576342   129A     -0.567216
     130A     -0.567194   131A     -0.565824   132A     -0.565812
     133A     -0.558590   134A     -0.554734   135A     -0.554728
     136A     -0.538478   137A     -0.538475   138A     -0.538194
     139A     -0.538176   140A     -0.529590   141A     -0.528133
     142A     -0.522757   143A     -0.522731   144A     -0.500389
     145A     -0.495573   146A     -0.493118   147A     -0.487803
     148A     -0.484937   149A     -0.481623   150A     -0.481622
     151A     -0.470296   152A     -0.470285   153A     -0.450873
     154A     -0.450804   155A     -0.439023   156A     -0.439007
     157A     -0.404697   158A     -0.404675   159A     -0.403306
     160A     -0.375365   161A     -0.375362   162A     -0.349062
     163A     -0.337543   164A     -0.336480   165A     -0.336431
     166A     -0.311039   167A     -0.298036   168A     -0.284281
     169A     -0.284225   170A     -0.224843   171A     -0.224784

  @DF-RHF Final Energy: -2055.89489715144964

   => Energetics <=

    Nuclear Repulsion Energy =           6452.5568002797781446
    One-Electron Energy =              -15636.5155572980365832
    Two-Electron Energy =                7128.0638598668101622
    Total Energy =                      -2055.8948971514491859
 Dipole X            :         -0.0000540           -0.0000085           -0.0000625
 Dipole Y            :        117.1722170         -117.1648546            0.0073625
 Dipole Z            :       -361.6895236          361.6931780            0.0036544
 Magnitude           :                                                    0.0082197

    SAPT Results
  --------------------------------------------------------------------------------------------------------
    Electrostatics                -15.93443680 [mEh]      -9.99901005 [kcal/mol]     -41.83585805 [kJ/mol]
      Elst10,r                    -15.93443680 [mEh]      -9.99901005 [kcal/mol]     -41.83585805 [kJ/mol]

    Exchange                       12.16781838 [mEh]       7.63542131 [kcal/mol]      31.94660276 [kJ/mol]
      Exch10                       12.16781838 [mEh]       7.63542131 [kcal/mol]      31.94660276 [kJ/mol]
      Exch10(S^2)                  12.12251896 [mEh]       7.60699549 [kcal/mol]      31.82766914 [kJ/mol]

    Induction                     -15.01100400 [mEh]      -9.41954722 [kcal/mol]     -39.41138557 [kJ/mol]
      Ind20,r                     -15.33943567 [mEh]      -9.62564121 [kcal/mol]     -40.27368282 [kJ/mol]
      Exch-Ind20,r                  3.14552010 [mEh]       1.97384366 [kcal/mol]       8.25856189 [kJ/mol]
      delta HF,r (2)               -2.81708843 [mEh]      -1.76774968 [kcal/mol]      -7.39626464 [kJ/mol]

    Dispersion                    -18.67095308 [mEh]     -11.71619994 [kcal/mol]     -49.02058056 [kJ/mol]
      Disp20                      -19.68130771 [mEh]     -12.35020704 [kcal/mol]     -51.67326627 [kJ/mol]
      Exch-Disp20                   1.01035463 [mEh]       0.63400710 [kcal/mol]       2.65268571 [kJ/mol]
      Disp20 (SS)                  -9.84065385 [mEh]      -6.17510352 [kcal/mol]     -25.83663313 [kJ/mol]
      Disp20 (OS)                  -9.84065385 [mEh]      -6.17510352 [kcal/mol]     -25.83663313 [kJ/mol]
      Exch-Disp20 (SS)              0.62011250 [mEh]       0.38912647 [kcal/mol]       1.62810515 [kJ/mol]
      Exch-Disp20 (OS)              0.39024213 [mEh]       0.24488063 [kcal/mol]       1.02458056 [kJ/mol]

  Total HF                        -18.77762242 [mEh]     -11.78313596 [kcal/mol]     -49.30064087 [kJ/mol]
  Total SAPT0                     -37.44857550 [mEh]     -23.49933590 [kcal/mol]     -98.32122142 [kJ/mol]

  Special recipe for scaled SAPT0 (see Manual):
    Electrostatics sSAPT0         -15.93443680 [mEh]      -9.99901005 [kcal/mol]     -41.83585805 [kJ/mol]
    Exchange sSAPT0                12.16781838 [mEh]       7.63542131 [kcal/mol]      31.94660276 [kJ/mol]
    Induction sSAPT0              -14.97560953 [mEh]      -9.39733686 [kcal/mol]     -39.31845741 [kJ/mol]
    Dispersion sSAPT0             -18.65958422 [mEh]     -11.70906588 [kcal/mol]     -48.99073163 [kJ/mol]
  Total sSAPT0                    -37.40181218 [mEh]     -23.46999148 [kcal/mol]     -98.19844434 [kJ/mol]
  --------------------------------------------------------------------------------------------------------

*** Psi4 exiting successfully. Buy a developer a beer!
