                               Psi4 1.9 release

  ==> Input File <==

--------------------------------------------------------------------------
memory 64 GB # how much memory is available ! Depends on the nodes/cores !

molecule dimer {
# monomer A
+1 1    # Charge and multiplicity
C  0.680067 1.417258  -9.615929
C -0.680504 1.419286  -9.615545
N -1.085635 1.420284  -8.297221
C  0.000108 1.423560  -7.515820
C -2.477365 1.469690  -7.829242
N  1.085222 1.420284  -8.297221
H  1.385146 1.409430 -10.433368
H -1.385302 1.419096 -10.433214
H -0.000009 1.425307  -6.434731
C  2.478117 1.403392  -7.832123
H  2.490592 1.430737  -6.741870
H  2.967028 0.489946  -8.179299
H  3.001428 2.278875  -8.223595
H -2.857359 2.491761  -7.909201
H -3.082679 0.799606  -8.442306
H -2.518128 1.142706  -6.789294
--
# monomer B
0 1     # Charge and multiplicity
C   -3.66844126402057      7.80375217008252      0.00190004133558
C   -4.84759871934653      7.13124183134024     -0.00046653359696
C   -4.89495929917518      5.69633040353158     -0.00103944469517
C   -3.65374067877320      4.98073034095895      0.00662099703436
C   -2.40942512149445      7.11398103667468      0.00209438359570
C   -2.42547734410473      5.68112195090346     -0.00491050527438
C   -1.19474401643570      7.78614419430947      0.00356656413763
C   0.03795902893699      7.09942164575698      0.00139585983271
C   0.03033258741920      5.66948955970466     -0.00408752508301
C   -1.20098450790502      4.96927034791531      0.00488220885047
C   1.27795782581485      7.77285944319479      0.00277170839332
C   2.48535808472416      7.08769688523756      0.00049722048857
C   2.48612868491717      5.65477081024076     -0.00644052849921
C   1.25408291964399      4.95607811366431      0.00518741308898
C   3.75171459140595      7.76391215098033      0.00062407186893
C   4.92356605618520      7.07878077698995     -0.00143240883900
C   4.95560727132542      5.64344746336949     -0.00159282164606
C   3.70680153420475      4.94121020833308      0.00349873852374
H   -3.65852113775815      8.89082741913536      0.00358502958574
H   -1.18921332975660      8.87412108735996      0.00753844057883
H   1.28429423888630      8.86083343548850      0.00693053253426
H   3.75354208679975      8.85103527897216      0.00214659618464
H   5.86995870320703      7.61379483465560     -0.00235777588134
H   -5.78823170750226      7.67630221293400     -0.00202638095293
C   -6.09197395869619      4.99326001364347     -0.00291168518608
C   -6.12866148031747      3.58258016879823     -0.00171050815740
C   -3.66457974004527      3.56418217974434     -0.00463560277484
C   -4.89429820469869      2.86108077590057      0.00453338221034
C   -2.43733499489796      2.84761165708481      0.00719617576166
C   -1.20922785759670      3.54788693497833     -0.00648285103018
C   1.24714157216223      3.53468075142962     -0.00729145743546
C   0.01517603956900      2.83311183930540      0.00439272578912
C   2.46764517244071      2.82128997725533      0.00449278391269
C   3.70254947457969      3.52466015442405     -0.00899517692985
C   6.14498038638375      4.92757236613191     -0.00282626685777
C   6.16658835886151      3.51658447594213     -0.00065971342101
C   4.92460995845939      2.80840792535402      0.00587903281610
H   7.08990550964105      5.46688776622306     -0.00658814770723
H   -7.03104175110130      5.54268795285765     -0.00714490013730
C   -7.33969804112295      2.85841153457957     -0.00333767559888
C   -7.36488195805880      1.47032337158330     -0.00157213747140
C   -4.90350460894690      1.44442681216000     -0.00628840166334
C   -6.13225715261081      0.73993935705394      0.00600164231964
C   -3.67687480051673      0.72669714267312      0.00433931473643
C   -2.44565658606518      1.42964113326212     -0.00597039546461
C   -1.22360068130162      0.71532450163492      0.00545886906656
C   0.00763786931376      1.41738314923765      0.00392452278437
C   1.23121980774686      0.70211669058719     -0.01490206287210
C   2.46082110053113      1.40329203612573      0.00460244601878
C   3.68443025419614      0.68719842821222      0.00377365974158
C   4.91870890153864      1.39173456118907     -0.00862816189375
C   7.36980207796101      2.77948220318441     -0.00242013321349
C   7.38016266612146      1.39121750785509     -0.00087345036788
C   6.13979953912259      0.67411862320065      0.00545489144369
H   -8.27919079934664      3.40711804112415     -0.00763522772059
H   8.31511347147953      3.31811809662368     -0.00663070901292
C   -8.59175593758115      0.72483255304480     -0.00123170985383
C   -8.59902460370342     -0.63263980622873      0.00089141472904
C   -6.13981313911873     -0.67413663715361     -0.00609792660607
C   -7.38018411213749     -1.39126618958160      0.00131813493501
C   -4.91868448025621     -1.39175501803000      0.00624257154343
C   -3.68443829568458     -0.68723731573599     -0.00478966852105
C   -2.46081704024768     -1.40334517882457      0.00575341766833
C   -1.23116201232071     -0.70217386488055     -0.00636696112346
C   -0.00756962538737     -1.41741884941102      0.00108956317991
C   1.22364771588843     -0.71527537726392      0.01109518512883
C   2.44567064933149     -1.42964328900682     -0.00065482763106
C   3.67686670284649     -0.72670743155550     -0.00479541202602
C   6.13224884641929     -0.73997883984993     -0.00632338623858
C   4.90351914550401     -1.44445752054090      0.00751768830159
C   8.59901484869081      0.63260386666793     -0.00101133422380
C   8.59174548810050     -0.72485086719319      0.00072504603735
C   7.36486276438985     -1.47033266560598      0.00049486934466
H   -9.52830597181814      1.27684744919284     -0.00270163681798
H   9.54141097460619      1.17457248844457     -0.00206336648518
C   -7.36983790976868     -2.77954514593389      0.00312634335708
C   -4.92459910905015     -2.80843725734101     -0.00460528907921
C   -6.16662249566744     -3.51665219282533      0.00169655107992
C   -3.70251035970491     -3.52468154912026      0.00571878010666
C   -2.46764698511392     -2.82132596280400     -0.00632585824990
C   -0.01513347410770     -2.83314164539971     -0.00604426974092
C   -1.24712184122656     -3.53473217556300      0.00551968366725
C   1.20924506964357     -3.54791467864352      0.00805871345849
C   2.43733602215464     -2.84764173817541     -0.00608104485234
C   4.89430234377080     -2.86112296828604     -0.00526030478103
C   3.66461525504104     -3.56421984553201      0.00761911515957
C   6.12863901474565     -3.58258405771778      0.00096495711699
C   7.33967266469532     -2.85841330737039      0.00248018319869
H   -9.54144911125902     -1.17456346666430      0.00226083090216
H   9.52826186807155     -1.27691907390448      0.00197485379837
H   -8.31516504384864     -3.31814985321231      0.00729857188773
H   8.27915514249207     -3.40714078989363      0.00681973918158
C   -6.14499418870218     -4.92764727278338      0.00302254913999
C   -3.70678334799751     -4.94126171411716     -0.00679841894792
C   -4.95559005800169     -5.64349397349412      0.00116871569699
C   -2.48612132622665     -5.65478557440947      0.00614125209662
C   -1.25405833548005     -4.95612205000132     -0.00503435388927
C   1.20101257386816     -4.96928038819302     -0.00385322963129
C   -0.03033667441341     -5.66952030313900      0.00398997003238
C   3.65375010132847     -4.98074377541453     -0.00309522988330
C   2.42549269587528     -5.68117463552727      0.00628170066869
C   6.09196561781097     -4.99325796338655      0.00325918379042
C   4.89497644461045     -5.69634842095790      0.00202298796027
H   -7.08989238804069     -5.46699984223871      0.00742531082125
H   7.03105520920009     -5.54265853633254      0.00683896355417
C   -4.92354532219813     -7.07882109967734      0.00061394679214
C   -2.48534208823777     -7.08772807792913     -0.00189594564379
C   -3.75168589177895     -7.76394715763627     -0.00170126671874
C   -0.03794895698805     -7.09946487446944     -0.00168022049625
C   -1.27795610040136     -7.77290438466689     -0.00366491325785
C   2.40944432072629     -7.11402201200282     -0.00081701968533
C   1.19474993715296     -7.78618536556242     -0.00296931056689
C   4.84762105249800     -7.13126211057943      0.00168979497423
C   3.66847160587561     -7.80378799294376     -0.00065863938960
H   -5.86994035041618     -7.61383059804164      0.00215798365757
H   5.78824962538815     -7.67633218931421      0.00281691445618
H   -3.75352693944918     -8.85107156923607     -0.00353718114765
H   -1.28430440589466     -8.86087539249706     -0.00809229711623
H   1.18922157469537     -8.87416062058945     -0.00706194725726
H   3.65854661482387     -8.89086063405326     -0.00231318081200

    units angstrom      # Angstroms are the default
    no_reorient         # Geometry fixed, default
    symmetry c1         # C1 symmetry, default
}

set {
    scf_type DF         # Density fitting, faster than exact integrals
    freeze_core True    # Freeze core electrons
    basis jun-cc-pVDZ   # Jun-cc-pVDZ basis set, recommended for sSAPT0 in https://doi.org/10.1063/1.4867135
}

energy('ssapt0')        # Compute sSAPT0 energy, includes also SAPT0
--------------------------------------------------------------------------

  //              Dimer HF             //
    Molecular point group: c1
  Charge       = 1
  Multiplicity = 1
  Basis Set: JUN-CC-PVDZ
    Blend: JUN-CC-PVDZ
  Basis Set: (JUN-CC-PVDZ AUX)
    Blend: JUN-CC-PVDZ-JKFIT
  @DF-RHF Final Energy: -3953.64367282579951
    Total Energy =                      -3953.6436728257976938
 Dipole X            :         -0.0021666            0.0004804           -0.0016861
 Dipole Y            :         -6.7287330            8.7122315            1.9834985
 Dipole Z            :         35.8158571          -49.1286726          -13.3128155
 Magnitude           :                                                   13.4597669
  //            Monomer A HF           //
    Molecular point group: c1
  Multiplicity = 1
  Basis Set: JUN-CC-PVDZ
    Blend: JUN-CC-PVDZ
  Basis Set: (JUN-CC-PVDZ AUX)
    Blend: JUN-CC-PVDZ-JKFIT
  @DF-RHF Final Energy:  -303.29718838169879
    Total Energy =                       -303.2971883816987884
  //            Monomer B HF           //
    Molecular point group: c1

    Geometry (in Angstrom), charge = 0, multiplicity = 1:

       Center              X                  Y                   Z               Mass
    ------------   -----------------  -----------------  -----------------  -----------------
      Gh(C)           0.680062820275     1.308604348936    -8.975499662879    12.000000000000
      Gh(C)          -0.680508179725     1.310632348936    -8.975115662879    12.000000000000
      Gh(N)          -1.085639179725     1.311630348936    -7.656791662879    14.003074004430
      Gh(C)           0.000103820275     1.314906348936    -6.875390662879    12.000000000000
      Gh(C)          -2.477369179725     1.361036348936    -7.188812662879    12.000000000000
      Gh(N)           1.085217820275     1.311630348936    -7.656791662879    14.003074004430
      Gh(H)           1.385141820275     1.300776348936    -9.792938662879     1.007825032230
      Gh(H)          -1.385306179725     1.310442348936    -9.792784662879     1.007825032230
      Gh(H)          -0.000013179725     1.316653348936    -5.794301662879     1.007825032230
      Gh(C)           2.478112820275     1.294738348936    -7.191693662879    12.000000000000
      Gh(H)           2.490587820275     1.322083348936    -6.101440662879     1.007825032230
      Gh(H)           2.967023820275     0.381292348936    -7.538869662879     1.007825032230
      Gh(H)           3.001423820275     2.170221348936    -7.583165662879     1.007825032230
      Gh(H)          -2.857363179725     2.383107348936    -7.268771662879     1.007825032230
      Gh(H)          -3.082683179725     0.690952348936    -7.801876662879     1.007825032230
      Gh(H)          -2.518132179725     1.034052348936    -6.148864662879     1.007825032230
         C           -3.668445443746     7.695098519018     0.642329378456    12.000000000000
         C           -4.847602899072     7.022588180276     0.639962803524    12.000000000000
         C           -4.894963478901     5.587676752467     0.639389892425    12.000000000000
         C           -3.653744858499     4.872076689895     0.647050334155    12.000000000000
         C           -2.409429301220     7.005327385610     0.642523720716    12.000000000000
         C           -2.425481523830     5.572468299839     0.635518831846    12.000000000000
         C           -1.194748196161     7.677490543245     0.643995901258    12.000000000000
         C            0.037954849212     6.990767994693     0.641825196953    12.000000000000
         C            0.030328407694     5.560835908640     0.636341812037    12.000000000000
         C           -1.200988687630     4.860616696851     0.645311545971    12.000000000000
         C            1.277953646089     7.664205792130     0.643201045514    12.000000000000
         C            2.485353904999     6.979043234173     0.640926557609    12.000000000000
         C            2.486124505192     5.546117159176     0.633988808621    12.000000000000
         C            1.254078739919     4.847424462600     0.645616750209    12.000000000000
         C            3.751710411681     7.655258499916     0.641053408989    12.000000000000
         C            4.923561876460     6.970127125926     0.638996928282    12.000000000000
         C            4.955603091600     5.534793812305     0.638836515474    12.000000000000
         C            3.706797354479     4.832556557269     0.643928075644    12.000000000000
         H           -3.658525317484     8.782173768071     0.644014366706     1.007825032230
         H           -1.189217509482     8.765467436296     0.647967777699     1.007825032230
         H            1.284290059161     8.752179784424     0.647359869655     1.007825032230
         H            3.753537907074     8.742381627908     0.642575933305     1.007825032230
         H            5.869954523482     7.505141183591     0.638071561239     1.007825032230
         H           -5.788235887228     7.567648561870     0.638402956168     1.007825032230
         C           -6.091978138422     4.884606362579     0.637517651934    12.000000000000
         C           -6.128665660043     3.473926517734     0.638718828963    12.000000000000
         C           -3.664583919771     3.455528528680     0.635793734346    12.000000000000
         C           -4.894302384424     2.752427124836     0.644962719331    12.000000000000
         C           -2.437339174623     2.738958006020     0.647625512882    12.000000000000
         C           -1.209232037322     3.439233283914     0.633946486090    12.000000000000
         C            1.247137392437     3.426027100365     0.633137879685    12.000000000000
         C            0.015171859844     2.724458188241     0.644822062910    12.000000000000
         C            2.467640992715     2.712636326191     0.644922121033    12.000000000000
         C            3.702545294854     3.416006503360     0.631434160191    12.000000000000
         C            6.144976206658     4.818918715067     0.637603070263    12.000000000000
         C            6.166584179136     3.407930824878     0.639769623699    12.000000000000
         C            4.924605778734     2.699754274290     0.646308369937    12.000000000000
         H            7.089901329916     5.358234115159     0.633841189413     1.007825032230
         H           -7.031045930827     5.434034301793     0.633284436983     1.007825032230
         C           -7.339702220848     2.749757883515     0.637091661522    12.000000000000
         C           -7.364886137784     1.361669720519     0.638857199649    12.000000000000
         C           -4.903508788672     1.335773161096     0.634140935457    12.000000000000
         C           -6.132261332336     0.631285705989     0.646430979440    12.000000000000
         C           -3.676878980242     0.618043491609     0.644768651857    12.000000000000
         C           -2.445660765791     1.320987482198     0.634458941656    12.000000000000
         C           -1.223604861027     0.606670850570     0.645888206187    12.000000000000
         C            0.007633689588     1.308729498173     0.644353859905    12.000000000000
         C            1.231215628021     0.593463039523     0.625527274248    12.000000000000
         C            2.460816920806     1.294638385061     0.645031783139    12.000000000000
         C            3.684426074471     0.578544777148     0.644202996862    12.000000000000
         C            4.918704721813     1.283080910125     0.631801175227    12.000000000000
         C            7.369797898236     2.670828552120     0.638009203907    12.000000000000
         C            7.380158486396     1.282563856791     0.639555886753    12.000000000000
         C            6.139795359397     0.565464972136     0.645884228564    12.000000000000
         H           -8.279194979072     3.298464390060     0.632794109400     1.007825032230
         H            8.315109291754     3.209464445559     0.633798628108     1.007825032230
         C           -8.591760117307     0.616178901980     0.639197627267    12.000000000000
         C           -8.599028783429    -0.741293457293     0.641320751850    12.000000000000
         C           -6.139817318844    -0.782790288218     0.634331410514    12.000000000000
         C           -7.380188291863    -1.499919840646     0.641747472056    12.000000000000
         C           -4.918688659982    -1.500408669094     0.646671908664    12.000000000000
         C           -3.684442475410    -0.795890966800     0.635639668599    12.000000000000
         C           -2.460821219973    -1.511998829889     0.646182754789    12.000000000000
         C           -1.231166192046    -0.810827515945     0.634062375997    12.000000000000
         C           -0.007573805113    -1.526072500475     0.641518900300    12.000000000000
         C            1.223643536163    -0.823929028328     0.651524522249    12.000000000000
         C            2.445666469606    -1.538296940071     0.639774509489    12.000000000000
         C            3.676862523121    -0.835361082620     0.635633925094    12.000000000000
         C            6.132244666694    -0.848632490914     0.634105950882    12.000000000000
         C            4.903514965779    -1.553111171605     0.647947025422    12.000000000000
         C            8.599010668965     0.523950215603     0.639418002897    12.000000000000
         C            8.591741308375    -0.833504518258     0.641154383158    12.000000000000
         C            7.364858584664    -1.578986316670     0.640924206465    12.000000000000
         H           -9.528310151544     1.168193798128     0.637727700303     1.007825032230
         H            9.541406794881     1.065918837380     0.638365970635     1.007825032230
         C           -7.369842089494    -2.888198796998     0.643555680478    12.000000000000
         C           -4.924603288776    -2.917090908405     0.635824048041    12.000000000000
         C           -6.166626675393    -3.625305843890     0.642125888200    12.000000000000
         C           -3.702514539430    -3.633335200185     0.646148117227    12.000000000000
         C           -2.467651164839    -2.929979613868     0.634103478871    12.000000000000
         C           -0.015137653833    -2.941795296464     0.634385067380    12.000000000000
         C           -1.247126020952    -3.643385826627     0.645949020788    12.000000000000
         C            1.209240889918    -3.656568329708     0.648488050579    12.000000000000
         C            2.437331842429    -2.956295389240     0.634348292268    12.000000000000
         C            4.894298164045    -2.969776619350     0.635169032339    12.000000000000
         C            3.664611075316    -3.672873496596     0.648048452280    12.000000000000
         C            6.128634835020    -3.691237708782     0.641394294237    12.000000000000
         C            7.339668484970    -2.967066958435     0.642909520319    12.000000000000
         H           -9.541453290984    -1.283217117729     0.642690168023     1.007825032230
         H            9.528257688346    -1.385572724969     0.642404190919     1.007825032230
         H           -8.315169223574    -3.426803504277     0.647727909008     1.007825032230
         H            8.279150962767    -3.515794440958     0.647249076302     1.007825032230
         C           -6.144998368428    -5.036300923848     0.643451886260    12.000000000000
         C           -3.706787527723    -5.049915365182     0.633630918173    12.000000000000
         C           -4.955594237727    -5.752147624559     0.641598052817    12.000000000000
         C           -2.486125505952    -5.763439225474     0.646570589217    12.000000000000
         C           -1.254062515205    -5.064775701066     0.635394983231    12.000000000000
         C            1.201008394143    -5.077934039257     0.636576107489    12.000000000000
         C           -0.030340854139    -5.778173954203     0.644419307153    12.000000000000
         C            3.653745921603    -5.089397426479     0.637334107237    12.000000000000
         C            2.425488516150    -5.789828286592     0.646711037789    12.000000000000
         C            6.091961438086    -5.101911614451     0.643688520911    12.000000000000
         C            4.894972264885    -5.805002072022     0.642452325081    12.000000000000
         H           -7.089896567766    -5.575653493303     0.647854647942     1.007825032230
         H            7.031051029475    -5.651312187397     0.647268300675     1.007825032230
         C           -4.923549501924    -7.187474750742     0.641043283913    12.000000000000
         C           -2.485346267963    -7.196381728994     0.638533391477    12.000000000000
         C           -3.751690071504    -7.872600808701     0.638728070402    12.000000000000
         C           -0.037953136713    -7.208118525534     0.638749116624    12.000000000000
         C           -1.277960280127    -7.881558035731     0.636764423863    12.000000000000
         C            2.409440141001    -7.222675663067     0.639612317435    12.000000000000
         C            1.194745757428    -7.894839016627     0.637460026554    12.000000000000
         C            4.847616872773    -7.239915761644     0.642119132095    12.000000000000
         C            3.668467426150    -7.912441644008     0.639770697731    12.000000000000
         H           -5.869944530142    -7.722484249106     0.642587320778     1.007825032230
         H            5.788245445663    -7.784985840379     0.643246251577     1.007825032230
         H           -3.753531119175    -8.959725220301     0.636892155973     1.007825032230
         H           -1.284308585620    -8.969529043562     0.632337040004     1.007825032230
         H            1.189217394970    -8.982814271654     0.633367389863     1.007825032230
         H            3.658542435098    -8.999514285118     0.638116156309     1.007825032230

  Charge       = 0
  Multiplicity = 1
  Basis Set: JUN-CC-PVDZ
    Blend: JUN-CC-PVDZ
  Basis Set: (JUN-CC-PVDZ AUX)
    Blend: JUN-CC-PVDZ-JKFIT

    Orbital Energies [Eh]
    ---------------------

    Doubly Occupied:

       1A    -11.264058     2A    -11.263744     3A    -11.263741
       4A    -11.263401     5A    -11.263399     6A    -11.263364
       7A    -11.263207     8A    -11.263180     9A    -11.263177
      10A    -11.263021    11A    -11.262861    12A    -11.262856
      13A    -11.262378    14A    -11.262375    15A    -11.262301
      16A    -11.262300    17A    -11.262250    18A    -11.262214
      19A    -11.262169    20A    -11.262131    21A    -11.262129
      22A    -11.261974    23A    -11.261970    24A    -11.261851
      25A    -11.261836    26A    -11.261822    27A    -11.261818
      28A    -11.261771    29A    -11.261763    30A    -11.261691
      31A    -11.261664    32A    -11.261661    33A    -11.261635
      34A    -11.261634    35A    -11.261613    36A    -11.261566
      37A    -11.261425    38A    -11.261414    39A    -11.261408
      40A    -11.261400    41A    -11.261396    42A    -11.261387
      43A    -11.261383    44A    -11.261369    45A    -11.261364
      46A    -11.261341    47A    -11.261338    48A    -11.261333
      49A    -11.261181    50A    -11.261150    51A    -11.261148
      52A    -11.261068    53A    -11.261067    54A    -11.260996
      55A    -11.260027    56A    -11.260013    57A    -11.260011
      58A    -11.259982    59A    -11.259980    60A    -11.259964
      61A    -11.259405    62A    -11.259379    63A    -11.259377
      64A    -11.259325    65A    -11.259323    66A    -11.259294
      67A    -11.259031    68A    -11.259013    69A    -11.259012
      70A    -11.258984    71A    -11.258982    72A    -11.258970
      73A    -11.254598    74A    -11.254596    75A    -11.254595
      76A    -11.254593    77A    -11.254587    78A    -11.254585
      79A    -11.253750    80A    -11.253748    81A    -11.253746
      82A    -11.253745    83A    -11.253742    84A    -11.253736
      85A    -11.253666    86A    -11.253664    87A    -11.253661
      88A    -11.253660    89A    -11.253658    90A    -11.253652
      91A    -11.253126    92A    -11.253124    93A    -11.253123
      94A    -11.253121    95A    -11.253115    96A    -11.253113
      97A     -1.254155    98A     -1.239157    99A     -1.239156
     100A     -1.220598   101A     -1.220594   102A     -1.215628
     103A     -1.201158   104A     -1.195728   105A     -1.188317
     106A     -1.188316   107A     -1.173877   108A     -1.173874
     109A     -1.155790   110A     -1.155786   111A     -1.152897
     112A     -1.144831   113A     -1.144828   114A     -1.128712
     115A     -1.114871   116A     -1.113273   117A     -1.112657
     118A     -1.112643   119A     -1.111720   120A     -1.088573
     121A     -1.088558   122A     -1.077068   123A     -1.077067
     124A     -1.067768   125A     -1.067738   126A     -1.065140
     127A     -1.046932   128A     -1.046924   129A     -1.040621
     130A     -1.038841   131A     -1.038840   132A     -1.025407
     133A     -1.021581   134A     -1.021531   135A     -1.007303
     136A     -1.006948   137A     -1.003922   138A     -1.000649
     139A     -1.000601   140A     -0.991176   141A     -0.971137
     142A     -0.971088   143A     -0.956002   144A     -0.955947
     145A     -0.905779   146A     -0.905737   147A     -0.905648
     148A     -0.905607   149A     -0.904537   150A     -0.892550
     151A     -0.892491   152A     -0.890534   153A     -0.890476
     154A     -0.889607   155A     -0.872331   156A     -0.869143
     157A     -0.851661   158A     -0.848028   159A     -0.848006
     160A     -0.845765   161A     -0.843168   162A     -0.834696
     163A     -0.834684   164A     -0.828223   165A     -0.828219
     166A     -0.784687   167A     -0.784676   168A     -0.783815
     169A     -0.783788   170A     -0.782433   171A     -0.782413
     172A     -0.782199   173A     -0.767121   174A     -0.760972
     175A     -0.750747   176A     -0.733596   177A     -0.727203
     178A     -0.727190   179A     -0.725229   180A     -0.724670
     181A     -0.724652   182A     -0.718676   183A     -0.713937
     184A     -0.713931   185A     -0.699706   186A     -0.699694
     187A     -0.686309   188A     -0.686071   189A     -0.686068
     190A     -0.682294   191A     -0.682284   192A     -0.678931
     193A     -0.653759   194A     -0.651007   195A     -0.650978
     196A     -0.649984   197A     -0.649968   198A     -0.649678
     199A     -0.641103   200A     -0.641077   201A     -0.640203
     202A     -0.639267   203A     -0.636175   204A     -0.636149
     205A     -0.629275   206A     -0.617665   207A     -0.615412
     208A     -0.615392   209A     -0.608925   210A     -0.608919
     211A     -0.599190   212A     -0.599148   213A     -0.598884
     214A     -0.598759   215A     -0.598732   216A     -0.598213
     217A     -0.595179   218A     -0.595167   219A     -0.594853
     220A     -0.594418   221A     -0.592101   222A     -0.592098
     223A     -0.587574   224A     -0.577884   225A     -0.577874
     226A     -0.575738   227A     -0.575735   228A     -0.573500
     229A     -0.569569   230A     -0.568311   231A     -0.568287
     232A     -0.566890   233A     -0.566880   234A     -0.561004
     235A     -0.558869   236A     -0.558850   237A     -0.558521
     238A     -0.554501   239A     -0.550634   240A     -0.547563
     241A     -0.544344   242A     -0.535041   243A     -0.535002
     244A     -0.533664   245A     -0.533641   246A     -0.528189
     247A     -0.528174   248A     -0.527971   249A     -0.517330
     250A     -0.517296   251A     -0.515429   252A     -0.515424
     253A     -0.509752   254A     -0.509736   255A     -0.498147
     256A     -0.496580   257A     -0.496554   258A     -0.493848
     259A     -0.493838   260A     -0.489481   261A     -0.481560
     262A     -0.477492   263A     -0.477489   264A     -0.474113
     265A     -0.469583   266A     -0.466661   267A     -0.466656
     268A     -0.458881   269A     -0.446875   270A     -0.446814
     271A     -0.441106   272A     -0.440830   273A     -0.440807
     274A     -0.434760   275A     -0.433977   276A     -0.407454
     277A     -0.407430   278A     -0.386491   279A     -0.386443
     280A     -0.385802   281A     -0.385801   282A     -0.383835
     283A     -0.354405   284A     -0.354388   285A     -0.350743
     286A     -0.338176   287A     -0.335676   288A     -0.335607
     289A     -0.332784   290A     -0.332778   291A     -0.307170
     292A     -0.302033   293A     -0.301971   294A     -0.300918
     295A     -0.286247   296A     -0.256531   297A     -0.253584
     298A     -0.253532   299A     -0.204341   300A     -0.204253

  @DF-RHF Final Energy: -3650.33755425039135

   => Energetics <=

    Nuclear Repulsion Energy =          15611.4211649754306563
    One-Electron Energy =              -36072.0734987562245806
    Two-Electron Energy =               16810.3147795304030296
    Total Energy =                      -3650.3375542503927136
 Dipole X            :         -0.0009244            0.0002112           -0.0007133
 Dipole Y            :        123.2128849         -123.2131634           -0.0002785
 Dipole Z            :       -726.1437203          726.1450218            0.0013015
 Magnitude           :                                                    0.0015101

    SAPT Results
  --------------------------------------------------------------------------------------------------------
    Electrostatics                 -6.84584458 [mEh]      -4.29583233 [kcal/mol]     -17.97376247 [kJ/mol]
      Elst10,r                     -6.84584458 [mEh]      -4.29583233 [kcal/mol]     -17.97376247 [kJ/mol]

    Exchange                       -0.00013989 [mEh]      -0.00008778 [kcal/mol]      -0.00036728 [kJ/mol]
      Exch10                       -0.00013989 [mEh]      -0.00008778 [kcal/mol]      -0.00036728 [kJ/mol]
      Exch10(S^2)                  -0.00013989 [mEh]      -0.00008778 [kcal/mol]      -0.00036728 [kJ/mol]

    Induction                      -2.08420924 [mEh]      -1.30786104 [kcal/mol]      -5.47209060 [kJ/mol]
      Ind20,r                      -2.05942451 [mEh]      -1.29230839 [kcal/mol]      -5.40701831 [kJ/mol]
      Exch-Ind20,r                  0.00006432 [mEh]       0.00004036 [kcal/mol]       0.00016887 [kJ/mol]
      delta HF,r (2)               -0.02484905 [mEh]      -0.01559301 [kcal/mol]      -0.06524116 [kJ/mol]

    Dispersion                     -0.76025130 [mEh]      -0.47706489 [kcal/mol]      -1.99603952 [kJ/mol]
      Disp20                       -0.76027730 [mEh]      -0.47708121 [kcal/mol]      -1.99610778 [kJ/mol]
      Exch-Disp20                   0.00002600 [mEh]       0.00001631 [kcal/mol]       0.00006826 [kJ/mol]
      Disp20 (SS)                  -0.38013865 [mEh]      -0.23854060 [kcal/mol]      -0.99805389 [kJ/mol]
      Disp20 (OS)                  -0.38013865 [mEh]      -0.23854060 [kcal/mol]      -0.99805389 [kJ/mol]
      Exch-Disp20 (SS)              0.00001892 [mEh]       0.00001187 [kcal/mol]       0.00004968 [kJ/mol]
      Exch-Disp20 (OS)              0.00000708 [mEh]       0.00000444 [kcal/mol]       0.00001858 [kJ/mol]

  Total HF                         -8.93019371 [mEh]      -5.60378116 [kcal/mol]     -23.44622035 [kJ/mol]
  Total SAPT0                      -9.69044501 [mEh]      -6.08084605 [kcal/mol]     -25.44225987 [kJ/mol]

  Special recipe for scaled SAPT0 (see Manual):
    Electrostatics sSAPT0          -6.84584458 [mEh]      -4.29583233 [kcal/mol]     -17.97376247 [kJ/mol]
    Exchange sSAPT0                -0.00013989 [mEh]      -0.00008778 [kcal/mol]      -0.00036728 [kJ/mol]
    Induction sSAPT0               -2.08420924 [mEh]      -1.30786104 [kcal/mol]      -5.47209060 [kJ/mol]
    Dispersion sSAPT0              -0.76025130 [mEh]      -0.47706489 [kcal/mol]      -1.99603952 [kJ/mol]
  Total sSAPT0                     -9.69044501 [mEh]      -6.08084605 [kcal/mol]     -25.44225987 [kJ/mol]
  --------------------------------------------------------------------------------------------------------

*** Psi4 exiting successfully. Buy a developer a beer!
