                               Psi4 1.9 release

  ==> Input File <==

--------------------------------------------------------------------------
memory 64 GB # how much memory is available ! Depends on the nodes/cores !

molecule dimer {
# monomer A
-1 1    # Charge and multiplicity
B -0.000046  0.000337 2.199994
F -1.153597  0.000048 3.015641
F  1.153661 -0.000581 3.015641
F -0.000019 -1.153637 1.384360
F -0.000019  1.153978 1.384360
--
# monomer B
0 1     # Charge and multiplicity
C   -3.66844126402057      7.80375217008252      0.00190004133558
C   -4.84759871934653      7.13124183134024     -0.00046653359696
C   -4.89495929917518      5.69633040353158     -0.00103944469517
C   -3.65374067877320      4.98073034095895      0.00662099703436
C   -2.40942512149445      7.11398103667468      0.00209438359570
C   -2.42547734410473      5.68112195090346     -0.00491050527438
C   -1.19474401643570      7.78614419430947      0.00356656413763
C   0.03795902893699      7.09942164575698      0.00139585983271
C   0.03033258741920      5.66948955970466     -0.00408752508301
C   -1.20098450790502      4.96927034791531      0.00488220885047
C   1.27795782581485      7.77285944319479      0.00277170839332
C   2.48535808472416      7.08769688523756      0.00049722048857
C   2.48612868491717      5.65477081024076     -0.00644052849921
C   1.25408291964399      4.95607811366431      0.00518741308898
C   3.75171459140595      7.76391215098033      0.00062407186893
C   4.92356605618520      7.07878077698995     -0.00143240883900
C   4.95560727132542      5.64344746336949     -0.00159282164606
C   3.70680153420475      4.94121020833308      0.00349873852374
H   -3.65852113775815      8.89082741913536      0.00358502958574
H   -1.18921332975660      8.87412108735996      0.00753844057883
H   1.28429423888630      8.86083343548850      0.00693053253426
H   3.75354208679975      8.85103527897216      0.00214659618464
H   5.86995870320703      7.61379483465560     -0.00235777588134
H   -5.78823170750226      7.67630221293400     -0.00202638095293
C   -6.09197395869619      4.99326001364347     -0.00291168518608
C   -6.12866148031747      3.58258016879823     -0.00171050815740
C   -3.66457974004527      3.56418217974434     -0.00463560277484
C   -4.89429820469869      2.86108077590057      0.00453338221034
C   -2.43733499489796      2.84761165708481      0.00719617576166
C   -1.20922785759670      3.54788693497833     -0.00648285103018
C   1.24714157216223      3.53468075142962     -0.00729145743546
C   0.01517603956900      2.83311183930540      0.00439272578912
C   2.46764517244071      2.82128997725533      0.00449278391269
C   3.70254947457969      3.52466015442405     -0.00899517692985
C   6.14498038638375      4.92757236613191     -0.00282626685777
C   6.16658835886151      3.51658447594213     -0.00065971342101
C   4.92460995845939      2.80840792535402      0.00587903281610
H   7.08990550964105      5.46688776622306     -0.00658814770723
H   -7.03104175110130      5.54268795285765     -0.00714490013730
C   -7.33969804112295      2.85841153457957     -0.00333767559888
C   -7.36488195805880      1.47032337158330     -0.00157213747140
C   -4.90350460894690      1.44442681216000     -0.00628840166334
C   -6.13225715261081      0.73993935705394      0.00600164231964
C   -3.67687480051673      0.72669714267312      0.00433931473643
C   -2.44565658606518      1.42964113326212     -0.00597039546461
C   -1.22360068130162      0.71532450163492      0.00545886906656
C   0.00763786931376      1.41738314923765      0.00392452278437
C   1.23121980774686      0.70211669058719     -0.01490206287210
C   2.46082110053113      1.40329203612573      0.00460244601878
C   3.68443025419614      0.68719842821222      0.00377365974158
C   4.91870890153864      1.39173456118907     -0.00862816189375
C   7.36980207796101      2.77948220318441     -0.00242013321349
C   7.38016266612146      1.39121750785509     -0.00087345036788
C   6.13979953912259      0.67411862320065      0.00545489144369
H   -8.27919079934664      3.40711804112415     -0.00763522772059
H   8.31511347147953      3.31811809662368     -0.00663070901292
C   -8.59175593758115      0.72483255304480     -0.00123170985383
C   -8.59902460370342     -0.63263980622873      0.00089141472904
C   -6.13981313911873     -0.67413663715361     -0.00609792660607
C   -7.38018411213749     -1.39126618958160      0.00131813493501
C   -4.91868448025621     -1.39175501803000      0.00624257154343
C   -3.68443829568458     -0.68723731573599     -0.00478966852105
C   -2.46081704024768     -1.40334517882457      0.00575341766833
C   -1.23116201232071     -0.70217386488055     -0.00636696112346
C   -0.00756962538737     -1.41741884941102      0.00108956317991
C   1.22364771588843     -0.71527537726392      0.01109518512883
C   2.44567064933149     -1.42964328900682     -0.00065482763106
C   3.67686670284649     -0.72670743155550     -0.00479541202602
C   6.13224884641929     -0.73997883984993     -0.00632338623858
C   4.90351914550401     -1.44445752054090      0.00751768830159
C   8.59901484869081      0.63260386666793     -0.00101133422380
C   8.59174548810050     -0.72485086719319      0.00072504603735
C   7.36486276438985     -1.47033266560598      0.00049486934466
H   -9.52830597181814      1.27684744919284     -0.00270163681798
H   9.54141097460619      1.17457248844457     -0.00206336648518
C   -7.36983790976868     -2.77954514593389      0.00312634335708
C   -4.92459910905015     -2.80843725734101     -0.00460528907921
C   -6.16662249566744     -3.51665219282533      0.00169655107992
C   -3.70251035970491     -3.52468154912026      0.00571878010666
C   -2.46764698511392     -2.82132596280400     -0.00632585824990
C   -0.01513347410770     -2.83314164539971     -0.00604426974092
C   -1.24712184122656     -3.53473217556300      0.00551968366725
C   1.20924506964357     -3.54791467864352      0.00805871345849
C   2.43733602215464     -2.84764173817541     -0.00608104485234
C   4.89430234377080     -2.86112296828604     -0.00526030478103
C   3.66461525504104     -3.56421984553201      0.00761911515957
C   6.12863901474565     -3.58258405771778      0.00096495711699
C   7.33967266469532     -2.85841330737039      0.00248018319869
H   -9.54144911125902     -1.17456346666430      0.00226083090216
H   9.52826186807155     -1.27691907390448      0.00197485379837
H   -8.31516504384864     -3.31814985321231      0.00729857188773
H   8.27915514249207     -3.40714078989363      0.00681973918158
C   -6.14499418870218     -4.92764727278338      0.00302254913999
C   -3.70678334799751     -4.94126171411716     -0.00679841894792
C   -4.95559005800169     -5.64349397349412      0.00116871569699
C   -2.48612132622665     -5.65478557440947      0.00614125209662
C   -1.25405833548005     -4.95612205000132     -0.00503435388927
C   1.20101257386816     -4.96928038819302     -0.00385322963129
C   -0.03033667441341     -5.66952030313900      0.00398997003238
C   3.65375010132847     -4.98074377541453     -0.00309522988330
C   2.42549269587528     -5.68117463552727      0.00628170066869
C   6.09196561781097     -4.99325796338655      0.00325918379042
C   4.89497644461045     -5.69634842095790      0.00202298796027
H   -7.08989238804069     -5.46699984223871      0.00742531082125
H   7.03105520920009     -5.54265853633254      0.00683896355417
C   -4.92354532219813     -7.07882109967734      0.00061394679214
C   -2.48534208823777     -7.08772807792913     -0.00189594564379
C   -3.75168589177895     -7.76394715763627     -0.00170126671874
C   -0.03794895698805     -7.09946487446944     -0.00168022049625
C   -1.27795610040136     -7.77290438466689     -0.00366491325785
C   2.40944432072629     -7.11402201200282     -0.00081701968533
C   1.19474993715296     -7.78618536556242     -0.00296931056689
C   4.84762105249800     -7.13126211057943      0.00168979497423
C   3.66847160587561     -7.80378799294376     -0.00065863938960
H   -5.86994035041618     -7.61383059804164      0.00215798365757
H   5.78824962538815     -7.67633218931421      0.00281691445618
H   -3.75352693944918     -8.85107156923607     -0.00353718114765
H   -1.28430440589466     -8.86087539249706     -0.00809229711623
H   1.18922157469537     -8.87416062058945     -0.00706194725726
H   3.65854661482387     -8.89086063405326     -0.00231318081200

    units angstrom      # Angstroms are the default
    no_reorient         # Geometry fixed, default
    symmetry c1         # C1 symmetry, default
}

set {
    scf_type DF         # Density fitting, faster than exact integrals
    freeze_core True    # Freeze core electrons
    basis jun-cc-pVDZ   # Jun-cc-pVDZ basis set, recommended for sSAPT0 in https://doi.org/10.1063/1.4867135
}

energy('ssapt0')        # Compute sSAPT0 energy, includes also SAPT0
--------------------------------------------------------------------------

  //              Dimer HF             //
    Molecular point group: c1
  Charge       = -1
  Multiplicity = 1
  Basis Set: JUN-CC-PVDZ
    Blend: JUN-CC-PVDZ
  Basis Set: (JUN-CC-PVDZ AUX)
    Blend: JUN-CC-PVDZ-JKFIT
  @DF-RHF Final Energy: -4072.57370727300349
    Total Energy =                      -4072.5737072730044019
 Dipole X            :          0.0014796           -0.0001188            0.0013608
 Dipole Y            :         -0.0019708           -0.0002727           -0.0022434
 Dipole Z            :         12.1959055          -13.0928994           -0.8969939
 Magnitude           :                                                    0.8969977
  //            Monomer A HF           //
    Molecular point group: c1
  Multiplicity = 1
  Basis Set: JUN-CC-PVDZ
    Blend: JUN-CC-PVDZ
  Basis Set: (JUN-CC-PVDZ AUX)
    Blend: JUN-CC-PVDZ-JKFIT
  @DF-RHF Final Energy:  -422.77936175360509
    Total Energy =                       -422.7793617536050874
  //            Monomer B HF           //
    Molecular point group: c1

    Geometry (in Angstrom), charge = 0, multiplicity = 1:

       Center              X                  Y                   Z               Mass
    ------------   -----------------  -----------------  -----------------  -----------------
      Gh(B)          -0.000050191042     0.000351518223     2.048464753678    11.009305360000
      Gh(F)          -1.153601191042     0.000062518223     2.864111753678    18.998403162730
      Gh(F)           1.153656808958    -0.000566481777     2.864111753678    18.998403162730
      Gh(F)          -0.000023191042    -1.153622481777     1.232830753678    18.998403162730
      Gh(F)          -0.000023191042     1.153992518223     1.232830753678    18.998403162730
         C           -3.668445455062     7.803766688305    -0.149629204987    12.000000000000
         C           -4.847602910388     7.131256349563    -0.151995779919    12.000000000000
         C           -4.894963490217     5.696344921754    -0.152568691018    12.000000000000
         C           -3.653744869815     4.980744859182    -0.144908249288    12.000000000000
         C           -2.409429312536     7.113995554897    -0.149434862727    12.000000000000
         C           -2.425481535146     5.681136469126    -0.156439751597    12.000000000000
         C           -1.194748207477     7.786158712532    -0.147962682185    12.000000000000
         C            0.037954837895     7.099436163980    -0.150133386490    12.000000000000
         C            0.030328396378     5.669504077927    -0.155616771405    12.000000000000
         C           -1.200988698947     4.969284866138    -0.146647037472    12.000000000000
         C            1.277953634773     7.772873961417    -0.148757537929    12.000000000000
         C            2.485353893683     7.087711403460    -0.151032025834    12.000000000000
         C            2.486124493876     5.654785328463    -0.157969774822    12.000000000000
         C            1.254078728602     4.956092631887    -0.146341833233    12.000000000000
         C            3.751710400364     7.763926669203    -0.150905174454    12.000000000000
         C            4.923561865144     7.078795295213    -0.152961655161    12.000000000000
         C            4.955603080284     5.643461981592    -0.153122067968    12.000000000000
         C            3.706797343163     4.941224726556    -0.148030507799    12.000000000000
         H           -3.658525328800     8.890841937358    -0.147944216737     1.007825032230
         H           -1.189217520798     8.874135605583    -0.143990805744     1.007825032230
         H            1.284290047845     8.860847953711    -0.144598713788     1.007825032230
         H            3.753537895758     8.851049797195    -0.149382650138     1.007825032230
         H            5.869954512165     7.613809352878    -0.153887022204     1.007825032230
         H           -5.788235898544     7.676316731157    -0.153555627275     1.007825032230
         C           -6.091978149738     4.993274531866    -0.154440931509    12.000000000000
         C           -6.128665671359     3.582594687021    -0.153239754480    12.000000000000
         C           -3.664583931087     3.564196697967    -0.156164849097    12.000000000000
         C           -4.894302395740     2.861095294123    -0.146995864112    12.000000000000
         C           -2.437339185940     2.847626175307    -0.144333070561    12.000000000000
         C           -1.209232048638     3.547901453201    -0.158012097353    12.000000000000
         C            1.247137381121     3.534695269652    -0.158820703758    12.000000000000
         C            0.015171848527     2.833126357528    -0.147136520533    12.000000000000
         C            2.467640981399     2.821304495478    -0.147036462410    12.000000000000
         C            3.702545283538     3.524674672647    -0.160524423252    12.000000000000
         C            6.144976195342     4.927586884354    -0.154355513180    12.000000000000
         C            6.166584167820     3.516598994165    -0.152188959743    12.000000000000
         C            4.924605767418     2.808422443577    -0.145650213506    12.000000000000
         H            7.089901318599     5.466902284446    -0.158117394030     1.007825032230
         H           -7.031045942143     5.542702471080    -0.158674146460     1.007825032230
         C           -7.339702232165     2.858426052802    -0.154866921921    12.000000000000
         C           -7.364886149100     1.470337889806    -0.153101383794    12.000000000000
         C           -4.903508799989     1.444441330383    -0.157817647986    12.000000000000
         C           -6.132261343652     0.739953875277    -0.145527604003    12.000000000000
         C           -3.676878991558     0.726711660896    -0.147189931586    12.000000000000
         C           -2.445660777107     1.429655651485    -0.157499641787    12.000000000000
         C           -1.223604872343     0.715339019858    -0.146070377256    12.000000000000
         C            0.007633678272     1.417397667460    -0.147604723538    12.000000000000
         C            1.231215616705     0.702131208810    -0.166431309195    12.000000000000
         C            2.460816909489     1.403306554348    -0.146926800304    12.000000000000
         C            3.684426063155     0.687212946435    -0.147755586581    12.000000000000
         C            4.918704710497     1.391749079412    -0.160157408216    12.000000000000
         C            7.369797886919     2.779496721407    -0.153949379536    12.000000000000
         C            7.380158475080     1.391232026078    -0.152402696690    12.000000000000
         C            6.139795348081     0.674133141423    -0.146074354879    12.000000000000
         H           -8.279194990388     3.407132559347    -0.159164474043     1.007825032230
         H            8.315109280438     3.318132614846    -0.158159955335     1.007825032230
         C           -8.591760128623     0.724847071267    -0.152760956176    12.000000000000
         C           -8.599028794745    -0.632625288006    -0.150637831593    12.000000000000
         C           -6.139817330160    -0.674122118931    -0.157627172929    12.000000000000
         C           -7.380188303179    -1.391251671359    -0.150211111387    12.000000000000
         C           -4.918688671298    -1.391740499807    -0.145286674779    12.000000000000
         C           -3.684442486726    -0.687222797513    -0.156318914843    12.000000000000
         C           -2.460821231289    -1.403330660602    -0.145775828654    12.000000000000
         C           -1.231166203362    -0.702159346658    -0.157896207446    12.000000000000
         C           -0.007573816429    -1.417404331188    -0.150439683143    12.000000000000
         C            1.223643524847    -0.715260859041    -0.140434061194    12.000000000000
         C            2.445666458290    -1.429628770784    -0.152184073953    12.000000000000
         C            3.676862511805    -0.726692913333    -0.156324658348    12.000000000000
         C            6.132244655378    -0.739964321627    -0.157852632561    12.000000000000
         C            4.903514954462    -1.444443002318    -0.144011558021    12.000000000000
         C            8.599010657649     0.632618384891    -0.152540580546    12.000000000000
         C            8.591741297059    -0.724836348971    -0.150804200285    12.000000000000
         C            7.364858573348    -1.470318147383    -0.151034376978    12.000000000000
         H           -9.528310162860     1.276861967415    -0.154230883140     1.007825032230
         H            9.541406783565     1.174587006667    -0.153592612808     1.007825032230
         C           -7.369842100810    -2.779530627711    -0.148402902965    12.000000000000
         C           -4.924603300092    -2.808422739118    -0.156134535402    12.000000000000
         C           -6.166626686709    -3.516637674603    -0.149832695243    12.000000000000
         C           -3.702514550747    -3.524667030898    -0.145810466216    12.000000000000
         C           -2.467651176156    -2.821311444581    -0.157855104572    12.000000000000
         C           -0.015137665149    -2.833127127177    -0.157573516063    12.000000000000
         C           -1.247126032268    -3.534717657340    -0.146009562655    12.000000000000
         C            1.209240878602    -3.547900160421    -0.143470532864    12.000000000000
         C            2.437331831113    -2.847627219953    -0.157610291175    12.000000000000
         C            4.894298152729    -2.861108450063    -0.156789551103    12.000000000000
         C            3.664611063999    -3.564205327309    -0.143910131163    12.000000000000
         C            6.128634823704    -3.582569539495    -0.150564289205    12.000000000000
         C            7.339668473654    -2.858398789148    -0.149049063124    12.000000000000
         H           -9.541453302301    -1.174548948442    -0.149268415420     1.007825032230
         H            9.528257677030    -1.276904555682    -0.149554392524     1.007825032230
         H           -8.315169234890    -3.318135334990    -0.144230674435     1.007825032230
         H            8.279150951450    -3.407126271671    -0.144709507141     1.007825032230
         C           -6.144998379744    -4.927632754561    -0.148506697182    12.000000000000
         C           -3.706787539039    -4.941247195895    -0.158327665270    12.000000000000
         C           -4.955594249043    -5.643479455272    -0.150360530625    12.000000000000
         C           -2.486125517268    -5.654771056187    -0.145387994226    12.000000000000
         C           -1.254062526522    -4.956107531779    -0.156563600212    12.000000000000
         C            1.201008382827    -4.969265869970    -0.155382475954    12.000000000000
         C           -0.030340865455    -5.669505784916    -0.147539276290    12.000000000000
         C            3.653745910287    -4.980729257192    -0.154624476206    12.000000000000
         C            2.425488504834    -5.681160117305    -0.145247545654    12.000000000000
         C            6.091961426769    -4.993243445164    -0.148270062532    12.000000000000
         C            4.894972253569    -5.696333902735    -0.149506258362    12.000000000000
         H           -7.089896579082    -5.466985324016    -0.144103935501     1.007825032230
         H            7.031051018158    -5.542644018110    -0.144690282768     1.007825032230
         C           -4.923549513240    -7.078806581455    -0.150915299530    12.000000000000
         C           -2.485346279279    -7.087713559707    -0.153425191966    12.000000000000
         C           -3.751690082821    -7.763932639414    -0.153230513041    12.000000000000
         C           -0.037953148030    -7.099450356247    -0.153209466819    12.000000000000
         C           -1.277960291443    -7.772889866444    -0.155194159580    12.000000000000
         C            2.409440129685    -7.114007493780    -0.152346266008    12.000000000000
         C            1.194745746111    -7.786170847340    -0.154498556889    12.000000000000
         C            4.847616861456    -7.131247592357    -0.149839451348    12.000000000000
         C            3.668467414834    -7.803773474721    -0.152187885712    12.000000000000
         H           -5.869944541458    -7.613816079819    -0.149371262665     1.007825032230
         H            5.788245434347    -7.676317671092    -0.148712331866     1.007825032230
         H           -3.753531130491    -8.851057051013    -0.155066427470     1.007825032230
         H           -1.284308596936    -8.860860874274    -0.159621543439     1.007825032230
         H            1.189217383654    -8.874146102367    -0.158591193580     1.007825032230
         H            3.658542423782    -8.890846115831    -0.153842427134     1.007825032230

  Charge       = 0
  Multiplicity = 1
  Basis Set: JUN-CC-PVDZ
    Blend: JUN-CC-PVDZ
  Basis Set: (JUN-CC-PVDZ AUX)
    Blend: JUN-CC-PVDZ-JKFIT

    Orbital Energies [Eh]
    ---------------------

    Doubly Occupied:

       1A    -11.264053     2A    -11.263741     3A    -11.263636
       4A    -11.263302     5A    -11.263228     6A    -11.263217
       7A    -11.263089     8A    -11.263075     9A    -11.263049
      10A    -11.262824    11A    -11.262725    12A    -11.262681
      13A    -11.262234    14A    -11.262204    15A    -11.262191
      16A    -11.262174    17A    -11.262075    18A    -11.262070
      19A    -11.262036    20A    -11.262002    21A    -11.261983
      22A    -11.261900    23A    -11.261864    24A    -11.261735
      25A    -11.261726    26A    -11.261715    27A    -11.261694
      28A    -11.261665    29A    -11.261648    30A    -11.261553
      31A    -11.261537    32A    -11.261523    33A    -11.261520
      34A    -11.261496    35A    -11.261494    36A    -11.261477
      37A    -11.261319    38A    -11.261312    39A    -11.261305
      40A    -11.261300    41A    -11.261295    42A    -11.261291
      43A    -11.261268    44A    -11.261248    45A    -11.261246
      46A    -11.261222    47A    -11.261215    48A    -11.261212
      49A    -11.261012    50A    -11.260987    51A    -11.260966
      52A    -11.260900    53A    -11.260893    54A    -11.260839
      55A    -11.259897    56A    -11.259885    57A    -11.259879
      58A    -11.259853    59A    -11.259847    60A    -11.259832
      61A    -11.259264    62A    -11.259242    63A    -11.259232
      64A    -11.259186    65A    -11.259175    66A    -11.259149
      67A    -11.258899    68A    -11.258882    69A    -11.258877
      70A    -11.258852    71A    -11.258844    72A    -11.258835
      73A    -11.254524    74A    -11.254521    75A    -11.254516
      76A    -11.254515    77A    -11.254514    78A    -11.254513
      79A    -11.253645    80A    -11.253643    81A    -11.253639
      82A    -11.253638    83A    -11.253636    84A    -11.253632
      85A    -11.253560    86A    -11.253558    87A    -11.253554
      88A    -11.253553    89A    -11.253551    90A    -11.253548
      91A    -11.253052    92A    -11.253049    93A    -11.253044
      94A    -11.253043    95A    -11.253042    96A    -11.253041
      97A     -1.253855    98A     -1.238955    99A     -1.238936
     100A     -1.220435   101A     -1.220423   102A     -1.215353
     103A     -1.201022   104A     -1.195580   105A     -1.188074
     106A     -1.188059   107A     -1.173748   108A     -1.173740
     109A     -1.155572   110A     -1.155567   111A     -1.152632
     112A     -1.144706   113A     -1.144704   114A     -1.128528
     115A     -1.114658   116A     -1.113144   117A     -1.112404
     118A     -1.112397   119A     -1.111607   120A     -1.088388
     121A     -1.088367   122A     -1.076944   123A     -1.076943
     124A     -1.067564   125A     -1.067535   126A     -1.064903
     127A     -1.046770   128A     -1.046759   129A     -1.040441
     130A     -1.038719   131A     -1.038717   132A     -1.025174
     133A     -1.021292   134A     -1.021246   135A     -1.007152
     136A     -1.006779   137A     -1.003763   138A     -1.000433
     139A     -1.000382   140A     -0.991061   141A     -0.970936
     142A     -0.970894   143A     -0.955857   144A     -0.955800
     145A     -0.905536   146A     -0.905515   147A     -0.905497
     148A     -0.905479   149A     -0.904252   150A     -0.892296
     151A     -0.892242   152A     -0.890303   153A     -0.890244
     154A     -0.889410   155A     -0.872194   156A     -0.869048
     157A     -0.851513   158A     -0.847811   159A     -0.847788
     160A     -0.845537   161A     -0.842973   162A     -0.834531
     163A     -0.834516   164A     -0.828093   165A     -0.828092
     166A     -0.784511   167A     -0.784503   168A     -0.783603
     169A     -0.783576   170A     -0.782242   171A     -0.782223
     172A     -0.781979   173A     -0.766965   174A     -0.760729
     175A     -0.750505   176A     -0.733462   177A     -0.727033
     178A     -0.727024   179A     -0.725038   180A     -0.724509
     181A     -0.724497   182A     -0.718411   183A     -0.713708
     184A     -0.713702   185A     -0.699536   186A     -0.699528
     187A     -0.686047   188A     -0.685935   189A     -0.685930
     190A     -0.682152   191A     -0.682135   192A     -0.678711
     193A     -0.653582   194A     -0.650827   195A     -0.650798
     196A     -0.649743   197A     -0.649731   198A     -0.649544
     199A     -0.640846   200A     -0.640830   201A     -0.640065
     202A     -0.639144   203A     -0.635960   204A     -0.635940
     205A     -0.629106   206A     -0.617737   207A     -0.615281
     208A     -0.615262   209A     -0.608770   210A     -0.608762
     211A     -0.599105   212A     -0.599061   213A     -0.598697
     214A     -0.598563   215A     -0.598533   216A     -0.597956
     217A     -0.595041   218A     -0.595031   219A     -0.594681
     220A     -0.594156   221A     -0.591903   222A     -0.591897
     223A     -0.587314   224A     -0.577781   225A     -0.577773
     226A     -0.575635   227A     -0.575629   228A     -0.573354
     229A     -0.569611   230A     -0.568062   231A     -0.568045
     232A     -0.566710   233A     -0.566692   234A     -0.560897
     235A     -0.558662   236A     -0.558645   237A     -0.558410
     238A     -0.554326   239A     -0.550527   240A     -0.547460
     241A     -0.544239   242A     -0.535040   243A     -0.534950
     244A     -0.533497   245A     -0.533472   246A     -0.528047
     247A     -0.528033   248A     -0.527718   249A     -0.517095
     250A     -0.517064   251A     -0.515329   252A     -0.515323
     253A     -0.509616   254A     -0.509598   255A     -0.497996
     256A     -0.496410   257A     -0.496383   258A     -0.493759
     259A     -0.493718   260A     -0.489441   261A     -0.481424
     262A     -0.477398   263A     -0.477393   264A     -0.473962
     265A     -0.469395   266A     -0.466479   267A     -0.466476
     268A     -0.458750   269A     -0.446613   270A     -0.446549
     271A     -0.441011   272A     -0.440771   273A     -0.440730
     274A     -0.434666   275A     -0.433890   276A     -0.407335
     277A     -0.407326   278A     -0.386350   279A     -0.386297
     280A     -0.385722   281A     -0.385713   282A     -0.383704
     283A     -0.354293   284A     -0.354292   285A     -0.350606
     286A     -0.338035   287A     -0.335564   288A     -0.335430
     289A     -0.332692   290A     -0.332687   291A     -0.306995
     292A     -0.301865   293A     -0.301811   294A     -0.300821
     295A     -0.286135   296A     -0.256468   297A     -0.253434
     298A     -0.253355   299A     -0.204217   300A     -0.204126

  @DF-RHF Final Energy: -3650.34137650866933

   => Energetics <=

    Nuclear Repulsion Energy =          15611.4211649754324753
    One-Electron Energy =              -36072.1714867962873541
    Two-Electron Energy =               16810.4089453121850966
    Total Energy =                      -3650.3413765086697822
 Dipole X            :          0.0001744            0.0001983            0.0003728
 Dipole Y            :          0.0009672           -0.0013163           -0.0003491
 Dipole Z            :        171.8097409         -171.8058734            0.0038675
 Magnitude           :                                                    0.0039011

    SAPT Results
  --------------------------------------------------------------------------------------------------------
    Electrostatics               -668.37104019 [mEh]    -419.40915972 [kcal/mol]   -1754.80792426 [kJ/mol]
      Elst10,r                   -668.37104019 [mEh]    -419.40915972 [kcal/mol]   -1754.80792426 [kJ/mol]

    Exchange                     1491.06059747 [mEh]     935.65465089 [kcal/mol]    3914.77905931 [kJ/mol]
      Exch10                     1491.06059747 [mEh]     935.65465089 [kcal/mol]    3914.77905931 [kJ/mol]
      Exch10(S^2)                1262.68824570 [mEh]     792.34883660 [kcal/mol]    3315.18753235 [kJ/mol]

    Induction                    -275.65856800 [mEh]    -172.97836295 [kcal/mol]    -723.74147058 [kJ/mol]
      Ind20,r                   -1155.02355775 [mEh]    -724.78822493 [kcal/mol]   -3032.51393310 [kJ/mol]
      Exch-Ind20,r                702.96625267 [mEh]     441.11798329 [kcal/mol]    1845.63764210 [kJ/mol]
      delta HF,r (2)              176.39873709 [mEh]     110.69187868 [kcal/mol]     463.13482041 [kJ/mol]

    Dispersion                   -113.13595409 [mEh]     -70.99388302 [kcal/mol]    -297.03840654 [kJ/mol]
      Disp20                     -186.82658899 [mEh]    -117.23545454 [kcal/mol]    -490.51314180 [kJ/mol]
      Exch-Disp20                  73.69063490 [mEh]      46.24157153 [kcal/mol]     193.47473527 [kJ/mol]
      Disp20 (SS)                 -93.41329449 [mEh]     -58.61772727 [kcal/mol]    -245.25657090 [kJ/mol]
      Disp20 (OS)                 -93.41329449 [mEh]     -58.61772727 [kcal/mol]    -245.25657090 [kJ/mol]
      Exch-Disp20 (SS)             33.01831543 [mEh]      20.71930574 [kcal/mol]      86.68957521 [kJ/mol]
      Exch-Disp20 (OS)             40.67231947 [mEh]      25.52226579 [kcal/mol]     106.78516006 [kJ/mol]

  Total HF                        547.03098927 [mEh]     343.26712822 [kcal/mol]    1436.22966446 [kJ/mol]
  Total SAPT0                     433.89503518 [mEh]     272.27324520 [kcal/mol]    1139.19125792 [kJ/mol]

  Special recipe for scaled SAPT0 (see Manual):
    Electrostatics sSAPT0        -668.37104019 [mEh]    -419.40915972 [kcal/mol]   -1754.80792426 [kJ/mol]
    Exchange sSAPT0              1491.06059747 [mEh]     935.65465089 [kcal/mol]    3914.77905931 [kJ/mol]
    Induction sSAPT0              178.90435060 [mEh]     112.26417490 [kcal/mol]     469.71330780 [kJ/mol]
    Dispersion sSAPT0             -65.48497519 [mEh]     -41.09244232 [kcal/mol]    -171.93077867 [kJ/mol]
  Total sSAPT0                    936.10893269 [mEh]     587.41722375 [kcal/mol]    2457.75366417 [kJ/mol]
  --------------------------------------------------------------------------------------------------------

*** Psi4 exiting successfully. Buy a developer a beer!
