                               Psi4 1.9 release

  ==> Input File <==

--------------------------------------------------------------------------
memory 32 GB # how much memory is available ! Depends on the nodes/cores !

molecule dimer {
# monomer A
-1 1    # Charge and multiplicity
B -1.977592e-04  2.742729e-04 -6.799966
F  1.123153e-16  1.430594e-17 -5.387181
F  1.147860e+00  6.757812e-01 -7.271107
F  1.191806e-02 -1.332011e+00 -7.270905
F -1.159666e+00  6.560735e-01 -7.270826
--
# monomer B
0 1     # Charge and multiplicity
C   1.22531237526482      0.70753866091955      0.00613762728373
C   1.22532433589282     -0.70753852257020     -0.00619318228664
C   -0.00000567409046      1.41496628609039     -0.00672680580738
C   2.45644923379077      1.41832825917820      0.00902448468363
C   0.00001130712078     -1.41497612663474      0.00347275151708
C   -1.22530046906674      0.70754574598412      0.00838914760619
C   2.45643823516184     -1.41832293188077     -0.00843833914343
C   -0.00000085313587      2.83680140328112     -0.00913035594137
C   3.68182717731192      0.70931832800114     -0.00808954934571
C   2.45512052870677      2.83422403348893     -0.00819210630633
C   3.68182158506039     -0.70933346742900      0.00798293467272
C   -1.22531311884624     -0.70752714354401     -0.00512042085974
C   1.22670006104402      3.54346985599427      0.00816696660346
C   0.00000526469929     -2.83678176723568      0.00832091913869
C   -2.45643555300670      1.41831729028492      0.00842454345199
C   2.45512389762097     -2.83422965658853      0.00783102630520
C   -1.22671388474763      3.54346943575023      0.00827029982280
C   4.91451777504333      1.42717324448953     -0.00160886631602
C   3.69315067131765      3.54279566454522     -0.00155906667985
C   -2.45643712022637     -1.41831290883911     -0.00846337726810
C   1.22670532178455     -3.54347386990643     -0.00780316414624
C   -2.45512491866593      2.83421703463423     -0.00818572995999
C   4.91452486062398     -1.42718653794377      0.00136387641845
C   1.22142509354026      4.97013443726031      0.00150231067809
C   4.89300870916237      2.82518837202648     -0.00039219795739
C   -1.22669652864725     -3.54347062507680     -0.00753595973677
C   -3.68181849668397      0.70932533873199     -0.00807686886569
C   3.69314758099218     -3.54280096939050      0.00148176697923
C   -1.22143177215231      4.97012866986289      0.00168580605083
C   6.13477145276790      0.68054831910577     -0.00083909176631
C   3.65678936045204      4.97295361556775     -0.00065042889723
C   -2.45512642789169     -2.83421472106065      0.00758666850712
C   -3.68181869921921     -0.70932533146830      0.00810055625144
C   4.89301309775526     -2.82519973363176      0.00021895393805
C   -0.00000059327114      5.65044773803267      0.00045449734393
C   6.13477559217374     -0.68055448207492      0.00042622874941
C   2.47813196269732      5.65357712333155      0.00063835075260
C   1.22142288457925     -4.97012668293268     -0.00129718634452
C   -3.69316190412301      3.54279732619245     -0.00139355922051
C   -1.22142804110313     -4.97011793159564     -0.00140994817719
C   -4.91452132810043      1.42717581899491     -0.00153192130862
C   3.65678749952045     -4.97295485423912      0.00080007163680
C   -2.47813805026426      5.65357479452875      0.00092287576113
C   -3.69314125872231     -3.54278984697859      0.00136564082345
C   -4.91451200321153     -1.42718062802730      0.00139857359209
C   -0.00000552908399     -5.65043791501335      0.00005899322272
C   -4.89302000425900      2.82518897091939     -0.00040227981744
C   2.47812647313991     -5.65357317188818     -0.00029052915548
C   -3.65679823041642      4.97295655404175     -0.00047374852278
C   -4.89299899901461     -2.82519139505969      0.00006491824035
C   -2.47812801824129     -5.65356579800621     -0.00056571680280
C   -6.13477002348955      0.68054913825639     -0.00086464346868
C   -3.65678835334731     -4.97294365097028      0.00058578382008
C   -6.13476456307132     -0.68055354348201      0.00040575295444
H   5.83528897565761      3.36927626695423      0.00396712770529
H   7.07385965258860      1.22821762089947     -0.00037744837300
H   4.60066374401555      5.51238117445323     -0.00014522814529
H   5.83528386714679     -3.36930568472863     -0.00423551337640
H   -0.00001167146422      6.73853104613662     -0.00389474766392
H   7.07386165167227     -1.22822657074368     -0.00008250934481
H   2.47331421164041      6.74068466339473      0.00017162982210
H   4.60066897122302     -5.51237575717576      0.00039007446835
H   -2.47331820069565      6.74068209160650      0.00047297644710
H   -0.00000978838621     -6.73852780445195      0.00458867820736
H   -5.83530143450167      3.36927132229595      0.00410314985360
H   2.47330840367253     -6.74068500242887      0.00027980126949
H   -4.60067436136587      5.51237839860371      0.00002010017831
H   -5.83527902699321     -3.36928859177951     -0.00451481925734
H   -2.47329986759855     -6.74067870613986     -0.00016951527498
H   -7.07385728692578      1.22822084484047     -0.00046143985387
H   -4.60067330624313     -5.51236229778631      0.00021776644566
H   -7.07385645456741     -1.22822025997701     -0.00017736581114

    units angstrom      # Angstroms are the default
    no_reorient         # Geometry fixed, default
    symmetry c1         # C1 symmetry, default
}

set {
    scf_type DF         # Density fitting, faster than exact integrals
    freeze_core True    # Freeze core electrons
    basis jun-cc-pVDZ   # Jun-cc-pVDZ basis set, recommended for sSAPT0 in https://doi.org/10.1063/1.4867135
}

energy('ssapt0')        # Compute sSAPT0 energy, includes also SAPT0
--------------------------------------------------------------------------

  //              Dimer HF             //
    Molecular point group: c1
  Charge       = -1
  Multiplicity = 1
  Basis Set: JUN-CC-PVDZ
    Blend: JUN-CC-PVDZ
  Basis Set: (JUN-CC-PVDZ AUX)
    Blend: JUN-CC-PVDZ-JKFIT
  @DF-RHF Final Energy: -2478.65819733276840
    Total Energy =                      -2478.6581973327683954
 Dipole X            :         -0.0005071            0.0000481           -0.0004590
 Dipole Y            :          0.0010432           -0.0001453            0.0008979
 Dipole Z            :        -31.1122956           41.6864235           10.5741280
 Magnitude           :                                                   10.5741280
  //            Monomer A HF           //
    Molecular point group: c1
  Multiplicity = 1
  Basis Set: JUN-CC-PVDZ
    Blend: JUN-CC-PVDZ
  Basis Set: (JUN-CC-PVDZ AUX)
    Blend: JUN-CC-PVDZ-JKFIT
  @DF-RHF Final Energy:  -422.77153951693509
    Total Energy =                       -422.7715395169350927
  //            Monomer B HF           //
    Molecular point group: c1

    Geometry (in Angstrom), charge = 0, multiplicity = 1:

       Center              X                  Y                   Z               Mass
    ------------   -----------------  -----------------  -----------------  -----------------
      Gh(B)          -0.000198161052     0.000273808717    -6.014430047244    11.009305360000
      Gh(F)          -0.000000401852    -0.000000464183    -4.601645047244    18.998403162730
      Gh(F)           1.147859598148     0.675780735817    -6.485571047244    18.998403162730
      Gh(F)           0.011917658148    -1.332011464183    -6.485369047244    18.998403162730
      Gh(F)          -1.159666401852     0.656073035817    -6.485290047244    18.998403162730
         C            1.225311973413     0.707538196736     0.791673580040    12.000000000000
         C            1.225323934041    -0.707538986754     0.779342770470    12.000000000000
         C           -0.000006075942     1.414965821907     0.778809146949    12.000000000000
         C            2.456448831939     1.418327794995     0.794560437440    12.000000000000
         C            0.000010905269    -1.414976590818     0.789008704274    12.000000000000
         C           -1.225300870919     0.707545281801     0.793925100363    12.000000000000
         C            2.456437833310    -1.418323396064     0.777097613613    12.000000000000
         C           -0.000001254988     2.836800939098     0.776405596815    12.000000000000
         C            3.681826775460     0.709317863818     0.777446403411    12.000000000000
         C            2.455120126855     2.834223569306     0.777343846450    12.000000000000
         C            3.681821183209    -0.709333931612     0.793518887429    12.000000000000
         C           -1.225313520698    -0.707527607727     0.780415531897    12.000000000000
         C            1.226699659192     3.543469391811     0.793702919360    12.000000000000
         C            0.000004862847    -2.836782231419     0.793856871895    12.000000000000
         C           -2.456435954859     1.418316826102     0.793960496208    12.000000000000
         C            2.455123495769    -2.834230120772     0.793366979062    12.000000000000
         C           -1.226714286599     3.543468971567     0.793806252579    12.000000000000
         C            4.914517373191     1.427172780306     0.783927086440    12.000000000000
         C            3.693150269466     3.542795200362     0.783976886077    12.000000000000
         C           -2.456437522078    -1.418313373022     0.777072575488    12.000000000000
         C            1.226704919933    -3.543474334090     0.777732788610    12.000000000000
         C           -2.455125320518     2.834216570451     0.777350222796    12.000000000000
         C            4.914524458772    -1.427187002127     0.786899829175    12.000000000000
         C            1.221424691688     4.970133973077     0.787038263435    12.000000000000
         C            4.893008307311     2.825187907843     0.785143754799    12.000000000000
         C           -1.226696930499    -3.543471089260     0.777999993020    12.000000000000
         C           -3.681818898536     0.709324874549     0.777459083891    12.000000000000
         C            3.693147179140    -3.542801433574     0.787017719736    12.000000000000
         C           -1.221432174004     4.970128205680     0.787221758807    12.000000000000
         C            6.134771050916     0.680547854922     0.784696860990    12.000000000000
         C            3.656788958600     4.972953151384     0.784885523859    12.000000000000
         C           -2.455126829744    -2.834215185244     0.793122621264    12.000000000000
         C           -3.681819101071    -0.709325795652     0.793636509008    12.000000000000
         C            4.893012695903    -2.825200197815     0.785754906695    12.000000000000
         C           -0.000000995123     5.650447273849     0.785990450100    12.000000000000
         C            6.134775190322    -0.680554946258     0.785962181506    12.000000000000
         C            2.478131560845     5.653576659148     0.786174303509    12.000000000000
         C            1.221422482727    -4.970127147116     0.784238766412    12.000000000000
         C           -3.693162305975     3.542796862009     0.784142393536    12.000000000000
         C           -1.221428442955    -4.970118395779     0.784126004579    12.000000000000
         C           -4.914521729952     1.427175354812     0.784004031448    12.000000000000
         C            3.656787097669    -4.972955318422     0.786336024393    12.000000000000
         C           -2.478138452116     5.653574330345     0.786458828518    12.000000000000
         C           -3.693141660574    -3.542790311162     0.786901593580    12.000000000000
         C           -4.914512405063    -1.427181092211     0.786934526349    12.000000000000
         C           -0.000005930936    -5.650438379197     0.785594945979    12.000000000000
         C           -4.893020406111     2.825188506736     0.785133672939    12.000000000000
         C            2.478126071288    -5.653573636072     0.785245423601    12.000000000000
         C           -3.656798632268     4.972956089858     0.785062204234    12.000000000000
         C           -4.892999400866    -2.825191859243     0.785600870997    12.000000000000
         C           -2.478128420093    -5.653566262190     0.784970235954    12.000000000000
         C           -6.134770425341     0.680548674073     0.784671309288    12.000000000000
         C           -3.656788755199    -4.972944115154     0.786121736577    12.000000000000
         C           -6.134764964923    -0.680554007665     0.785941705711    12.000000000000
         H            5.835288573806     3.369275802771     0.789503080462     1.007825032230
         H            7.073859250737     1.228217156716     0.785158504383     1.007825032230
         H            4.600663342164     5.512380710270     0.785390724611     1.007825032230
         H            5.835283465295    -3.369306148912     0.781300439380     1.007825032230
         H           -0.000012073316     6.738530581953     0.781641205093     1.007825032230
         H            7.073861249820    -1.228227034927     0.785453443412     1.007825032230
         H            2.473313809789     6.740684199211     0.785707582579     1.007825032230
         H            4.600668569371    -5.512376221359     0.785926027225     1.007825032230
         H           -2.473318602548     6.740681627423     0.786008929204     1.007825032230
         H           -0.000010190238    -6.738528268635     0.790124630964     1.007825032230
         H           -5.835301836354     3.369270858113     0.789639102610     1.007825032230
         H            2.473308001821    -6.740685466612     0.785815754026     1.007825032230
         H           -4.600674763218     5.512377934420     0.785556052935     1.007825032230
         H           -5.835279428845    -3.369289055963     0.781021133499     1.007825032230
         H           -2.473300269450    -6.740679170323     0.785366437481     1.007825032230
         H           -7.073857688778     1.228220380657     0.785074512903     1.007825032230
         H           -4.600673708095    -5.512362761970     0.785753719202     1.007825032230
         H           -7.073856856419    -1.228220724160     0.785358586945     1.007825032230

  Charge       = 0
  Multiplicity = 1
  Basis Set: JUN-CC-PVDZ
    Blend: JUN-CC-PVDZ
  Basis Set: (JUN-CC-PVDZ AUX)
    Blend: JUN-CC-PVDZ-JKFIT

    Orbital Energies [Eh]
    ---------------------

    Doubly Occupied:

       1A    -11.260657     2A    -11.260214     3A    -11.260212
       4A    -11.259500     5A    -11.259500     6A    -11.259329
       7A    -11.259121     8A    -11.259044     9A    -11.259043
      10A    -11.258722    11A    -11.258719    12A    -11.258651
      13A    -11.258589    14A    -11.258584    15A    -11.258581
      16A    -11.258552    17A    -11.258546    18A    -11.258530
      19A    -11.258516    20A    -11.258510    21A    -11.258505
      22A    -11.258405    23A    -11.258401    24A    -11.258102
      25A    -11.257443    26A    -11.257381    27A    -11.257380
      28A    -11.257245    29A    -11.257244    30A    -11.257159
      31A    -11.256538    32A    -11.256467    33A    -11.256466
      34A    -11.256356    35A    -11.256356    36A    -11.256309
      37A    -11.252390    38A    -11.252390    39A    -11.252388
      40A    -11.252387    41A    -11.252385    42A    -11.252383
      43A    -11.251521    44A    -11.251519    45A    -11.251518
      46A    -11.251512    47A    -11.251511    48A    -11.251507
      49A    -11.250952    50A    -11.250951    51A    -11.250949
      52A    -11.250947    53A    -11.250946    54A    -11.250944
      55A     -1.244265    56A     -1.219995    57A     -1.219994
      58A     -1.189706    59A     -1.189699    60A     -1.181138
      61A     -1.157710    62A     -1.149140    63A     -1.135679
      64A     -1.135673    65A     -1.113343    66A     -1.113338
      67A     -1.082607    68A     -1.082600    69A     -1.078788
      70A     -1.066127    71A     -1.066123    72A     -1.039563
      73A     -1.024467    74A     -1.021964    75A     -1.021921
      76A     -1.017876    77A     -1.012937    78A     -0.987201
      79A     -0.987155    80A     -0.962034    81A     -0.961984
      82A     -0.894452    83A     -0.894426    84A     -0.888137
      85A     -0.886383    86A     -0.886325    87A     -0.881581
      88A     -0.881533    89A     -0.862058    90A     -0.837542
      91A     -0.818376    92A     -0.816806    93A     -0.812318
      94A     -0.812309    95A     -0.794840    96A     -0.794829
      97A     -0.746817    98A     -0.745042    99A     -0.733606
     100A     -0.733597   101A     -0.732339   102A     -0.732315
     103A     -0.716677   104A     -0.699134   105A     -0.699123
     106A     -0.693758   107A     -0.693742   108A     -0.661386
     109A     -0.653301   110A     -0.651353   111A     -0.650402
     112A     -0.650397   113A     -0.639516   114A     -0.639514
     115A     -0.629893   116A     -0.627704   117A     -0.627688
     118A     -0.606473   119A     -0.605926   120A     -0.601845
     121A     -0.599903   122A     -0.599872   123A     -0.593808
     124A     -0.591425   125A     -0.591414   126A     -0.585409
     127A     -0.576408   128A     -0.576402   129A     -0.567466
     130A     -0.567452   131A     -0.566139   132A     -0.566120
     133A     -0.558914   134A     -0.555005   135A     -0.554999
     136A     -0.538746   137A     -0.538744   138A     -0.538277
     139A     -0.538271   140A     -0.529880   141A     -0.528229
     142A     -0.523034   143A     -0.523028   144A     -0.500656
     145A     -0.495709   146A     -0.493393   147A     -0.487937
     148A     -0.485249   149A     -0.481929   150A     -0.481921
     151A     -0.470425   152A     -0.470407   153A     -0.451223
     154A     -0.451145   155A     -0.439179   156A     -0.439170
     157A     -0.404855   158A     -0.404832   159A     -0.403487
     160A     -0.375534   161A     -0.375531   162A     -0.349237
     163A     -0.337696   164A     -0.336670   165A     -0.336613
     166A     -0.311214   167A     -0.298203   168A     -0.284465
     169A     -0.284411   170A     -0.225038   171A     -0.224972

  @DF-RHF Final Energy: -2055.89181858358688

   => Energetics <=

    Nuclear Repulsion Energy =           6452.5568002797772351
    One-Electron Energy =              -15636.4321714960169629
    Two-Electron Energy =                7127.9835526326523905
    Total Energy =                      -2055.8918185835873373
 Dipole X            :          0.0000501            0.0000419            0.0000920
 Dipole Y            :          0.0000311           -0.0000426           -0.0000114
 Dipole Z            :       -507.6772246          507.6797089            0.0024843
 Magnitude           :                                                    0.0024860

    SAPT Results
  --------------------------------------------------------------------------------------------------------
    Electrostatics                  7.81010664 [mEh]       4.90091591 [kcal/mol]      20.50543216 [kJ/mol]
      Elst10,r                      7.81010664 [mEh]       4.90091591 [kcal/mol]      20.50543216 [kJ/mol]

    Exchange                       -0.00028331 [mEh]      -0.00017778 [kcal/mol]      -0.00074382 [kJ/mol]
      Exch10                       -0.00028331 [mEh]      -0.00017778 [kcal/mol]      -0.00074382 [kJ/mol]
      Exch10(S^2)                  -0.00028330 [mEh]      -0.00017778 [kcal/mol]      -0.00074381 [kJ/mol]

    Induction                      -2.64905558 [mEh]      -1.66230747 [kcal/mol]      -6.95509447 [kJ/mol]
      Ind20,r                      -2.67082226 [mEh]      -1.67596627 [kcal/mol]      -7.01224287 [kJ/mol]
      Exch-Ind20,r                  0.00100288 [mEh]       0.00062932 [kcal/mol]       0.00263306 [kJ/mol]
      delta HF,r (2)                0.02076380 [mEh]       0.01302948 [kcal/mol]       0.05451534 [kJ/mol]

    Dispersion                     -0.50312678 [mEh]      -0.31571682 [kcal/mol]      -1.32095917 [kJ/mol]
      Disp20                       -0.50363881 [mEh]      -0.31603813 [kcal/mol]      -1.32230352 [kJ/mol]
      Exch-Disp20                   0.00051203 [mEh]       0.00032131 [kcal/mol]       0.00134435 [kJ/mol]
      Disp20 (SS)                  -0.25181941 [mEh]      -0.15801906 [kcal/mol]      -0.66115176 [kJ/mol]
      Disp20 (OS)                  -0.25181941 [mEh]      -0.15801906 [kcal/mol]      -0.66115176 [kJ/mol]
      Exch-Disp20 (SS)              0.00039504 [mEh]       0.00024789 [kcal/mol]       0.00103717 [kJ/mol]
      Exch-Disp20 (OS)              0.00011700 [mEh]       0.00007342 [kcal/mol]       0.00030718 [kJ/mol]

  Total HF                          5.16076775 [mEh]       3.23843066 [kcal/mol]      13.54959387 [kJ/mol]
  Total SAPT0                       4.65764098 [mEh]       2.92271384 [kcal/mol]      12.22863470 [kJ/mol]

  Special recipe for scaled SAPT0 (see Manual):
    Electrostatics sSAPT0           7.81010664 [mEh]       4.90091591 [kcal/mol]      20.50543216 [kJ/mol]
    Exchange sSAPT0                -0.00028331 [mEh]      -0.00017778 [kcal/mol]      -0.00074382 [kJ/mol]
    Induction sSAPT0               -2.64905558 [mEh]      -1.66230747 [kcal/mol]      -6.95509447 [kJ/mol]
    Dispersion sSAPT0              -0.50312678 [mEh]      -0.31571682 [kcal/mol]      -1.32095917 [kJ/mol]
  Total sSAPT0                      4.65764098 [mEh]       2.92271384 [kcal/mol]      12.22863470 [kJ/mol]
  --------------------------------------------------------------------------------------------------------

*** Psi4 exiting successfully. Buy a developer a beer!
