                               Psi4 1.9 release

  ==> Input File <==

--------------------------------------------------------------------------
memory 47 GB # how much memory is available ! Depends on the nodes/cores !

molecule dimer {
# monomer A
-1 1    # Charge and multiplicity
B -1.977592e-04  2.742729e-04 7.400034
F  1.123153e-16  1.430594e-17 8.812819
F  1.147860e+00  6.757812e-01 6.928893
F  1.191806e-02 -1.332011e+00 6.929095
F -1.159666e+00  6.560735e-01 6.929174
--
# monomer B
0 1     # Charge and multiplicity
C   -3.66844126402057      7.80375217008252      0.00190004133558
C   -4.84759871934653      7.13124183134024     -0.00046653359696
C   -4.89495929917518      5.69633040353158     -0.00103944469517
C   -3.65374067877320      4.98073034095895      0.00662099703436
C   -2.40942512149445      7.11398103667468      0.00209438359570
C   -2.42547734410473      5.68112195090346     -0.00491050527438
C   -1.19474401643570      7.78614419430947      0.00356656413763
C   0.03795902893699      7.09942164575698      0.00139585983271
C   0.03033258741920      5.66948955970466     -0.00408752508301
C   -1.20098450790502      4.96927034791531      0.00488220885047
C   1.27795782581485      7.77285944319479      0.00277170839332
C   2.48535808472416      7.08769688523756      0.00049722048857
C   2.48612868491717      5.65477081024076     -0.00644052849921
C   1.25408291964399      4.95607811366431      0.00518741308898
C   3.75171459140595      7.76391215098033      0.00062407186893
C   4.92356605618520      7.07878077698995     -0.00143240883900
C   4.95560727132542      5.64344746336949     -0.00159282164606
C   3.70680153420475      4.94121020833308      0.00349873852374
H   -3.65852113775815      8.89082741913536      0.00358502958574
H   -1.18921332975660      8.87412108735996      0.00753844057883
H   1.28429423888630      8.86083343548850      0.00693053253426
H   3.75354208679975      8.85103527897216      0.00214659618464
H   5.86995870320703      7.61379483465560     -0.00235777588134
H   -5.78823170750226      7.67630221293400     -0.00202638095293
C   -6.09197395869619      4.99326001364347     -0.00291168518608
C   -6.12866148031747      3.58258016879823     -0.00171050815740
C   -3.66457974004527      3.56418217974434     -0.00463560277484
C   -4.89429820469869      2.86108077590057      0.00453338221034
C   -2.43733499489796      2.84761165708481      0.00719617576166
C   -1.20922785759670      3.54788693497833     -0.00648285103018
C   1.24714157216223      3.53468075142962     -0.00729145743546
C   0.01517603956900      2.83311183930540      0.00439272578912
C   2.46764517244071      2.82128997725533      0.00449278391269
C   3.70254947457969      3.52466015442405     -0.00899517692985
C   6.14498038638375      4.92757236613191     -0.00282626685777
C   6.16658835886151      3.51658447594213     -0.00065971342101
C   4.92460995845939      2.80840792535402      0.00587903281610
H   7.08990550964105      5.46688776622306     -0.00658814770723
H   -7.03104175110130      5.54268795285765     -0.00714490013730
C   -7.33969804112295      2.85841153457957     -0.00333767559888
C   -7.36488195805880      1.47032337158330     -0.00157213747140
C   -4.90350460894690      1.44442681216000     -0.00628840166334
C   -6.13225715261081      0.73993935705394      0.00600164231964
C   -3.67687480051673      0.72669714267312      0.00433931473643
C   -2.44565658606518      1.42964113326212     -0.00597039546461
C   -1.22360068130162      0.71532450163492      0.00545886906656
C   0.00763786931376      1.41738314923765      0.00392452278437
C   1.23121980774686      0.70211669058719     -0.01490206287210
C   2.46082110053113      1.40329203612573      0.00460244601878
C   3.68443025419614      0.68719842821222      0.00377365974158
C   4.91870890153864      1.39173456118907     -0.00862816189375
C   7.36980207796101      2.77948220318441     -0.00242013321349
C   7.38016266612146      1.39121750785509     -0.00087345036788
C   6.13979953912259      0.67411862320065      0.00545489144369
H   -8.27919079934664      3.40711804112415     -0.00763522772059
H   8.31511347147953      3.31811809662368     -0.00663070901292
C   -8.59175593758115      0.72483255304480     -0.00123170985383
C   -8.59902460370342     -0.63263980622873      0.00089141472904
C   -6.13981313911873     -0.67413663715361     -0.00609792660607
C   -7.38018411213749     -1.39126618958160      0.00131813493501
C   -4.91868448025621     -1.39175501803000      0.00624257154343
C   -3.68443829568458     -0.68723731573599     -0.00478966852105
C   -2.46081704024768     -1.40334517882457      0.00575341766833
C   -1.23116201232071     -0.70217386488055     -0.00636696112346
C   -0.00756962538737     -1.41741884941102      0.00108956317991
C   1.22364771588843     -0.71527537726392      0.01109518512883
C   2.44567064933149     -1.42964328900682     -0.00065482763106
C   3.67686670284649     -0.72670743155550     -0.00479541202602
C   6.13224884641929     -0.73997883984993     -0.00632338623858
C   4.90351914550401     -1.44445752054090      0.00751768830159
C   8.59901484869081      0.63260386666793     -0.00101133422380
C   8.59174548810050     -0.72485086719319      0.00072504603735
C   7.36486276438985     -1.47033266560598      0.00049486934466
H   -9.52830597181814      1.27684744919284     -0.00270163681798
H   9.54141097460619      1.17457248844457     -0.00206336648518
C   -7.36983790976868     -2.77954514593389      0.00312634335708
C   -4.92459910905015     -2.80843725734101     -0.00460528907921
C   -6.16662249566744     -3.51665219282533      0.00169655107992
C   -3.70251035970491     -3.52468154912026      0.00571878010666
C   -2.46764698511392     -2.82132596280400     -0.00632585824990
C   -0.01513347410770     -2.83314164539971     -0.00604426974092
C   -1.24712184122656     -3.53473217556300      0.00551968366725
C   1.20924506964357     -3.54791467864352      0.00805871345849
C   2.43733602215464     -2.84764173817541     -0.00608104485234
C   4.89430234377080     -2.86112296828604     -0.00526030478103
C   3.66461525504104     -3.56421984553201      0.00761911515957
C   6.12863901474565     -3.58258405771778      0.00096495711699
C   7.33967266469532     -2.85841330737039      0.00248018319869
H   -9.54144911125902     -1.17456346666430      0.00226083090216
H   9.52826186807155     -1.27691907390448      0.00197485379837
H   -8.31516504384864     -3.31814985321231      0.00729857188773
H   8.27915514249207     -3.40714078989363      0.00681973918158
C   -6.14499418870218     -4.92764727278338      0.00302254913999
C   -3.70678334799751     -4.94126171411716     -0.00679841894792
C   -4.95559005800169     -5.64349397349412      0.00116871569699
C   -2.48612132622665     -5.65478557440947      0.00614125209662
C   -1.25405833548005     -4.95612205000132     -0.00503435388927
C   1.20101257386816     -4.96928038819302     -0.00385322963129
C   -0.03033667441341     -5.66952030313900      0.00398997003238
C   3.65375010132847     -4.98074377541453     -0.00309522988330
C   2.42549269587528     -5.68117463552727      0.00628170066869
C   6.09196561781097     -4.99325796338655      0.00325918379042
C   4.89497644461045     -5.69634842095790      0.00202298796027
H   -7.08989238804069     -5.46699984223871      0.00742531082125
H   7.03105520920009     -5.54265853633254      0.00683896355417
C   -4.92354532219813     -7.07882109967734      0.00061394679214
C   -2.48534208823777     -7.08772807792913     -0.00189594564379
C   -3.75168589177895     -7.76394715763627     -0.00170126671874
C   -0.03794895698805     -7.09946487446944     -0.00168022049625
C   -1.27795610040136     -7.77290438466689     -0.00366491325785
C   2.40944432072629     -7.11402201200282     -0.00081701968533
C   1.19474993715296     -7.78618536556242     -0.00296931056689
C   4.84762105249800     -7.13126211057943      0.00168979497423
C   3.66847160587561     -7.80378799294376     -0.00065863938960
H   -5.86994035041618     -7.61383059804164      0.00215798365757
H   5.78824962538815     -7.67633218931421      0.00281691445618
H   -3.75352693944918     -8.85107156923607     -0.00353718114765
H   -1.28430440589466     -8.86087539249706     -0.00809229711623
H   1.18922157469537     -8.87416062058945     -0.00706194725726
H   3.65854661482387     -8.89086063405326     -0.00231318081200

    units angstrom      # Angstroms are the default
    no_reorient         # Geometry fixed, default
    symmetry c1         # C1 symmetry, default
}

set {
    scf_type DF         # Density fitting, faster than exact integrals
    freeze_core True    # Freeze core electrons
    basis jun-cc-pVDZ   # Jun-cc-pVDZ basis set, recommended for sSAPT0 in https://doi.org/10.1063/1.4867135
}

energy('ssapt0')        # Compute sSAPT0 energy, includes also SAPT0
--------------------------------------------------------------------------

  //              Dimer HF             //
    Molecular point group: c1
  Charge       = -1
  Multiplicity = 1
  Basis Set: JUN-CC-PVDZ
    Blend: JUN-CC-PVDZ
  Basis Set: (JUN-CC-PVDZ AUX)
    Blend: JUN-CC-PVDZ-JKFIT
  @DF-RHF Final Energy: -4073.10378875722699
    Total Energy =                      -4073.1037887572274485
 Dipole X            :         -0.0007616           -0.0000548           -0.0008164
 Dipole Y            :          0.0010254           -0.0002464            0.0007791
 Dipole Z            :         31.9324457          -44.0388547          -12.1064090
 Magnitude           :                                                   12.1064090
  //            Monomer A HF           //
    Molecular point group: c1
  Multiplicity = 1
  Basis Set: JUN-CC-PVDZ
    Blend: JUN-CC-PVDZ
  Basis Set: (JUN-CC-PVDZ AUX)
    Blend: JUN-CC-PVDZ-JKFIT
  @DF-RHF Final Energy:  -422.77141929252161
    Total Energy =                       -422.7714192925216139
  //            Monomer B HF           //
    Molecular point group: c1

    Geometry (in Angstrom), charge = 0, multiplicity = 1:

       Center              X                  Y                   Z               Mass
    ------------   -----------------  -----------------  -----------------  -----------------
      Gh(B)          -0.000201921932     0.000288800891     6.890352015271    11.009305360000
      Gh(F)          -0.000004162732     0.000014527991     8.303137015271    18.998403162730
      Gh(F)           1.147855837268     0.675795727991     6.419211015271    18.998403162730
      Gh(F)           0.011913897268    -1.331996472009     6.419413015271    18.998403162730
      Gh(F)          -1.159670162732     0.656088027991     6.419492015271    18.998403162730
         C           -3.668445426752     7.803766698073    -0.507781943394    12.000000000000
         C           -4.847602882078     7.131256359331    -0.510148518326    12.000000000000
         C           -4.894963461907     5.696344931522    -0.510721429424    12.000000000000
         C           -3.653744841505     4.980744868950    -0.503060987695    12.000000000000
         C           -2.409429284226     7.113995564665    -0.507587601133    12.000000000000
         C           -2.425481506836     5.681136478894    -0.514592490003    12.000000000000
         C           -1.194748179167     7.786158722300    -0.506115420591    12.000000000000
         C            0.037954866205     7.099436173748    -0.508286124896    12.000000000000
         C            0.030328424687     5.669504087695    -0.513769509812    12.000000000000
         C           -1.200988670637     4.969284875906    -0.504799775879    12.000000000000
         C            1.277953663083     7.772873971185    -0.506910276336    12.000000000000
         C            2.485353921992     7.087711413228    -0.509184764241    12.000000000000
         C            2.486124522185     5.654785338231    -0.516122513228    12.000000000000
         C            1.254078756912     4.956092641655    -0.504494571640    12.000000000000
         C            3.751710428674     7.763926678971    -0.509057912860    12.000000000000
         C            4.923561893453     7.078795304981    -0.511114393568    12.000000000000
         C            4.955603108594     5.643461991360    -0.511274806375    12.000000000000
         C            3.706797371473     4.941224736324    -0.506183246205    12.000000000000
         H           -3.658525300490     8.890841947126    -0.506096955143     1.007825032230
         H           -1.189217492488     8.874135615351    -0.502143544150     1.007825032230
         H            1.284290076155     8.860847963479    -0.502751452195     1.007825032230
         H            3.753537924068     8.851049806963    -0.507535388544     1.007825032230
         H            5.869954540475     7.613809362646    -0.512039760610     1.007825032230
         H           -5.788235870234     7.676316740925    -0.511708365682     1.007825032230
         C           -6.091978121428     4.993274541634    -0.512593669915    12.000000000000
         C           -6.128665643049     3.582594696789    -0.511392492887    12.000000000000
         C           -3.664583902777     3.564196707735    -0.514317587504    12.000000000000
         C           -4.894302367430     2.861095303891    -0.505148602519    12.000000000000
         C           -2.437339157630     2.847626185075    -0.502485808967    12.000000000000
         C           -1.209232020328     3.547901462969    -0.516164835759    12.000000000000
         C            1.247137409430     3.534695279420    -0.516973442165    12.000000000000
         C            0.015171876837     2.833126367296    -0.505289258940    12.000000000000
         C            2.467641009709     2.821304505246    -0.505189200816    12.000000000000
         C            3.702545311848     3.524674682415    -0.518677161659    12.000000000000
         C            6.144976223652     4.927586894122    -0.512508251587    12.000000000000
         C            6.166584196130     3.516599003933    -0.510341698150    12.000000000000
         C            4.924605795728     2.808422453345    -0.503802951913    12.000000000000
         H            7.089901346909     5.466902294214    -0.516270132436     1.007825032230
         H           -7.031045913833     5.542702480848    -0.516826884866     1.007825032230
         C           -7.339702203855     2.858426062570    -0.513019660328    12.000000000000
         C           -7.364886120791     1.470337899574    -0.511254122201    12.000000000000
         C           -4.903508771679     1.444441340151    -0.515970386392    12.000000000000
         C           -6.132261315343     0.739953885044    -0.503680342409    12.000000000000
         C           -3.676878963248     0.726711670664    -0.505342669993    12.000000000000
         C           -2.445660748797     1.429655661253    -0.515652380194    12.000000000000
         C           -1.223604844033     0.715339029625    -0.504223115663    12.000000000000
         C            0.007633706582     1.417397677228    -0.505757461945    12.000000000000
         C            1.231215645015     0.702131218578    -0.524584047601    12.000000000000
         C            2.460816937799     1.403306564116    -0.505079538710    12.000000000000
         C            3.684426091464     0.687212956203    -0.505908324988    12.000000000000
         C            4.918704738807     1.391749089180    -0.518310146623    12.000000000000
         C            7.369797915229     2.779496731175    -0.512102117943    12.000000000000
         C            7.380158503390     1.391232035846    -0.510555435097    12.000000000000
         C            6.139795376391     0.674133151191    -0.504227093285    12.000000000000
         H           -8.279194962078     3.407132569115    -0.517317212450     1.007825032230
         H            8.315109308748     3.318132624614    -0.516312693742     1.007825032230
         C           -8.591760100313     0.724847081035    -0.510913694583    12.000000000000
         C           -8.599028766435    -0.632625278238    -0.508790570000    12.000000000000
         C           -6.139817301850    -0.674122109163    -0.515779911335    12.000000000000
         C           -7.380188274869    -1.391251661591    -0.508363849794    12.000000000000
         C           -4.918688642988    -1.391740490039    -0.503439413186    12.000000000000
         C           -3.684442458416    -0.687222787745    -0.514471653250    12.000000000000
         C           -2.460821202979    -1.403330650834    -0.503928567061    12.000000000000
         C           -1.231166175052    -0.702159336890    -0.516048945853    12.000000000000
         C           -0.007573788119    -1.417404321420    -0.508592421549    12.000000000000
         C            1.223643553157    -0.715260849273    -0.498586799600    12.000000000000
         C            2.445666486600    -1.429628761016    -0.510336812360    12.000000000000
         C            3.676862540115    -0.726692903565    -0.514477396755    12.000000000000
         C            6.132244683688    -0.739964311859    -0.516005370968    12.000000000000
         C            4.903514982772    -1.444442992550    -0.502164296428    12.000000000000
         C            8.599010685959     0.632618394658    -0.510693318953    12.000000000000
         C            8.591741325369    -0.724836339203    -0.508956938692    12.000000000000
         C            7.364858601658    -1.470318137615    -0.509187115384    12.000000000000
         H           -9.528310134550     1.276861977183    -0.512383621547     1.007825032230
         H            9.541406811874     1.174587016435    -0.511745351214     1.007825032230
         C           -7.369842072500    -2.779530617943    -0.506555641372    12.000000000000
         C           -4.924603271782    -2.808422729350    -0.514287273808    12.000000000000
         C           -6.166626658399    -3.516637664835    -0.507985433649    12.000000000000
         C           -3.702514522437    -3.524667021130    -0.503963204622    12.000000000000
         C           -2.467651147846    -2.821311434813    -0.516007842979    12.000000000000
         C           -0.015137636839    -2.833127117409    -0.515726254470    12.000000000000
         C           -1.247126003958    -3.534717647572    -0.504162301062    12.000000000000
         C            1.209240906912    -3.547900150653    -0.501623271271    12.000000000000
         C            2.437331859423    -2.847627210185    -0.515763029581    12.000000000000
         C            4.894298181039    -2.861108440295    -0.514942289510    12.000000000000
         C            3.664611092309    -3.564205317541    -0.502062869570    12.000000000000
         C            6.128634852014    -3.582569529727    -0.508717027612    12.000000000000
         C            7.339668501964    -2.858398779380    -0.507201801530    12.000000000000
         H           -9.541453273991    -1.174548938674    -0.507421153827     1.007825032230
         H            9.528257705340    -1.276904545914    -0.507707130931     1.007825032230
         H           -8.315169206580    -3.318135325222    -0.502383412841     1.007825032230
         H            8.279150979760    -3.407126261903    -0.502862245548     1.007825032230
         C           -6.144998351434    -4.927632744793    -0.506659435589    12.000000000000
         C           -3.706787510729    -4.941247186127    -0.516480403677    12.000000000000
         C           -4.955594220733    -5.643479445504    -0.508513269032    12.000000000000
         C           -2.486125488958    -5.654771046419    -0.503540732632    12.000000000000
         C           -1.254062498212    -4.956107522011    -0.514716338618    12.000000000000
         C            1.201008411136    -4.969265860202    -0.513535214360    12.000000000000
         C           -0.030340837145    -5.669505775148    -0.505692014697    12.000000000000
         C            3.653745938597    -4.980729247424    -0.512777214612    12.000000000000
         C            2.425488533144    -5.681160107537    -0.503400284060    12.000000000000
         C            6.091961455079    -4.993243435396    -0.506422800939    12.000000000000
         C            4.894972281879    -5.696333892967    -0.507658996769    12.000000000000
         H           -7.089896550772    -5.466985314248    -0.502256673908     1.007825032230
         H            7.031051046468    -5.542644008342    -0.502843021175     1.007825032230
         C           -4.923549484930    -7.078806571687    -0.509068037937    12.000000000000
         C           -2.485346250970    -7.087713549939    -0.511577930373    12.000000000000
         C           -3.751690054511    -7.763932629646    -0.511383251448    12.000000000000
         C           -0.037953119720    -7.099450346479    -0.511362205225    12.000000000000
         C           -1.277960263133    -7.772889856676    -0.513346897987    12.000000000000
         C            2.409440157995    -7.114007484012    -0.510499004414    12.000000000000
         C            1.194745774421    -7.786170837572    -0.512651295296    12.000000000000
         C            4.847616889766    -7.131247582589    -0.507992189755    12.000000000000
         C            3.668467443144    -7.803773464953    -0.510340624119    12.000000000000
         H           -5.869944513148    -7.613816070051    -0.507524001072     1.007825032230
         H            5.788245462656    -7.676317661324    -0.506865070273     1.007825032230
         H           -3.753531102181    -8.851057041246    -0.513219165877     1.007825032230
         H           -1.284308568626    -8.860860864507    -0.517774281845     1.007825032230
         H            1.189217411964    -8.874146092599    -0.516743931986     1.007825032230
         H            3.658542452092    -8.890846106063    -0.511995165541     1.007825032230

  Charge       = 0
  Multiplicity = 1
  Basis Set: JUN-CC-PVDZ
    Blend: JUN-CC-PVDZ
  Basis Set: (JUN-CC-PVDZ AUX)
    Blend: JUN-CC-PVDZ-JKFIT

    Orbital Energies [Eh]
    ---------------------

    Doubly Occupied:

       1A    -11.264063     2A    -11.263748     3A    -11.263747
       4A    -11.263406     5A    -11.263403     6A    -11.263368
       7A    -11.263211     8A    -11.263185     9A    -11.263182
      10A    -11.263024    11A    -11.262865    12A    -11.262861
      13A    -11.262382    14A    -11.262379    15A    -11.262305
      16A    -11.262303    17A    -11.262253    18A    -11.262217
      19A    -11.262173    20A    -11.262134    21A    -11.262132
      22A    -11.261978    23A    -11.261975    24A    -11.261854
      25A    -11.261839    26A    -11.261825    27A    -11.261821
      28A    -11.261774    29A    -11.261767    30A    -11.261693
      31A    -11.261667    32A    -11.261664    33A    -11.261638
      34A    -11.261637    35A    -11.261617    36A    -11.261571
      37A    -11.261428    38A    -11.261416    39A    -11.261410
      40A    -11.261403    41A    -11.261398    42A    -11.261389
      43A    -11.261386    44A    -11.261372    45A    -11.261367
      46A    -11.261344    47A    -11.261341    48A    -11.261336
      49A    -11.261184    50A    -11.261154    51A    -11.261151
      52A    -11.261072    53A    -11.261071    54A    -11.261000
      55A    -11.260030    56A    -11.260016    57A    -11.260014
      58A    -11.259985    59A    -11.259983    60A    -11.259967
      61A    -11.259408    62A    -11.259382    63A    -11.259380
      64A    -11.259328    65A    -11.259326    66A    -11.259297
      67A    -11.259034    68A    -11.259017    69A    -11.259014
      70A    -11.258987    71A    -11.258985    72A    -11.258973
      73A    -11.254600    74A    -11.254598    75A    -11.254597
      76A    -11.254595    77A    -11.254589    78A    -11.254587
      79A    -11.253753    80A    -11.253751    81A    -11.253748
      82A    -11.253747    83A    -11.253745    84A    -11.253739
      85A    -11.253669    86A    -11.253667    87A    -11.253664
      88A    -11.253663    89A    -11.253660    90A    -11.253655
      91A    -11.253128    92A    -11.253126    93A    -11.253125
      94A    -11.253122    95A    -11.253117    96A    -11.253115
      97A     -1.254160    98A     -1.239160    99A     -1.239160
     100A     -1.220601   101A     -1.220596   102A     -1.215632
     103A     -1.201161   104A     -1.195731   105A     -1.188321
     106A     -1.188320   107A     -1.173881   108A     -1.173878
     109A     -1.155794   110A     -1.155790   111A     -1.152901
     112A     -1.144834   113A     -1.144831   114A     -1.128715
     115A     -1.114875   116A     -1.113276   117A     -1.112661
     118A     -1.112648   119A     -1.111723   120A     -1.088577
     121A     -1.088562   122A     -1.077071   123A     -1.077070
     124A     -1.067772   125A     -1.067742   126A     -1.065144
     127A     -1.046935   128A     -1.046928   129A     -1.040625
     130A     -1.038844   131A     -1.038843   132A     -1.025412
     133A     -1.021586   134A     -1.021536   135A     -1.007306
     136A     -1.006952   137A     -1.003926   138A     -1.000654
     139A     -1.000606   140A     -0.991179   141A     -0.971141
     142A     -0.971093   143A     -0.956005   144A     -0.955950
     145A     -0.905784   146A     -0.905742   147A     -0.905650
     148A     -0.905610   149A     -0.904542   150A     -0.892555
     151A     -0.892495   152A     -0.890538   153A     -0.890481
     154A     -0.889611   155A     -0.872334   156A     -0.869145
     157A     -0.851664   158A     -0.848033   159A     -0.848011
     160A     -0.845769   161A     -0.843172   162A     -0.834700
     163A     -0.834687   164A     -0.828226   165A     -0.828222
     166A     -0.784690   167A     -0.784679   168A     -0.783819
     169A     -0.783792   170A     -0.782438   171A     -0.782417
     172A     -0.782203   173A     -0.767125   174A     -0.760976
     175A     -0.750751   176A     -0.733600   177A     -0.727207
     178A     -0.727194   179A     -0.725233   180A     -0.724673
     181A     -0.724655   182A     -0.718680   183A     -0.713941
     184A     -0.713936   185A     -0.699710   186A     -0.699698
     187A     -0.686313   188A     -0.686074   189A     -0.686071
     190A     -0.682298   191A     -0.682287   192A     -0.678935
     193A     -0.653763   194A     -0.651011   195A     -0.650981
     196A     -0.649989   197A     -0.649973   198A     -0.649682
     199A     -0.641108   200A     -0.641081   201A     -0.640207
     202A     -0.639270   203A     -0.636179   204A     -0.636153
     205A     -0.629279   206A     -0.617667   207A     -0.615415
     208A     -0.615395   209A     -0.608929   210A     -0.608922
     211A     -0.599192   212A     -0.599153   213A     -0.598888
     214A     -0.598763   215A     -0.598737   216A     -0.598218
     217A     -0.595183   218A     -0.595170   219A     -0.594856
     220A     -0.594423   221A     -0.592105   222A     -0.592102
     223A     -0.587579   224A     -0.577887   225A     -0.577877
     226A     -0.575740   227A     -0.575737   228A     -0.573504
     229A     -0.569572   230A     -0.568316   231A     -0.568292
     232A     -0.566894   233A     -0.566884   234A     -0.561007
     235A     -0.558873   236A     -0.558855   237A     -0.558524
     238A     -0.554504   239A     -0.550636   240A     -0.547566
     241A     -0.544347   242A     -0.535042   243A     -0.535003
     244A     -0.533667   245A     -0.533644   246A     -0.528192
     247A     -0.528177   248A     -0.527976   249A     -0.517335
     250A     -0.517300   251A     -0.515432   252A     -0.515426
     253A     -0.509755   254A     -0.509739   255A     -0.498151
     256A     -0.496583   257A     -0.496558   258A     -0.493850
     259A     -0.493840   260A     -0.489483   261A     -0.481564
     262A     -0.477494   263A     -0.477491   264A     -0.474116
     265A     -0.469588   266A     -0.466665   267A     -0.466660
     268A     -0.458884   269A     -0.446880   270A     -0.446819
     271A     -0.441109   272A     -0.440833   273A     -0.440809
     274A     -0.434763   275A     -0.433980   276A     -0.407457
     277A     -0.407433   278A     -0.386494   279A     -0.386446
     280A     -0.385804   281A     -0.385803   282A     -0.383838
     283A     -0.354407   284A     -0.354391   285A     -0.350746
     286A     -0.338179   287A     -0.335680   288A     -0.335611
     289A     -0.332787   290A     -0.332780   291A     -0.307173
     292A     -0.302036   293A     -0.301974   294A     -0.300920
     295A     -0.286250   296A     -0.256533   297A     -0.253587
     298A     -0.253535   299A     -0.204344   300A     -0.204255

  @DF-RHF Final Energy: -3650.33751539364766

   => Energetics <=

    Nuclear Repulsion Energy =          15611.4211649754324753
    One-Electron Energy =              -36072.0713596928835614
    Two-Electron Energy =               16810.3126793238043319
    Total Energy =                      -3650.3375153936467541
 Dipole X            :         -0.0009577            0.0002304           -0.0007272
 Dipole Y            :          0.0010711           -0.0013052           -0.0002341
 Dipole Z            :        577.8911064         -577.8922254           -0.0011190
 Magnitude           :                                                    0.0013549

    SAPT Results
  --------------------------------------------------------------------------------------------------------
    Electrostatics                  7.83464502 [mEh]       4.91631397 [kcal/mol]      20.56985767 [kJ/mol]
      Elst10,r                      7.83464502 [mEh]       4.91631397 [kcal/mol]      20.56985767 [kJ/mol]

    Exchange                       -0.00013989 [mEh]      -0.00008779 [kcal/mol]      -0.00036729 [kJ/mol]
      Exch10                       -0.00013989 [mEh]      -0.00008779 [kcal/mol]      -0.00036729 [kJ/mol]
      Exch10(S^2)                  -0.00013989 [mEh]      -0.00008779 [kcal/mol]      -0.00036729 [kJ/mol]

    Induction                      -2.68857618 [mEh]      -1.68710703 [kcal/mol]      -7.05885580 [kJ/mol]
      Ind20,r                      -2.70064579 [mEh]      -1.69468082 [kcal/mol]      -7.09054454 [kJ/mol]
      Exch-Ind20,r                  0.00006308 [mEh]       0.00003958 [kcal/mol]       0.00016561 [kJ/mol]
      delta HF,r (2)                0.01200652 [mEh]       0.00753421 [kcal/mol]       0.03152313 [kJ/mol]

    Dispersion                     -0.34619734 [mEh]      -0.21724211 [kcal/mol]      -0.90894100 [kJ/mol]
      Disp20                       -0.34623081 [mEh]      -0.21726311 [kcal/mol]      -0.90902885 [kJ/mol]
      Exch-Disp20                   0.00003346 [mEh]       0.00002100 [kcal/mol]       0.00008785 [kJ/mol]
      Disp20 (SS)                  -0.17311540 [mEh]      -0.10863156 [kcal/mol]      -0.45451443 [kJ/mol]
      Disp20 (OS)                  -0.17311540 [mEh]      -0.10863156 [kcal/mol]      -0.45451443 [kJ/mol]
      Exch-Disp20 (SS)              0.00002594 [mEh]       0.00001628 [kcal/mol]       0.00006811 [kJ/mol]
      Exch-Disp20 (OS)              0.00000752 [mEh]       0.00000472 [kcal/mol]       0.00001974 [kJ/mol]

  Total HF                          5.14592894 [mEh]       3.22911916 [kcal/mol]      13.51063458 [kJ/mol]
  Total SAPT0                       4.79973160 [mEh]       3.01187705 [kcal/mol]      12.60169357 [kJ/mol]

  Special recipe for scaled SAPT0 (see Manual):
    Electrostatics sSAPT0           7.83464502 [mEh]       4.91631397 [kcal/mol]      20.56985767 [kJ/mol]
    Exchange sSAPT0                -0.00013989 [mEh]      -0.00008779 [kcal/mol]      -0.00036729 [kJ/mol]
    Induction sSAPT0               -2.68857618 [mEh]      -1.68710703 [kcal/mol]      -7.05885580 [kJ/mol]
    Dispersion sSAPT0              -0.34619734 [mEh]      -0.21724211 [kcal/mol]      -0.90894100 [kJ/mol]
  Total sSAPT0                      4.79973160 [mEh]       3.01187705 [kcal/mol]      12.60169357 [kJ/mol]
  --------------------------------------------------------------------------------------------------------

*** Psi4 exiting successfully. Buy a developer a beer!
