                               Psi4 1.9 release

  ==> Input File <==

--------------------------------------------------------------------------
memory 47 GB # how much memory is available ! Depends on the nodes/cores !

molecule dimer {
# monomer A
-1 1    # Charge and multiplicity
B -0.000046  0.000337 4.799994
F -1.153597  0.000048 5.615641
F  1.153661 -0.000581 5.615641
F -0.000019 -1.153637 3.984360
F -0.000019  1.153978 3.984360
--
# monomer B
0 1     # Charge and multiplicity
C   -3.66844126402057      7.80375217008252      0.00190004133558
C   -4.84759871934653      7.13124183134024     -0.00046653359696
C   -4.89495929917518      5.69633040353158     -0.00103944469517
C   -3.65374067877320      4.98073034095895      0.00662099703436
C   -2.40942512149445      7.11398103667468      0.00209438359570
C   -2.42547734410473      5.68112195090346     -0.00491050527438
C   -1.19474401643570      7.78614419430947      0.00356656413763
C   0.03795902893699      7.09942164575698      0.00139585983271
C   0.03033258741920      5.66948955970466     -0.00408752508301
C   -1.20098450790502      4.96927034791531      0.00488220885047
C   1.27795782581485      7.77285944319479      0.00277170839332
C   2.48535808472416      7.08769688523756      0.00049722048857
C   2.48612868491717      5.65477081024076     -0.00644052849921
C   1.25408291964399      4.95607811366431      0.00518741308898
C   3.75171459140595      7.76391215098033      0.00062407186893
C   4.92356605618520      7.07878077698995     -0.00143240883900
C   4.95560727132542      5.64344746336949     -0.00159282164606
C   3.70680153420475      4.94121020833308      0.00349873852374
H   -3.65852113775815      8.89082741913536      0.00358502958574
H   -1.18921332975660      8.87412108735996      0.00753844057883
H   1.28429423888630      8.86083343548850      0.00693053253426
H   3.75354208679975      8.85103527897216      0.00214659618464
H   5.86995870320703      7.61379483465560     -0.00235777588134
H   -5.78823170750226      7.67630221293400     -0.00202638095293
C   -6.09197395869619      4.99326001364347     -0.00291168518608
C   -6.12866148031747      3.58258016879823     -0.00171050815740
C   -3.66457974004527      3.56418217974434     -0.00463560277484
C   -4.89429820469869      2.86108077590057      0.00453338221034
C   -2.43733499489796      2.84761165708481      0.00719617576166
C   -1.20922785759670      3.54788693497833     -0.00648285103018
C   1.24714157216223      3.53468075142962     -0.00729145743546
C   0.01517603956900      2.83311183930540      0.00439272578912
C   2.46764517244071      2.82128997725533      0.00449278391269
C   3.70254947457969      3.52466015442405     -0.00899517692985
C   6.14498038638375      4.92757236613191     -0.00282626685777
C   6.16658835886151      3.51658447594213     -0.00065971342101
C   4.92460995845939      2.80840792535402      0.00587903281610
H   7.08990550964105      5.46688776622306     -0.00658814770723
H   -7.03104175110130      5.54268795285765     -0.00714490013730
C   -7.33969804112295      2.85841153457957     -0.00333767559888
C   -7.36488195805880      1.47032337158330     -0.00157213747140
C   -4.90350460894690      1.44442681216000     -0.00628840166334
C   -6.13225715261081      0.73993935705394      0.00600164231964
C   -3.67687480051673      0.72669714267312      0.00433931473643
C   -2.44565658606518      1.42964113326212     -0.00597039546461
C   -1.22360068130162      0.71532450163492      0.00545886906656
C   0.00763786931376      1.41738314923765      0.00392452278437
C   1.23121980774686      0.70211669058719     -0.01490206287210
C   2.46082110053113      1.40329203612573      0.00460244601878
C   3.68443025419614      0.68719842821222      0.00377365974158
C   4.91870890153864      1.39173456118907     -0.00862816189375
C   7.36980207796101      2.77948220318441     -0.00242013321349
C   7.38016266612146      1.39121750785509     -0.00087345036788
C   6.13979953912259      0.67411862320065      0.00545489144369
H   -8.27919079934664      3.40711804112415     -0.00763522772059
H   8.31511347147953      3.31811809662368     -0.00663070901292
C   -8.59175593758115      0.72483255304480     -0.00123170985383
C   -8.59902460370342     -0.63263980622873      0.00089141472904
C   -6.13981313911873     -0.67413663715361     -0.00609792660607
C   -7.38018411213749     -1.39126618958160      0.00131813493501
C   -4.91868448025621     -1.39175501803000      0.00624257154343
C   -3.68443829568458     -0.68723731573599     -0.00478966852105
C   -2.46081704024768     -1.40334517882457      0.00575341766833
C   -1.23116201232071     -0.70217386488055     -0.00636696112346
C   -0.00756962538737     -1.41741884941102      0.00108956317991
C   1.22364771588843     -0.71527537726392      0.01109518512883
C   2.44567064933149     -1.42964328900682     -0.00065482763106
C   3.67686670284649     -0.72670743155550     -0.00479541202602
C   6.13224884641929     -0.73997883984993     -0.00632338623858
C   4.90351914550401     -1.44445752054090      0.00751768830159
C   8.59901484869081      0.63260386666793     -0.00101133422380
C   8.59174548810050     -0.72485086719319      0.00072504603735
C   7.36486276438985     -1.47033266560598      0.00049486934466
H   -9.52830597181814      1.27684744919284     -0.00270163681798
H   9.54141097460619      1.17457248844457     -0.00206336648518
C   -7.36983790976868     -2.77954514593389      0.00312634335708
C   -4.92459910905015     -2.80843725734101     -0.00460528907921
C   -6.16662249566744     -3.51665219282533      0.00169655107992
C   -3.70251035970491     -3.52468154912026      0.00571878010666
C   -2.46764698511392     -2.82132596280400     -0.00632585824990
C   -0.01513347410770     -2.83314164539971     -0.00604426974092
C   -1.24712184122656     -3.53473217556300      0.00551968366725
C   1.20924506964357     -3.54791467864352      0.00805871345849
C   2.43733602215464     -2.84764173817541     -0.00608104485234
C   4.89430234377080     -2.86112296828604     -0.00526030478103
C   3.66461525504104     -3.56421984553201      0.00761911515957
C   6.12863901474565     -3.58258405771778      0.00096495711699
C   7.33967266469532     -2.85841330737039      0.00248018319869
H   -9.54144911125902     -1.17456346666430      0.00226083090216
H   9.52826186807155     -1.27691907390448      0.00197485379837
H   -8.31516504384864     -3.31814985321231      0.00729857188773
H   8.27915514249207     -3.40714078989363      0.00681973918158
C   -6.14499418870218     -4.92764727278338      0.00302254913999
C   -3.70678334799751     -4.94126171411716     -0.00679841894792
C   -4.95559005800169     -5.64349397349412      0.00116871569699
C   -2.48612132622665     -5.65478557440947      0.00614125209662
C   -1.25405833548005     -4.95612205000132     -0.00503435388927
C   1.20101257386816     -4.96928038819302     -0.00385322963129
C   -0.03033667441341     -5.66952030313900      0.00398997003238
C   3.65375010132847     -4.98074377541453     -0.00309522988330
C   2.42549269587528     -5.68117463552727      0.00628170066869
C   6.09196561781097     -4.99325796338655      0.00325918379042
C   4.89497644461045     -5.69634842095790      0.00202298796027
H   -7.08989238804069     -5.46699984223871      0.00742531082125
H   7.03105520920009     -5.54265853633254      0.00683896355417
C   -4.92354532219813     -7.07882109967734      0.00061394679214
C   -2.48534208823777     -7.08772807792913     -0.00189594564379
C   -3.75168589177895     -7.76394715763627     -0.00170126671874
C   -0.03794895698805     -7.09946487446944     -0.00168022049625
C   -1.27795610040136     -7.77290438466689     -0.00366491325785
C   2.40944432072629     -7.11402201200282     -0.00081701968533
C   1.19474993715296     -7.78618536556242     -0.00296931056689
C   4.84762105249800     -7.13126211057943      0.00168979497423
C   3.66847160587561     -7.80378799294376     -0.00065863938960
H   -5.86994035041618     -7.61383059804164      0.00215798365757
H   5.78824962538815     -7.67633218931421      0.00281691445618
H   -3.75352693944918     -8.85107156923607     -0.00353718114765
H   -1.28430440589466     -8.86087539249706     -0.00809229711623
H   1.18922157469537     -8.87416062058945     -0.00706194725726
H   3.65854661482387     -8.89086063405326     -0.00231318081200

    units angstrom      # Angstroms are the default
    no_reorient         # Geometry fixed, default
    symmetry c1         # C1 symmetry, default
}

set {
    scf_type DF         # Density fitting, faster than exact integrals
    freeze_core True    # Freeze core electrons
    basis jun-cc-pVDZ   # Jun-cc-pVDZ basis set, recommended for sSAPT0 in https://doi.org/10.1063/1.4867135
}

energy('ssapt0')        # Compute sSAPT0 energy, includes also SAPT0
--------------------------------------------------------------------------

  //              Dimer HF             //
    Molecular point group: c1
  Charge       = -1
  Multiplicity = 1
  Basis Set: JUN-CC-PVDZ
    Blend: JUN-CC-PVDZ
  Basis Set: (JUN-CC-PVDZ AUX)
    Blend: JUN-CC-PVDZ-JKFIT
  @DF-RHF Final Energy: -4073.10926882985859
    Total Energy =                      -4073.1092688298595021
 Dipole X            :          0.0005456           -0.0001188            0.0004268
 Dipole Y            :          0.0013159           -0.0002727            0.0010432
 Dipole Z            :         21.4284695          -28.5658676           -7.1373980
 Magnitude           :                                                    7.1373981
  //            Monomer A HF           //
    Molecular point group: c1
  Multiplicity = 1
  Basis Set: JUN-CC-PVDZ
    Blend: JUN-CC-PVDZ
  Basis Set: (JUN-CC-PVDZ AUX)
    Blend: JUN-CC-PVDZ-JKFIT
  @DF-RHF Final Energy:  -422.77224617440436
    Total Energy =                       -422.7722461744043585
  //            Monomer B HF           //
    Molecular point group: c1

    Geometry (in Angstrom), charge = 0, multiplicity = 1:

       Center              X                  Y                   Z               Mass
    ------------   -----------------  -----------------  -----------------  -----------------
      Gh(B)          -0.000050191042     0.000351518223     4.469388400864    11.009305360000
      Gh(F)          -1.153601191042     0.000062518223     5.285035400864    18.998403162730
      Gh(F)           1.153656808958    -0.000566481777     5.285035400864    18.998403162730
      Gh(F)          -0.000023191042    -1.153622481777     3.653754400864    18.998403162730
      Gh(F)          -0.000023191042     1.153992518223     3.653754400864    18.998403162730
         C           -3.668445455062     7.803766688305    -0.328705557801    12.000000000000
         C           -4.847602910388     7.131256349563    -0.331072132733    12.000000000000
         C           -4.894963490217     5.696344921754    -0.331645043832    12.000000000000
         C           -3.653744869815     4.980744859182    -0.323984602102    12.000000000000
         C           -2.409429312536     7.113995554897    -0.328511215541    12.000000000000
         C           -2.425481535146     5.681136469126    -0.335516104411    12.000000000000
         C           -1.194748207477     7.786158712532    -0.327039034999    12.000000000000
         C            0.037954837895     7.099436163980    -0.329209739304    12.000000000000
         C            0.030328396378     5.669504077927    -0.334693124219    12.000000000000
         C           -1.200988698947     4.969284866138    -0.325723390286    12.000000000000
         C            1.277953634773     7.772873961417    -0.327833890743    12.000000000000
         C            2.485353893683     7.087711403460    -0.330108378648    12.000000000000
         C            2.486124493876     5.654785328463    -0.337046127636    12.000000000000
         C            1.254078728602     4.956092631887    -0.325418186047    12.000000000000
         C            3.751710400364     7.763926669203    -0.329981527267    12.000000000000
         C            4.923561865144     7.078795295213    -0.332038007975    12.000000000000
         C            4.955603080284     5.643461981592    -0.332198420782    12.000000000000
         C            3.706797343163     4.941224726556    -0.327106860613    12.000000000000
         H           -3.658525328800     8.890841937358    -0.327020569551     1.007825032230
         H           -1.189217520798     8.874135605583    -0.323067158558     1.007825032230
         H            1.284290047845     8.860847953711    -0.323675066602     1.007825032230
         H            3.753537895758     8.851049797195    -0.328459002952     1.007825032230
         H            5.869954512165     7.613809352878    -0.332963375018     1.007825032230
         H           -5.788235898544     7.676316731157    -0.332631980089     1.007825032230
         C           -6.091978149738     4.993274531866    -0.333517284323    12.000000000000
         C           -6.128665671359     3.582594687021    -0.332316107294    12.000000000000
         C           -3.664583931087     3.564196697967    -0.335241201911    12.000000000000
         C           -4.894302395740     2.861095294123    -0.326072216926    12.000000000000
         C           -2.437339185940     2.847626175307    -0.323409423375    12.000000000000
         C           -1.209232048638     3.547901453201    -0.337088450167    12.000000000000
         C            1.247137381121     3.534695269652    -0.337897056572    12.000000000000
         C            0.015171848527     2.833126357528    -0.326212873347    12.000000000000
         C            2.467640981399     2.821304495478    -0.326112815224    12.000000000000
         C            3.702545283538     3.524674672647    -0.339600776066    12.000000000000
         C            6.144976195342     4.927586884354    -0.333431865994    12.000000000000
         C            6.166584167820     3.516598994165    -0.331265312557    12.000000000000
         C            4.924605767418     2.808422443577    -0.324726566320    12.000000000000
         H            7.089901318599     5.466902284446    -0.337193746844     1.007825032230
         H           -7.031045942143     5.542702471080    -0.337750499274     1.007825032230
         C           -7.339702232165     2.858426052802    -0.333943274735    12.000000000000
         C           -7.364886149100     1.470337889806    -0.332177736608    12.000000000000
         C           -4.903508799989     1.444441330383    -0.336894000800    12.000000000000
         C           -6.132261343652     0.739953875277    -0.324603956817    12.000000000000
         C           -3.676878991558     0.726711660896    -0.326266284400    12.000000000000
         C           -2.445660777107     1.429655651485    -0.336575994601    12.000000000000
         C           -1.223604872343     0.715339019858    -0.325146730070    12.000000000000
         C            0.007633678272     1.417397667460    -0.326681076352    12.000000000000
         C            1.231215616705     0.702131208810    -0.345507662009    12.000000000000
         C            2.460816909489     1.403306554348    -0.326003153118    12.000000000000
         C            3.684426063155     0.687212946435    -0.326831939395    12.000000000000
         C            4.918704710497     1.391749079412    -0.339233761030    12.000000000000
         C            7.369797886919     2.779496721407    -0.333025732350    12.000000000000
         C            7.380158475080     1.391232026078    -0.331479049504    12.000000000000
         C            6.139795348081     0.674133141423    -0.325150707693    12.000000000000
         H           -8.279194990388     3.407132559347    -0.338240826857     1.007825032230
         H            8.315109280438     3.318132614846    -0.337236308149     1.007825032230
         C           -8.591760128623     0.724847071267    -0.331837308990    12.000000000000
         C           -8.599028794745    -0.632625288006    -0.329714184407    12.000000000000
         C           -6.139817330160    -0.674122118931    -0.336703525742    12.000000000000
         C           -7.380188303179    -1.391251671359    -0.329287464201    12.000000000000
         C           -4.918688671298    -1.391740499807    -0.324363027593    12.000000000000
         C           -3.684442486726    -0.687222797513    -0.335395267657    12.000000000000
         C           -2.460821231289    -1.403330660602    -0.324852181468    12.000000000000
         C           -1.231166203362    -0.702159346658    -0.336972560260    12.000000000000
         C           -0.007573816429    -1.417404331188    -0.329516035957    12.000000000000
         C            1.223643524847    -0.715260859041    -0.319510414008    12.000000000000
         C            2.445666458290    -1.429628770784    -0.331260426767    12.000000000000
         C            3.676862511805    -0.726692913333    -0.335401011162    12.000000000000
         C            6.132244655378    -0.739964321627    -0.336928985375    12.000000000000
         C            4.903514954462    -1.444443002318    -0.323087910835    12.000000000000
         C            8.599010657649     0.632618384891    -0.331616933360    12.000000000000
         C            8.591741297059    -0.724836348971    -0.329880553099    12.000000000000
         C            7.364858573348    -1.470318147383    -0.330110729792    12.000000000000
         H           -9.528310162860     1.276861967415    -0.333307235954     1.007825032230
         H            9.541406783565     1.174587006667    -0.332668965622     1.007825032230
         C           -7.369842100810    -2.779530627711    -0.327479255779    12.000000000000
         C           -4.924603300092    -2.808422739118    -0.335210888216    12.000000000000
         C           -6.166626686709    -3.516637674603    -0.328909048057    12.000000000000
         C           -3.702514550747    -3.524667030898    -0.324886819030    12.000000000000
         C           -2.467651176156    -2.821311444581    -0.336931457386    12.000000000000
         C           -0.015137665149    -2.833127127177    -0.336649868877    12.000000000000
         C           -1.247126032268    -3.534717657340    -0.325085915469    12.000000000000
         C            1.209240878602    -3.547900160421    -0.322546885678    12.000000000000
         C            2.437331831113    -2.847627219953    -0.336686643989    12.000000000000
         C            4.894298152729    -2.861108450063    -0.335865903917    12.000000000000
         C            3.664611063999    -3.564205327309    -0.322986483977    12.000000000000
         C            6.128634823704    -3.582569539495    -0.329640642019    12.000000000000
         C            7.339668473654    -2.858398789148    -0.328125415938    12.000000000000
         H           -9.541453302301    -1.174548948442    -0.328344768234     1.007825032230
         H            9.528257677030    -1.276904555682    -0.328630745338     1.007825032230
         H           -8.315169234890    -3.318135334990    -0.323307027249     1.007825032230
         H            8.279150951450    -3.407126271671    -0.323785859955     1.007825032230
         C           -6.144998379744    -4.927632754561    -0.327583049996    12.000000000000
         C           -3.706787539039    -4.941247195895    -0.337404018084    12.000000000000
         C           -4.955594249043    -5.643479455272    -0.329436883439    12.000000000000
         C           -2.486125517268    -5.654771056187    -0.324464347040    12.000000000000
         C           -1.254062526522    -4.956107531779    -0.335639953026    12.000000000000
         C            1.201008382827    -4.969265869970    -0.334458828768    12.000000000000
         C           -0.030340865455    -5.669505784916    -0.326615629104    12.000000000000
         C            3.653745910287    -4.980729257192    -0.333700829020    12.000000000000
         C            2.425488504834    -5.681160117305    -0.324323898468    12.000000000000
         C            6.091961426769    -4.993243445164    -0.327346415346    12.000000000000
         C            4.894972253569    -5.696333902735    -0.328582611176    12.000000000000
         H           -7.089896579082    -5.466985324016    -0.323180288315     1.007825032230
         H            7.031051018158    -5.542644018110    -0.323766635582     1.007825032230
         C           -4.923549513240    -7.078806581455    -0.329991652344    12.000000000000
         C           -2.485346279279    -7.087713559707    -0.332501544780    12.000000000000
         C           -3.751690082821    -7.763932639414    -0.332306865855    12.000000000000
         C           -0.037953148030    -7.099450356247    -0.332285819633    12.000000000000
         C           -1.277960291443    -7.772889866444    -0.334270512394    12.000000000000
         C            2.409440129685    -7.114007493780    -0.331422618822    12.000000000000
         C            1.194745746111    -7.786170847340    -0.333574909703    12.000000000000
         C            4.847616861456    -7.131247592357    -0.328915804162    12.000000000000
         C            3.668467414834    -7.803773474721    -0.331264238526    12.000000000000
         H           -5.869944541458    -7.613816079819    -0.328447615479     1.007825032230
         H            5.788245434347    -7.676317671092    -0.327788684680     1.007825032230
         H           -3.753531130491    -8.851057051013    -0.334142780284     1.007825032230
         H           -1.284308596936    -8.860860874274    -0.338697896253     1.007825032230
         H            1.189217383654    -8.874146102367    -0.337667546394     1.007825032230
         H            3.658542423782    -8.890846115831    -0.332918779948     1.007825032230

  Charge       = 0
  Multiplicity = 1
  Basis Set: JUN-CC-PVDZ
    Blend: JUN-CC-PVDZ
  Basis Set: (JUN-CC-PVDZ AUX)
    Blend: JUN-CC-PVDZ-JKFIT

    Orbital Energies [Eh]
    ---------------------

    Doubly Occupied:

       1A    -11.264059     2A    -11.263748     3A    -11.263690
       4A    -11.263362     5A    -11.263318     6A    -11.263298
       7A    -11.263156     8A    -11.263144     9A    -11.263118
      10A    -11.262933    11A    -11.262794    12A    -11.262785
      13A    -11.262308    14A    -11.262297    15A    -11.262258
      16A    -11.262242    17A    -11.262167    18A    -11.262149
      19A    -11.262107    20A    -11.262071    21A    -11.262058
      22A    -11.261945    23A    -11.261920    24A    -11.261794
      25A    -11.261781    26A    -11.261770    27A    -11.261756
      28A    -11.261721    29A    -11.261706    30A    -11.261622
      31A    -11.261601    32A    -11.261595    33A    -11.261573
      34A    -11.261566    35A    -11.261548    36A    -11.261547
      37A    -11.261369    38A    -11.261360    39A    -11.261353
      40A    -11.261346    41A    -11.261343    42A    -11.261336
      43A    -11.261326    44A    -11.261308    45A    -11.261306
      46A    -11.261281    47A    -11.261278    48A    -11.261273
      49A    -11.261104    50A    -11.261072    51A    -11.261068
      52A    -11.260999    53A    -11.260983    54A    -11.260926
      55A    -11.259961    56A    -11.259948    57A    -11.259943
      58A    -11.259917    59A    -11.259911    60A    -11.259897
      61A    -11.259333    62A    -11.259309    63A    -11.259304
      64A    -11.259253    65A    -11.259249    66A    -11.259221
      67A    -11.258964    68A    -11.258948    69A    -11.258942
      70A    -11.258918    71A    -11.258912    72A    -11.258902
      73A    -11.254554    74A    -11.254554    75A    -11.254553
      76A    -11.254549    77A    -11.254544    78A    -11.254543
      79A    -11.253693    80A    -11.253691    81A    -11.253688
      82A    -11.253686    83A    -11.253686    84A    -11.253681
      85A    -11.253609    86A    -11.253607    87A    -11.253603
      88A    -11.253602    89A    -11.253601    90A    -11.253596
      91A    -11.253082    92A    -11.253082    93A    -11.253081
      94A    -11.253077    95A    -11.253072    96A    -11.253071
      97A     -1.254003    98A     -1.239061    99A     -1.239045
     100A     -1.220515   101A     -1.220510   102A     -1.215490
     103A     -1.201088   104A     -1.195653   105A     -1.188199
     106A     -1.188186   107A     -1.173811   108A     -1.173805
     109A     -1.155682   110A     -1.155679   111A     -1.152765
     112A     -1.144766   113A     -1.144763   114A     -1.128620
     115A     -1.114767   116A     -1.113205   117A     -1.112528
     118A     -1.112522   119A     -1.111660   120A     -1.088482
     121A     -1.088462   122A     -1.077003   123A     -1.077002
     124A     -1.067665   125A     -1.067639   126A     -1.065022
     127A     -1.046849   128A     -1.046842   129A     -1.040531
     130A     -1.038777   131A     -1.038775   132A     -1.025293
     133A     -1.021438   134A     -1.021393   135A     -1.007225
     136A     -1.006864   137A     -1.003841   138A     -1.000541
     139A     -1.000493   140A     -0.991114   141A     -0.971037
     142A     -0.970991   143A     -0.955926   144A     -0.955871
     145A     -0.905649   146A     -0.905603   147A     -0.905588
     148A     -0.905549   149A     -0.904390   150A     -0.892421
     151A     -0.892370   152A     -0.890420   153A     -0.890355
     154A     -0.889508   155A     -0.872259   156A     -0.869091
     157A     -0.851584   158A     -0.847919   159A     -0.847898
     160A     -0.845649   161A     -0.843071   162A     -0.834613
     163A     -0.834599   164A     -0.828154   165A     -0.828153
     166A     -0.784595   167A     -0.784583   168A     -0.783711
     169A     -0.783678   170A     -0.782334   171A     -0.782319
     172A     -0.782084   173A     -0.767040   174A     -0.760845
     175A     -0.750622   176A     -0.733526   177A     -0.727115
     178A     -0.727107   179A     -0.725133   180A     -0.724585
     181A     -0.724573   182A     -0.718541   183A     -0.713822
     184A     -0.713816   185A     -0.699616   186A     -0.699611
     187A     -0.686172   188A     -0.685999   189A     -0.685998
     190A     -0.682221   191A     -0.682205   192A     -0.678816
     193A     -0.653666   194A     -0.650914   195A     -0.650887
     196A     -0.649863   197A     -0.649844   198A     -0.649606
     199A     -0.640970   200A     -0.640958   201A     -0.640131
     202A     -0.639202   203A     -0.636063   204A     -0.636042
     205A     -0.629188   206A     -0.617754   207A     -0.615342
     208A     -0.615324   209A     -0.608845   210A     -0.608838
     211A     -0.599168   212A     -0.599096   213A     -0.598787
     214A     -0.598664   215A     -0.598628   216A     -0.598082
     217A     -0.595107   218A     -0.595096   219A     -0.594765
     220A     -0.594285   221A     -0.591999   222A     -0.591996
     223A     -0.587441   224A     -0.577828   225A     -0.577819
     226A     -0.575686   227A     -0.575684   228A     -0.573424
     229A     -0.569601   230A     -0.568183   231A     -0.568165
     232A     -0.566800   233A     -0.566783   234A     -0.560946
     235A     -0.558760   236A     -0.558747   237A     -0.558461
     238A     -0.554411   239A     -0.550579   240A     -0.547507
     241A     -0.544289   242A     -0.535073   243A     -0.534966
     244A     -0.533576   245A     -0.533552   246A     -0.528115
     247A     -0.528101   248A     -0.527841   249A     -0.517205
     250A     -0.517172   251A     -0.515376   252A     -0.515370
     253A     -0.509682   254A     -0.509663   255A     -0.498068
     256A     -0.496491   257A     -0.496464   258A     -0.493807
     259A     -0.493787   260A     -0.489458   261A     -0.481489
     262A     -0.477443   263A     -0.477437   264A     -0.474034
     265A     -0.469487   266A     -0.466569   267A     -0.466563
     268A     -0.458822   269A     -0.446737   270A     -0.446674
     271A     -0.441052   272A     -0.440788   273A     -0.440769
     274A     -0.434709   275A     -0.433929   276A     -0.407393
     277A     -0.407374   278A     -0.386426   279A     -0.386376
     280A     -0.385753   281A     -0.385750   282A     -0.383774
     283A     -0.354339   284A     -0.354326   285A     -0.350681
     286A     -0.338112   287A     -0.335631   288A     -0.335531
     289A     -0.332734   290A     -0.332725   291A     -0.307092
     292A     -0.301956   293A     -0.301905   294A     -0.300863
     295A     -0.286192   296A     -0.256486   297A     -0.253527
     298A     -0.253460   299A     -0.204280   300A     -0.204195

  @DF-RHF Final Energy: -3650.33911673039029

   => Energetics <=

    Nuclear Repulsion Energy =          15611.4211649754324753
    One-Electron Energy =              -36072.1220692683491507
    Two-Electron Energy =               16810.3617875625277520
    Total Energy =                      -3650.3391167303889233
 Dipole X            :         -0.0006305            0.0001983           -0.0004321
 Dipole Y            :          0.0011297           -0.0013163           -0.0001866
 Dipole Z            :        374.8440418         -374.8490308           -0.0049890
 Magnitude           :                                                    0.0050112

    SAPT Results
  --------------------------------------------------------------------------------------------------------
    Electrostatics                 11.29415819 [mEh]       7.08719126 [kcal/mol]      29.65280825 [kJ/mol]
      Elst10,r                     11.29415819 [mEh]       7.08719126 [kcal/mol]      29.65280825 [kJ/mol]

    Exchange                        0.26905816 [mEh]       0.16883654 [kcal/mol]       0.70641210 [kJ/mol]
      Exch10                        0.26905816 [mEh]       0.16883654 [kcal/mol]       0.70641210 [kJ/mol]
      Exch10(S^2)                   0.26906339 [mEh]       0.16883983 [kcal/mol]       0.70642584 [kJ/mol]

    Induction                      -9.46914142 [mEh]      -5.94197595 [kcal/mol]     -24.86122736 [kJ/mol]
      Ind20,r                      -9.56549635 [mEh]      -6.00243958 [kcal/mol]     -25.11420721 [kJ/mol]
      Exch-Ind20,r                  0.05335044 [mEh]       0.03347791 [kcal/mol]       0.14007157 [kJ/mol]
      delta HF,r (2)                0.04300449 [mEh]       0.02698573 [kcal/mol]       0.11290827 [kJ/mol]

    Dispersion                     -3.02399715 [mEh]      -1.89758686 [kcal/mol]      -7.93950343 [kJ/mol]
      Disp20                       -3.09132537 [mEh]      -1.93983595 [kcal/mol]      -8.11627363 [kJ/mol]
      Exch-Disp20                   0.06732821 [mEh]       0.04224909 [kcal/mol]       0.17677020 [kJ/mol]
      Disp20 (SS)                  -1.54566268 [mEh]      -0.96991798 [kcal/mol]      -4.05813681 [kJ/mol]
      Disp20 (OS)                  -1.54566268 [mEh]      -0.96991798 [kcal/mol]      -4.05813681 [kJ/mol]
      Exch-Disp20 (SS)              0.04517626 [mEh]       0.02834853 [kcal/mol]       0.11861024 [kJ/mol]
      Exch-Disp20 (OS)              0.02215196 [mEh]       0.01390056 [kcal/mol]       0.05815996 [kJ/mol]

  Total HF                          2.09407494 [mEh]       1.31405186 [kcal/mol]       5.49799299 [kJ/mol]
  Total SAPT0                      -0.92992222 [mEh]      -0.58353500 [kcal/mol]      -2.44151044 [kJ/mol]

  Special recipe for scaled SAPT0 (see Manual):
    Electrostatics sSAPT0          11.29415819 [mEh]       7.08719126 [kcal/mol]      29.65280825 [kJ/mol]
    Exchange sSAPT0                 0.26905816 [mEh]       0.16883654 [kcal/mol]       0.70641210 [kJ/mol]
    Induction sSAPT0               -9.46914453 [mEh]      -5.94197790 [kcal/mol]     -24.86123554 [kJ/mol]
    Dispersion sSAPT0              -3.02400108 [mEh]      -1.89758933 [kcal/mol]      -7.93951374 [kJ/mol]
  Total sSAPT0                     -0.92992926 [mEh]      -0.58353942 [kcal/mol]      -2.44152893 [kJ/mol]
  --------------------------------------------------------------------------------------------------------

*** Psi4 exiting successfully. Buy a developer a beer!
