                               Psi4 1.9 release

  ==> Input File <==

--------------------------------------------------------------------------
memory 64 GB # how much memory is available ! Depends on the nodes/cores !

molecule dimer {
# monomer A
+1 1    # Charge and multiplicity
C  0.680067 1.417258 -10.215929
C -0.680504 1.419286 -10.215545
N -1.085635 1.420284  -8.897221
C  0.000108 1.423560  -8.115820
C -2.477365 1.469690  -8.429242
N  1.085222 1.420284  -8.897221
H  1.385146 1.409430 -11.033368
H -1.385302 1.419096 -11.033214
H -0.000009 1.425307  -7.034731
C  2.478117 1.403392  -8.432123
H  2.490592 1.430737  -7.341870
H  2.967028 0.489946  -8.779299
H  3.001428 2.278875  -8.823595
H -2.857359 2.491761  -8.509201
H -3.082679 0.799606  -9.042306
H -2.518128 1.142706  -7.389294
--
# monomer B
0 1     # Charge and multiplicity
C   -3.66844126402057      7.80375217008252      0.00190004133558
C   -4.84759871934653      7.13124183134024     -0.00046653359696
C   -4.89495929917518      5.69633040353158     -0.00103944469517
C   -3.65374067877320      4.98073034095895      0.00662099703436
C   -2.40942512149445      7.11398103667468      0.00209438359570
C   -2.42547734410473      5.68112195090346     -0.00491050527438
C   -1.19474401643570      7.78614419430947      0.00356656413763
C   0.03795902893699      7.09942164575698      0.00139585983271
C   0.03033258741920      5.66948955970466     -0.00408752508301
C   -1.20098450790502      4.96927034791531      0.00488220885047
C   1.27795782581485      7.77285944319479      0.00277170839332
C   2.48535808472416      7.08769688523756      0.00049722048857
C   2.48612868491717      5.65477081024076     -0.00644052849921
C   1.25408291964399      4.95607811366431      0.00518741308898
C   3.75171459140595      7.76391215098033      0.00062407186893
C   4.92356605618520      7.07878077698995     -0.00143240883900
C   4.95560727132542      5.64344746336949     -0.00159282164606
C   3.70680153420475      4.94121020833308      0.00349873852374
H   -3.65852113775815      8.89082741913536      0.00358502958574
H   -1.18921332975660      8.87412108735996      0.00753844057883
H   1.28429423888630      8.86083343548850      0.00693053253426
H   3.75354208679975      8.85103527897216      0.00214659618464
H   5.86995870320703      7.61379483465560     -0.00235777588134
H   -5.78823170750226      7.67630221293400     -0.00202638095293
C   -6.09197395869619      4.99326001364347     -0.00291168518608
C   -6.12866148031747      3.58258016879823     -0.00171050815740
C   -3.66457974004527      3.56418217974434     -0.00463560277484
C   -4.89429820469869      2.86108077590057      0.00453338221034
C   -2.43733499489796      2.84761165708481      0.00719617576166
C   -1.20922785759670      3.54788693497833     -0.00648285103018
C   1.24714157216223      3.53468075142962     -0.00729145743546
C   0.01517603956900      2.83311183930540      0.00439272578912
C   2.46764517244071      2.82128997725533      0.00449278391269
C   3.70254947457969      3.52466015442405     -0.00899517692985
C   6.14498038638375      4.92757236613191     -0.00282626685777
C   6.16658835886151      3.51658447594213     -0.00065971342101
C   4.92460995845939      2.80840792535402      0.00587903281610
H   7.08990550964105      5.46688776622306     -0.00658814770723
H   -7.03104175110130      5.54268795285765     -0.00714490013730
C   -7.33969804112295      2.85841153457957     -0.00333767559888
C   -7.36488195805880      1.47032337158330     -0.00157213747140
C   -4.90350460894690      1.44442681216000     -0.00628840166334
C   -6.13225715261081      0.73993935705394      0.00600164231964
C   -3.67687480051673      0.72669714267312      0.00433931473643
C   -2.44565658606518      1.42964113326212     -0.00597039546461
C   -1.22360068130162      0.71532450163492      0.00545886906656
C   0.00763786931376      1.41738314923765      0.00392452278437
C   1.23121980774686      0.70211669058719     -0.01490206287210
C   2.46082110053113      1.40329203612573      0.00460244601878
C   3.68443025419614      0.68719842821222      0.00377365974158
C   4.91870890153864      1.39173456118907     -0.00862816189375
C   7.36980207796101      2.77948220318441     -0.00242013321349
C   7.38016266612146      1.39121750785509     -0.00087345036788
C   6.13979953912259      0.67411862320065      0.00545489144369
H   -8.27919079934664      3.40711804112415     -0.00763522772059
H   8.31511347147953      3.31811809662368     -0.00663070901292
C   -8.59175593758115      0.72483255304480     -0.00123170985383
C   -8.59902460370342     -0.63263980622873      0.00089141472904
C   -6.13981313911873     -0.67413663715361     -0.00609792660607
C   -7.38018411213749     -1.39126618958160      0.00131813493501
C   -4.91868448025621     -1.39175501803000      0.00624257154343
C   -3.68443829568458     -0.68723731573599     -0.00478966852105
C   -2.46081704024768     -1.40334517882457      0.00575341766833
C   -1.23116201232071     -0.70217386488055     -0.00636696112346
C   -0.00756962538737     -1.41741884941102      0.00108956317991
C   1.22364771588843     -0.71527537726392      0.01109518512883
C   2.44567064933149     -1.42964328900682     -0.00065482763106
C   3.67686670284649     -0.72670743155550     -0.00479541202602
C   6.13224884641929     -0.73997883984993     -0.00632338623858
C   4.90351914550401     -1.44445752054090      0.00751768830159
C   8.59901484869081      0.63260386666793     -0.00101133422380
C   8.59174548810050     -0.72485086719319      0.00072504603735
C   7.36486276438985     -1.47033266560598      0.00049486934466
H   -9.52830597181814      1.27684744919284     -0.00270163681798
H   9.54141097460619      1.17457248844457     -0.00206336648518
C   -7.36983790976868     -2.77954514593389      0.00312634335708
C   -4.92459910905015     -2.80843725734101     -0.00460528907921
C   -6.16662249566744     -3.51665219282533      0.00169655107992
C   -3.70251035970491     -3.52468154912026      0.00571878010666
C   -2.46764698511392     -2.82132596280400     -0.00632585824990
C   -0.01513347410770     -2.83314164539971     -0.00604426974092
C   -1.24712184122656     -3.53473217556300      0.00551968366725
C   1.20924506964357     -3.54791467864352      0.00805871345849
C   2.43733602215464     -2.84764173817541     -0.00608104485234
C   4.89430234377080     -2.86112296828604     -0.00526030478103
C   3.66461525504104     -3.56421984553201      0.00761911515957
C   6.12863901474565     -3.58258405771778      0.00096495711699
C   7.33967266469532     -2.85841330737039      0.00248018319869
H   -9.54144911125902     -1.17456346666430      0.00226083090216
H   9.52826186807155     -1.27691907390448      0.00197485379837
H   -8.31516504384864     -3.31814985321231      0.00729857188773
H   8.27915514249207     -3.40714078989363      0.00681973918158
C   -6.14499418870218     -4.92764727278338      0.00302254913999
C   -3.70678334799751     -4.94126171411716     -0.00679841894792
C   -4.95559005800169     -5.64349397349412      0.00116871569699
C   -2.48612132622665     -5.65478557440947      0.00614125209662
C   -1.25405833548005     -4.95612205000132     -0.00503435388927
C   1.20101257386816     -4.96928038819302     -0.00385322963129
C   -0.03033667441341     -5.66952030313900      0.00398997003238
C   3.65375010132847     -4.98074377541453     -0.00309522988330
C   2.42549269587528     -5.68117463552727      0.00628170066869
C   6.09196561781097     -4.99325796338655      0.00325918379042
C   4.89497644461045     -5.69634842095790      0.00202298796027
H   -7.08989238804069     -5.46699984223871      0.00742531082125
H   7.03105520920009     -5.54265853633254      0.00683896355417
C   -4.92354532219813     -7.07882109967734      0.00061394679214
C   -2.48534208823777     -7.08772807792913     -0.00189594564379
C   -3.75168589177895     -7.76394715763627     -0.00170126671874
C   -0.03794895698805     -7.09946487446944     -0.00168022049625
C   -1.27795610040136     -7.77290438466689     -0.00366491325785
C   2.40944432072629     -7.11402201200282     -0.00081701968533
C   1.19474993715296     -7.78618536556242     -0.00296931056689
C   4.84762105249800     -7.13126211057943      0.00168979497423
C   3.66847160587561     -7.80378799294376     -0.00065863938960
H   -5.86994035041618     -7.61383059804164      0.00215798365757
H   5.78824962538815     -7.67633218931421      0.00281691445618
H   -3.75352693944918     -8.85107156923607     -0.00353718114765
H   -1.28430440589466     -8.86087539249706     -0.00809229711623
H   1.18922157469537     -8.87416062058945     -0.00706194725726
H   3.65854661482387     -8.89086063405326     -0.00231318081200

    units angstrom      # Angstroms are the default
    no_reorient         # Geometry fixed, default
    symmetry c1         # C1 symmetry, default
}

set {
    scf_type DF         # Density fitting, faster than exact integrals
    freeze_core True    # Freeze core electrons
    basis jun-cc-pVDZ   # Jun-cc-pVDZ basis set, recommended for sSAPT0 in https://doi.org/10.1063/1.4867135
}

energy('ssapt0')        # Compute sSAPT0 energy, includes also SAPT0
--------------------------------------------------------------------------

  //              Dimer HF             //
    Molecular point group: c1
  Charge       = 1
  Multiplicity = 1
  Basis Set: JUN-CC-PVDZ
    Blend: JUN-CC-PVDZ
  Basis Set: (JUN-CC-PVDZ AUX)
    Blend: JUN-CC-PVDZ-JKFIT
  @DF-RHF Final Energy: -3953.64287651199948
    Total Energy =                      -3953.6428765119999298
 Dipole X            :         -0.0021866            0.0004804           -0.0017062
 Dipole Y            :         -6.6749888            8.7122315            2.0372427
 Dipole Z            :         38.3396009          -52.7725870          -14.4329861
 Magnitude           :                                                   14.5760573
  //            Monomer A HF           //
    Molecular point group: c1
  Multiplicity = 1
  Basis Set: JUN-CC-PVDZ
    Blend: JUN-CC-PVDZ
  Basis Set: (JUN-CC-PVDZ AUX)
    Blend: JUN-CC-PVDZ-JKFIT
  @DF-RHF Final Energy:  -303.29717741915834
    Total Energy =                       -303.2971774191583449
  //            Monomer B HF           //
    Molecular point group: c1

    Geometry (in Angstrom), charge = 0, multiplicity = 1:

       Center              X                  Y                   Z               Mass
    ------------   -----------------  -----------------  -----------------  -----------------
      Gh(C)           0.680062820275     1.308604348936    -9.529754297529    12.000000000000
      Gh(C)          -0.680508179725     1.310632348936    -9.529370297529    12.000000000000
      Gh(N)          -1.085639179725     1.311630348936    -8.211046297529    14.003074004430
      Gh(C)           0.000103820275     1.314906348936    -7.429645297529    12.000000000000
      Gh(C)          -2.477369179725     1.361036348936    -7.743067297529    12.000000000000
      Gh(N)           1.085217820275     1.311630348936    -8.211046297529    14.003074004430
      Gh(H)           1.385141820275     1.300776348936   -10.347193297529     1.007825032230
      Gh(H)          -1.385306179725     1.310442348936   -10.347039297529     1.007825032230
      Gh(H)          -0.000013179725     1.316653348936    -6.348556297529     1.007825032230
      Gh(C)           2.478112820275     1.294738348936    -7.745948297529    12.000000000000
      Gh(H)           2.490587820275     1.322083348936    -6.655695297529     1.007825032230
      Gh(H)           2.967023820275     0.381292348936    -8.093124297529     1.007825032230
      Gh(H)           3.001423820275     2.170221348936    -8.137420297529     1.007825032230
      Gh(H)          -2.857363179725     2.383107348936    -7.823026297529     1.007825032230
      Gh(H)          -3.082683179725     0.690952348936    -8.356131297529     1.007825032230
      Gh(H)          -2.518132179725     1.034052348936    -6.703119297529     1.007825032230
         C           -3.668445443746     7.695098519018     0.688074743806    12.000000000000
         C           -4.847602899072     7.022588180276     0.685708168874    12.000000000000
         C           -4.894963478901     5.587676752467     0.685135257776    12.000000000000
         C           -3.653744858499     4.872076689895     0.692795699505    12.000000000000
         C           -2.409429301220     7.005327385610     0.688269086066    12.000000000000
         C           -2.425481523830     5.572468299839     0.681264197196    12.000000000000
         C           -1.194748196161     7.677490543245     0.689741266608    12.000000000000
         C            0.037954849212     6.990767994693     0.687570562303    12.000000000000
         C            0.030328407694     5.560835908640     0.682087177388    12.000000000000
         C           -1.200988687630     4.860616696851     0.691056911321    12.000000000000
         C            1.277953646089     7.664205792130     0.688946410864    12.000000000000
         C            2.485353904999     6.979043234173     0.686671922959    12.000000000000
         C            2.486124505192     5.546117159176     0.679734173972    12.000000000000
         C            1.254078739919     4.847424462600     0.691362115560    12.000000000000
         C            3.751710411681     7.655258499916     0.686798774340    12.000000000000
         C            4.923561876460     6.970127125926     0.684742293632    12.000000000000
         C            4.955603091600     5.534793812305     0.684581880825    12.000000000000
         C            3.706797354479     4.832556557269     0.689673440994    12.000000000000
         H           -3.658525317484     8.782173768071     0.689759732056     1.007825032230
         H           -1.189217509482     8.765467436296     0.693713143050     1.007825032230
         H            1.284290059161     8.752179784424     0.693105235005     1.007825032230
         H            3.753537907074     8.742381627908     0.688321298655     1.007825032230
         H            5.869954523482     7.505141183591     0.683816926589     1.007825032230
         H           -5.788235887228     7.567648561870     0.684148321518     1.007825032230
         C           -6.091978138422     4.884606362579     0.683263017285    12.000000000000
         C           -6.128665660043     3.473926517734     0.684464194313    12.000000000000
         C           -3.664583919771     3.455528528680     0.681539099696    12.000000000000
         C           -4.894302384424     2.752427124836     0.690708084681    12.000000000000
         C           -2.437339174623     2.738958006020     0.693370878232    12.000000000000
         C           -1.209232037322     3.439233283914     0.679691851441    12.000000000000
         C            1.247137392437     3.426027100365     0.678883245035    12.000000000000
         C            0.015171859844     2.724458188241     0.690567428260    12.000000000000
         C            2.467640992715     2.712636326191     0.690667486383    12.000000000000
         C            3.702545294854     3.416006503360     0.677179525541    12.000000000000
         C            6.144976206658     4.818918715067     0.683348435613    12.000000000000
         C            6.166584179136     3.407930824878     0.685514989050    12.000000000000
         C            4.924605778734     2.699754274290     0.692053735287    12.000000000000
         H            7.089901329916     5.358234115159     0.679586554763     1.007825032230
         H           -7.031045930827     5.434034301793     0.679029802333     1.007825032230
         C           -7.339702220848     2.749757883515     0.682837026872    12.000000000000
         C           -7.364886137784     1.361669720519     0.684602564999    12.000000000000
         C           -4.903508788672     1.335773161096     0.679886300807    12.000000000000
         C           -6.132261332336     0.631285705989     0.692176344790    12.000000000000
         C           -3.676878980242     0.618043491609     0.690514017207    12.000000000000
         C           -2.445660765791     1.320987482198     0.680204307006    12.000000000000
         C           -1.223604861027     0.606670850570     0.691633571537    12.000000000000
         C            0.007633689588     1.308729498173     0.690099225255    12.000000000000
         C            1.231215628021     0.593463039523     0.671272639599    12.000000000000
         C            2.460816920806     1.294638385061     0.690777148489    12.000000000000
         C            3.684426074471     0.578544777148     0.689948362212    12.000000000000
         C            4.918704721813     1.283080910125     0.677546540577    12.000000000000
         C            7.369797898236     2.670828552120     0.683754569257    12.000000000000
         C            7.380158486396     1.282563856791     0.685301252103    12.000000000000
         C            6.139795359397     0.565464972136     0.691629593914    12.000000000000
         H           -8.279194979072     3.298464390060     0.678539474750     1.007825032230
         H            8.315109291754     3.209464445559     0.679543993458     1.007825032230
         C           -8.591760117307     0.616178901980     0.684942992617    12.000000000000
         C           -8.599028783429    -0.741293457293     0.687066117200    12.000000000000
         C           -6.139817318844    -0.782790288218     0.680076775865    12.000000000000
         C           -7.380188291863    -1.499919840646     0.687492837406    12.000000000000
         C           -4.918688659982    -1.500408669094     0.692417274014    12.000000000000
         C           -3.684442475410    -0.795890966800     0.681385033950    12.000000000000
         C           -2.460821219973    -1.511998829889     0.691928120139    12.000000000000
         C           -1.231166192046    -0.810827515945     0.679807741347    12.000000000000
         C           -0.007573805113    -1.526072500475     0.687264265651    12.000000000000
         C            1.223643536163    -0.823929028328     0.697269887600    12.000000000000
         C            2.445666469606    -1.538296940071     0.685519874840    12.000000000000
         C            3.676862523121    -0.835361082620     0.681379290445    12.000000000000
         C            6.132244666694    -0.848632490914     0.679851316232    12.000000000000
         C            4.903514965779    -1.553111171605     0.693692390772    12.000000000000
         C            8.599010668965     0.523950215603     0.685163368247    12.000000000000
         C            8.591741308375    -0.833504518258     0.686899748508    12.000000000000
         C            7.364858584664    -1.578986316670     0.686669571815    12.000000000000
         H           -9.528310151544     1.168193798128     0.683473065653     1.007825032230
         H            9.541406794881     1.065918837380     0.684111335986     1.007825032230
         C           -7.369842089494    -2.888198796998     0.689301045828    12.000000000000
         C           -4.924603288776    -2.917090908405     0.681569413392    12.000000000000
         C           -6.166626675393    -3.625305843890     0.687871253551    12.000000000000
         C           -3.702514539430    -3.633335200185     0.691893482577    12.000000000000
         C           -2.467651164839    -2.929979613868     0.679848844221    12.000000000000
         C           -0.015137653833    -2.941795296464     0.680130432730    12.000000000000
         C           -1.247126020952    -3.643385826627     0.691694386138    12.000000000000
         C            1.209240889918    -3.656568329708     0.694233415929    12.000000000000
         C            2.437331842429    -2.956295389240     0.680093657618    12.000000000000
         C            4.894298164045    -2.969776619350     0.680914397690    12.000000000000
         C            3.664611075316    -3.672873496596     0.693793817630    12.000000000000
         C            6.128634835020    -3.691237708782     0.687139659588    12.000000000000
         C            7.339668484970    -2.967066958435     0.688654885669    12.000000000000
         H           -9.541453290984    -1.283217117729     0.688435533373     1.007825032230
         H            9.528257688346    -1.385572724969     0.688149556269     1.007825032230
         H           -8.315169223574    -3.426803504277     0.693473274358     1.007825032230
         H            8.279150962767    -3.515794440958     0.692994441652     1.007825032230
         C           -6.144998368428    -5.036300923848     0.689197251611    12.000000000000
         C           -3.706787527723    -5.049915365182     0.679376283523    12.000000000000
         C           -4.955594237727    -5.752147624559     0.687343418168    12.000000000000
         C           -2.486125505952    -5.763439225474     0.692315954567    12.000000000000
         C           -1.254062515205    -5.064775701066     0.681140348581    12.000000000000
         C            1.201008394143    -5.077934039257     0.682321472839    12.000000000000
         C           -0.030340854139    -5.778173954203     0.690164672503    12.000000000000
         C            3.653745921603    -5.089397426479     0.683079472587    12.000000000000
         C            2.425488516150    -5.789828286592     0.692456403139    12.000000000000
         C            6.091961438086    -5.101911614451     0.689433886261    12.000000000000
         C            4.894972264885    -5.805002072022     0.688197690431    12.000000000000
         H           -7.089896567766    -5.575653493303     0.693600013292     1.007825032230
         H            7.031051029475    -5.651312187397     0.693013666025     1.007825032230
         C           -4.923549501924    -7.187474750742     0.686788649263    12.000000000000
         C           -2.485346267963    -7.196381728994     0.684278756827    12.000000000000
         C           -3.751690071504    -7.872600808701     0.684473435752    12.000000000000
         C           -0.037953136713    -7.208118525534     0.684494481974    12.000000000000
         C           -1.277960280127    -7.881558035731     0.682509789213    12.000000000000
         C            2.409440141001    -7.222675663067     0.685357682785    12.000000000000
         C            1.194745757428    -7.894839016627     0.683205391904    12.000000000000
         C            4.847616872773    -7.239915761644     0.687864497445    12.000000000000
         C            3.668467426150    -7.912441644008     0.685516063081    12.000000000000
         H           -5.869944530142    -7.722484249106     0.688332686128     1.007825032230
         H            5.788245445663    -7.784985840379     0.688991616927     1.007825032230
         H           -3.753531119175    -8.959725220301     0.682637521323     1.007825032230
         H           -1.284308585620    -8.969529043562     0.678082405354     1.007825032230
         H            1.189217394970    -8.982814271654     0.679112755213     1.007825032230
         H            3.658542435098    -8.999514285118     0.683861521659     1.007825032230

  Charge       = 0
  Multiplicity = 1
  Basis Set: JUN-CC-PVDZ
    Blend: JUN-CC-PVDZ
  Basis Set: (JUN-CC-PVDZ AUX)
    Blend: JUN-CC-PVDZ-JKFIT

    Orbital Energies [Eh]
    ---------------------

    Doubly Occupied:

       1A    -11.264045     2A    -11.263732     3A    -11.263730
       4A    -11.263390     5A    -11.263387     6A    -11.263352
       7A    -11.263195     8A    -11.263168     9A    -11.263166
      10A    -11.263010    11A    -11.262850    12A    -11.262845
      13A    -11.262367    14A    -11.262364    15A    -11.262289
      16A    -11.262289    17A    -11.262239    18A    -11.262203
      19A    -11.262158    20A    -11.262119    21A    -11.262118
      22A    -11.261963    23A    -11.261959    24A    -11.261839
      25A    -11.261824    26A    -11.261811    27A    -11.261807
      28A    -11.261759    29A    -11.261752    30A    -11.261679
      31A    -11.261653    32A    -11.261650    33A    -11.261624
      34A    -11.261623    35A    -11.261602    36A    -11.261555
      37A    -11.261414    38A    -11.261403    39A    -11.261397
      40A    -11.261390    41A    -11.261384    42A    -11.261376
      43A    -11.261372    44A    -11.261358    45A    -11.261353
      46A    -11.261331    47A    -11.261327    48A    -11.261322
      49A    -11.261170    50A    -11.261139    51A    -11.261137
      52A    -11.261057    53A    -11.261056    54A    -11.260985
      55A    -11.260015    56A    -11.260002    57A    -11.259999
      58A    -11.259970    59A    -11.259968    60A    -11.259952
      61A    -11.259393    62A    -11.259368    63A    -11.259365
      64A    -11.259313    65A    -11.259311    66A    -11.259282
      67A    -11.259019    68A    -11.259002    69A    -11.258999
      70A    -11.258972    71A    -11.258970    72A    -11.258959
      73A    -11.254589    74A    -11.254587    75A    -11.254586
      76A    -11.254583    77A    -11.254577    78A    -11.254574
      79A    -11.253739    80A    -11.253737    81A    -11.253734
      82A    -11.253733    83A    -11.253731    84A    -11.253725
      85A    -11.253654    86A    -11.253652    87A    -11.253650
      88A    -11.253649    89A    -11.253646    90A    -11.253640
      91A    -11.253117    92A    -11.253115    93A    -11.253114
      94A    -11.253111    95A    -11.253105    96A    -11.253102
      97A     -1.254135    98A     -1.239139    99A     -1.239138
     100A     -1.220581   101A     -1.220576   102A     -1.215609
     103A     -1.201143   104A     -1.195712   105A     -1.188298
     106A     -1.188297   107A     -1.173863   108A     -1.173860
     109A     -1.155771   110A     -1.155768   111A     -1.152878
     112A     -1.144816   113A     -1.144813   114A     -1.128694
     115A     -1.114853   116A     -1.113258   117A     -1.112639
     118A     -1.112625   119A     -1.111707   120A     -1.088556
     121A     -1.088541   122A     -1.077055   123A     -1.077053
     124A     -1.067750   125A     -1.067720   126A     -1.065121
     127A     -1.046915   128A     -1.046908   129A     -1.040604
     130A     -1.038827   131A     -1.038826   132A     -1.025389
     133A     -1.021561   134A     -1.021510   135A     -1.007287
     136A     -1.006930   137A     -1.003907   138A     -1.000631
     139A     -1.000583   140A     -0.991163   141A     -0.971120
     142A     -0.971071   143A     -0.955987   144A     -0.955932
     145A     -0.905758   146A     -0.905716   147A     -0.905635
     148A     -0.905594   149A     -0.904515   150A     -0.892529
     151A     -0.892469   152A     -0.890515   153A     -0.890457
     154A     -0.889588   155A     -0.872317   156A     -0.869131
     157A     -0.851645   158A     -0.848009   159A     -0.847988
     160A     -0.845746   161A     -0.843149   162A     -0.834680
     163A     -0.834667   164A     -0.828210   165A     -0.828206
     166A     -0.784670   167A     -0.784659   168A     -0.783798
     169A     -0.783772   170A     -0.782416   171A     -0.782396
     172A     -0.782179   173A     -0.767103   174A     -0.760951
     175A     -0.750728   176A     -0.733582   177A     -0.727186
     178A     -0.727172   179A     -0.725211   180A     -0.724653
     181A     -0.724634   182A     -0.718656   183A     -0.713918
     184A     -0.713912   185A     -0.699690   186A     -0.699678
     187A     -0.686289   188A     -0.686055   189A     -0.686052
     190A     -0.682278   191A     -0.682267   192A     -0.678914
     193A     -0.653744   194A     -0.650991   195A     -0.650961
     196A     -0.649965   197A     -0.649950   198A     -0.649663
     199A     -0.641085   200A     -0.641057   201A     -0.640188
     202A     -0.639252   203A     -0.636157   204A     -0.636131
     205A     -0.629257   206A     -0.617829   207A     -0.615397
     208A     -0.615377   209A     -0.608909   210A     -0.608902
     211A     -0.599184   212A     -0.599144   213A     -0.598867
     214A     -0.598739   215A     -0.598714   216A     -0.598195
     217A     -0.595164   218A     -0.595151   219A     -0.594836
     220A     -0.594397   221A     -0.592084   222A     -0.592081
     223A     -0.587554   224A     -0.577872   225A     -0.577862
     226A     -0.575730   227A     -0.575726   228A     -0.573484
     229A     -0.569560   230A     -0.568293   231A     -0.568269
     232A     -0.566873   233A     -0.566863   234A     -0.560991
     235A     -0.558851   236A     -0.558832   237A     -0.558508
     238A     -0.554484   239A     -0.550625   240A     -0.547550
     241A     -0.544335   242A     -0.535031   243A     -0.534994
     244A     -0.533648   245A     -0.533626   246A     -0.528174
     247A     -0.528159   248A     -0.527951   249A     -0.517313
     250A     -0.517279   251A     -0.515420   252A     -0.515414
     253A     -0.509737   254A     -0.509721   255A     -0.498131
     256A     -0.496563   257A     -0.496537   258A     -0.493837
     259A     -0.493828   260A     -0.489471   261A     -0.481545
     262A     -0.477482   263A     -0.477479   264A     -0.474097
     265A     -0.469564   266A     -0.466643   267A     -0.466638
     268A     -0.458871   269A     -0.446854   270A     -0.446793
     271A     -0.441094   272A     -0.440819   273A     -0.440795
     274A     -0.434750   275A     -0.433967   276A     -0.407443
     277A     -0.407418   278A     -0.386479   279A     -0.386431
     280A     -0.385791   281A     -0.385790   282A     -0.383823
     283A     -0.354393   284A     -0.354377   285A     -0.350731
     286A     -0.338160   287A     -0.335660   288A     -0.335591
     289A     -0.332774   290A     -0.332767   291A     -0.307156
     292A     -0.302019   293A     -0.301957   294A     -0.300906
     295A     -0.286235   296A     -0.256521   297A     -0.253570
     298A     -0.253518   299A     -0.204329   300A     -0.204240

  @DF-RHF Final Energy: -3650.33784722613836

   => Energetics <=

    Nuclear Repulsion Energy =          15611.4211649754306563
    One-Electron Energy =              -36072.0822516557091149
    Two-Electron Energy =               16810.3232394541410031
    Total Energy =                      -3650.3378472261392744
 Dipole X            :         -0.0010820            0.0002112           -0.0008708
 Dipole Y            :        123.2129014         -123.2131634           -0.0002620
 Dipole Z            :       -778.0129058          778.0127490           -0.0001567
 Magnitude           :                                                    0.0009228

    SAPT Results
  --------------------------------------------------------------------------------------------------------
    Electrostatics                 -6.19416308 [mEh]      -3.88689602 [kcal/mol]     -16.26277293 [kJ/mol]
      Elst10,r                     -6.19416308 [mEh]      -3.88689602 [kcal/mol]     -16.26277293 [kJ/mol]

    Exchange                       -0.00005857 [mEh]      -0.00003676 [kcal/mol]      -0.00015379 [kJ/mol]
      Exch10                       -0.00005857 [mEh]      -0.00003676 [kcal/mol]      -0.00015379 [kJ/mol]
      Exch10(S^2)                  -0.00005857 [mEh]      -0.00003676 [kcal/mol]      -0.00015379 [kJ/mol]

    Induction                      -1.65764505 [mEh]      -1.04018797 [kcal/mol]      -4.35214647 [kJ/mol]
      Ind20,r                      -1.64163240 [mEh]      -1.03013989 [kcal/mol]      -4.31010528 [kJ/mol]
      Exch-Ind20,r                  0.00002996 [mEh]       0.00001880 [kcal/mol]       0.00007866 [kJ/mol]
      delta HF,r (2)               -0.01604260 [mEh]      -0.01006688 [kcal/mol]      -0.04211985 [kJ/mol]

    Dispersion                     -0.54136037 [mEh]      -0.33970876 [kcal/mol]      -1.42134145 [kJ/mol]
      Disp20                       -0.54137111 [mEh]      -0.33971550 [kcal/mol]      -1.42136965 [kJ/mol]
      Exch-Disp20                   0.00001074 [mEh]       0.00000674 [kcal/mol]       0.00002820 [kJ/mol]
      Disp20 (SS)                  -0.27068555 [mEh]      -0.16985775 [kcal/mol]      -0.71068482 [kJ/mol]
      Disp20 (OS)                  -0.27068555 [mEh]      -0.16985775 [kcal/mol]      -0.71068482 [kJ/mol]
      Exch-Disp20 (SS)              0.00000799 [mEh]       0.00000501 [kcal/mol]       0.00002097 [kJ/mol]
      Exch-Disp20 (OS)              0.00000276 [mEh]       0.00000173 [kcal/mol]       0.00000723 [kJ/mol]

  Total HF                         -7.85186670 [mEh]      -4.92712074 [kcal/mol]     -20.61507319 [kJ/mol]
  Total SAPT0                      -8.39322707 [mEh]      -5.26682950 [kcal/mol]     -22.03641463 [kJ/mol]

  Special recipe for scaled SAPT0 (see Manual):
    Electrostatics sSAPT0          -6.19416308 [mEh]      -3.88689602 [kcal/mol]     -16.26277293 [kJ/mol]
    Exchange sSAPT0                -0.00005857 [mEh]      -0.00003676 [kcal/mol]      -0.00015379 [kJ/mol]
    Induction sSAPT0               -1.65764505 [mEh]      -1.04018797 [kcal/mol]      -4.35214647 [kJ/mol]
    Dispersion sSAPT0              -0.54136037 [mEh]      -0.33970876 [kcal/mol]      -1.42134145 [kJ/mol]
  Total sSAPT0                     -8.39322707 [mEh]      -5.26682950 [kcal/mol]     -22.03641463 [kJ/mol]
  --------------------------------------------------------------------------------------------------------

*** Psi4 exiting successfully. Buy a developer a beer!
