                               Psi4 1.9 release

  ==> Input File <==

--------------------------------------------------------------------------
memory 47 GB # how much memory is available ! Depends on the nodes/cores !

molecule dimer {
# monomer A
-1 1    # Charge and multiplicity
B -0.000046  0.000337 4.599994
F -1.153597  0.000048 5.415641
F  1.153661 -0.000581 5.415641
F -0.000019 -1.153637 3.784360
F -0.000019  1.153978 3.784360
--
# monomer B
0 1     # Charge and multiplicity
C   -3.66844126402057      7.80375217008252      0.00190004133558
C   -4.84759871934653      7.13124183134024     -0.00046653359696
C   -4.89495929917518      5.69633040353158     -0.00103944469517
C   -3.65374067877320      4.98073034095895      0.00662099703436
C   -2.40942512149445      7.11398103667468      0.00209438359570
C   -2.42547734410473      5.68112195090346     -0.00491050527438
C   -1.19474401643570      7.78614419430947      0.00356656413763
C   0.03795902893699      7.09942164575698      0.00139585983271
C   0.03033258741920      5.66948955970466     -0.00408752508301
C   -1.20098450790502      4.96927034791531      0.00488220885047
C   1.27795782581485      7.77285944319479      0.00277170839332
C   2.48535808472416      7.08769688523756      0.00049722048857
C   2.48612868491717      5.65477081024076     -0.00644052849921
C   1.25408291964399      4.95607811366431      0.00518741308898
C   3.75171459140595      7.76391215098033      0.00062407186893
C   4.92356605618520      7.07878077698995     -0.00143240883900
C   4.95560727132542      5.64344746336949     -0.00159282164606
C   3.70680153420475      4.94121020833308      0.00349873852374
H   -3.65852113775815      8.89082741913536      0.00358502958574
H   -1.18921332975660      8.87412108735996      0.00753844057883
H   1.28429423888630      8.86083343548850      0.00693053253426
H   3.75354208679975      8.85103527897216      0.00214659618464
H   5.86995870320703      7.61379483465560     -0.00235777588134
H   -5.78823170750226      7.67630221293400     -0.00202638095293
C   -6.09197395869619      4.99326001364347     -0.00291168518608
C   -6.12866148031747      3.58258016879823     -0.00171050815740
C   -3.66457974004527      3.56418217974434     -0.00463560277484
C   -4.89429820469869      2.86108077590057      0.00453338221034
C   -2.43733499489796      2.84761165708481      0.00719617576166
C   -1.20922785759670      3.54788693497833     -0.00648285103018
C   1.24714157216223      3.53468075142962     -0.00729145743546
C   0.01517603956900      2.83311183930540      0.00439272578912
C   2.46764517244071      2.82128997725533      0.00449278391269
C   3.70254947457969      3.52466015442405     -0.00899517692985
C   6.14498038638375      4.92757236613191     -0.00282626685777
C   6.16658835886151      3.51658447594213     -0.00065971342101
C   4.92460995845939      2.80840792535402      0.00587903281610
H   7.08990550964105      5.46688776622306     -0.00658814770723
H   -7.03104175110130      5.54268795285765     -0.00714490013730
C   -7.33969804112295      2.85841153457957     -0.00333767559888
C   -7.36488195805880      1.47032337158330     -0.00157213747140
C   -4.90350460894690      1.44442681216000     -0.00628840166334
C   -6.13225715261081      0.73993935705394      0.00600164231964
C   -3.67687480051673      0.72669714267312      0.00433931473643
C   -2.44565658606518      1.42964113326212     -0.00597039546461
C   -1.22360068130162      0.71532450163492      0.00545886906656
C   0.00763786931376      1.41738314923765      0.00392452278437
C   1.23121980774686      0.70211669058719     -0.01490206287210
C   2.46082110053113      1.40329203612573      0.00460244601878
C   3.68443025419614      0.68719842821222      0.00377365974158
C   4.91870890153864      1.39173456118907     -0.00862816189375
C   7.36980207796101      2.77948220318441     -0.00242013321349
C   7.38016266612146      1.39121750785509     -0.00087345036788
C   6.13979953912259      0.67411862320065      0.00545489144369
H   -8.27919079934664      3.40711804112415     -0.00763522772059
H   8.31511347147953      3.31811809662368     -0.00663070901292
C   -8.59175593758115      0.72483255304480     -0.00123170985383
C   -8.59902460370342     -0.63263980622873      0.00089141472904
C   -6.13981313911873     -0.67413663715361     -0.00609792660607
C   -7.38018411213749     -1.39126618958160      0.00131813493501
C   -4.91868448025621     -1.39175501803000      0.00624257154343
C   -3.68443829568458     -0.68723731573599     -0.00478966852105
C   -2.46081704024768     -1.40334517882457      0.00575341766833
C   -1.23116201232071     -0.70217386488055     -0.00636696112346
C   -0.00756962538737     -1.41741884941102      0.00108956317991
C   1.22364771588843     -0.71527537726392      0.01109518512883
C   2.44567064933149     -1.42964328900682     -0.00065482763106
C   3.67686670284649     -0.72670743155550     -0.00479541202602
C   6.13224884641929     -0.73997883984993     -0.00632338623858
C   4.90351914550401     -1.44445752054090      0.00751768830159
C   8.59901484869081      0.63260386666793     -0.00101133422380
C   8.59174548810050     -0.72485086719319      0.00072504603735
C   7.36486276438985     -1.47033266560598      0.00049486934466
H   -9.52830597181814      1.27684744919284     -0.00270163681798
H   9.54141097460619      1.17457248844457     -0.00206336648518
C   -7.36983790976868     -2.77954514593389      0.00312634335708
C   -4.92459910905015     -2.80843725734101     -0.00460528907921
C   -6.16662249566744     -3.51665219282533      0.00169655107992
C   -3.70251035970491     -3.52468154912026      0.00571878010666
C   -2.46764698511392     -2.82132596280400     -0.00632585824990
C   -0.01513347410770     -2.83314164539971     -0.00604426974092
C   -1.24712184122656     -3.53473217556300      0.00551968366725
C   1.20924506964357     -3.54791467864352      0.00805871345849
C   2.43733602215464     -2.84764173817541     -0.00608104485234
C   4.89430234377080     -2.86112296828604     -0.00526030478103
C   3.66461525504104     -3.56421984553201      0.00761911515957
C   6.12863901474565     -3.58258405771778      0.00096495711699
C   7.33967266469532     -2.85841330737039      0.00248018319869
H   -9.54144911125902     -1.17456346666430      0.00226083090216
H   9.52826186807155     -1.27691907390448      0.00197485379837
H   -8.31516504384864     -3.31814985321231      0.00729857188773
H   8.27915514249207     -3.40714078989363      0.00681973918158
C   -6.14499418870218     -4.92764727278338      0.00302254913999
C   -3.70678334799751     -4.94126171411716     -0.00679841894792
C   -4.95559005800169     -5.64349397349412      0.00116871569699
C   -2.48612132622665     -5.65478557440947      0.00614125209662
C   -1.25405833548005     -4.95612205000132     -0.00503435388927
C   1.20101257386816     -4.96928038819302     -0.00385322963129
C   -0.03033667441341     -5.66952030313900      0.00398997003238
C   3.65375010132847     -4.98074377541453     -0.00309522988330
C   2.42549269587528     -5.68117463552727      0.00628170066869
C   6.09196561781097     -4.99325796338655      0.00325918379042
C   4.89497644461045     -5.69634842095790      0.00202298796027
H   -7.08989238804069     -5.46699984223871      0.00742531082125
H   7.03105520920009     -5.54265853633254      0.00683896355417
C   -4.92354532219813     -7.07882109967734      0.00061394679214
C   -2.48534208823777     -7.08772807792913     -0.00189594564379
C   -3.75168589177895     -7.76394715763627     -0.00170126671874
C   -0.03794895698805     -7.09946487446944     -0.00168022049625
C   -1.27795610040136     -7.77290438466689     -0.00366491325785
C   2.40944432072629     -7.11402201200282     -0.00081701968533
C   1.19474993715296     -7.78618536556242     -0.00296931056689
C   4.84762105249800     -7.13126211057943      0.00168979497423
C   3.66847160587561     -7.80378799294376     -0.00065863938960
H   -5.86994035041618     -7.61383059804164      0.00215798365757
H   5.78824962538815     -7.67633218931421      0.00281691445618
H   -3.75352693944918     -8.85107156923607     -0.00353718114765
H   -1.28430440589466     -8.86087539249706     -0.00809229711623
H   1.18922157469537     -8.87416062058945     -0.00706194725726
H   3.65854661482387     -8.89086063405326     -0.00231318081200

    units angstrom      # Angstroms are the default
    no_reorient         # Geometry fixed, default
    symmetry c1         # C1 symmetry, default
}

set {
    scf_type DF         # Density fitting, faster than exact integrals
    freeze_core True    # Freeze core electrons
    basis jun-cc-pVDZ   # Jun-cc-pVDZ basis set, recommended for sSAPT0 in https://doi.org/10.1063/1.4867135
}

energy('ssapt0')        # Compute sSAPT0 energy, includes also SAPT0
--------------------------------------------------------------------------

  //              Dimer HF             //
    Molecular point group: c1
  Charge       = -1
  Multiplicity = 1
  Basis Set: JUN-CC-PVDZ
    Blend: JUN-CC-PVDZ
  Basis Set: (JUN-CC-PVDZ AUX)
    Blend: JUN-CC-PVDZ-JKFIT
  @DF-RHF Final Energy: -4073.11037754280187
    Total Energy =                      -4073.1103775428018707
 Dipole X            :          0.0006845           -0.0001188            0.0005657
 Dipole Y            :          0.0013451           -0.0002727            0.0010724
 Dipole Z            :         20.6310597          -27.3756393           -6.7445795
 Magnitude           :                                                    6.7445796
  //            Monomer A HF           //
    Molecular point group: c1
  Multiplicity = 1
  Basis Set: JUN-CC-PVDZ
    Blend: JUN-CC-PVDZ
  Basis Set: (JUN-CC-PVDZ AUX)
    Blend: JUN-CC-PVDZ-JKFIT
  @DF-RHF Final Energy:  -422.77242429906914
    Total Energy =                       -422.7724242990691437
  //            Monomer B HF           //
    Molecular point group: c1

    Geometry (in Angstrom), charge = 0, multiplicity = 1:

       Center              X                  Y                   Z               Mass
    ------------   -----------------  -----------------  -----------------  -----------------
      Gh(B)          -0.000050191042     0.000351518223     4.283163504926    11.009305360000
      Gh(F)          -1.153601191042     0.000062518223     5.098810504926    18.998403162730
      Gh(F)           1.153656808958    -0.000566481777     5.098810504926    18.998403162730
      Gh(F)          -0.000023191042    -1.153622481777     3.467529504926    18.998403162730
      Gh(F)          -0.000023191042     1.153992518223     3.467529504926    18.998403162730
         C           -3.668445455062     7.803766688305    -0.314930453738    12.000000000000
         C           -4.847602910388     7.131256349563    -0.317297028671    12.000000000000
         C           -4.894963490217     5.696344921754    -0.317869939769    12.000000000000
         C           -3.653744869815     4.980744859182    -0.310209498039    12.000000000000
         C           -2.409429312536     7.113995554897    -0.314736111478    12.000000000000
         C           -2.425481535146     5.681136469126    -0.321741000348    12.000000000000
         C           -1.194748207477     7.786158712532    -0.313263930936    12.000000000000
         C            0.037954837895     7.099436163980    -0.315434635241    12.000000000000
         C            0.030328396378     5.669504077927    -0.320918020157    12.000000000000
         C           -1.200988698947     4.969284866138    -0.311948286223    12.000000000000
         C            1.277953634773     7.772873961417    -0.314058786680    12.000000000000
         C            2.485353893683     7.087711403460    -0.316333274585    12.000000000000
         C            2.486124493876     5.654785328463    -0.323271023573    12.000000000000
         C            1.254078728602     4.956092631887    -0.311643081985    12.000000000000
         C            3.751710400364     7.763926669203    -0.316206423205    12.000000000000
         C            4.923561865144     7.078795295213    -0.318262903913    12.000000000000
         C            4.955603080284     5.643461981592    -0.318423316720    12.000000000000
         C            3.706797343163     4.941224726556    -0.313331756550    12.000000000000
         H           -3.658525328800     8.890841937358    -0.313245465488     1.007825032230
         H           -1.189217520798     8.874135605583    -0.309292054495     1.007825032230
         H            1.284290047845     8.860847953711    -0.309899962540     1.007825032230
         H            3.753537895758     8.851049797195    -0.314683898889     1.007825032230
         H            5.869954512165     7.613809352878    -0.319188270955     1.007825032230
         H           -5.788235898544     7.676316731157    -0.318856876027     1.007825032230
         C           -6.091978149738     4.993274531866    -0.319742180260    12.000000000000
         C           -6.128665671359     3.582594687021    -0.318541003231    12.000000000000
         C           -3.664583931087     3.564196697967    -0.321466097849    12.000000000000
         C           -4.894302395740     2.861095294123    -0.312297112863    12.000000000000
         C           -2.437339185940     2.847626175307    -0.309634319312    12.000000000000
         C           -1.209232048638     3.547901453201    -0.323313346104    12.000000000000
         C            1.247137381121     3.534695269652    -0.324121952509    12.000000000000
         C            0.015171848527     2.833126357528    -0.312437769285    12.000000000000
         C            2.467640981399     2.821304495478    -0.312337711161    12.000000000000
         C            3.702545283538     3.524674672647    -0.325825672004    12.000000000000
         C            6.144976195342     4.927586884354    -0.319656761932    12.000000000000
         C            6.166584167820     3.516598994165    -0.317490208495    12.000000000000
         C            4.924605767418     2.808422443577    -0.310951462258    12.000000000000
         H            7.089901318599     5.466902284446    -0.323418642781     1.007825032230
         H           -7.031045942143     5.542702471080    -0.323975395211     1.007825032230
         C           -7.339702232165     2.858426052802    -0.320168170673    12.000000000000
         C           -7.364886149100     1.470337889806    -0.318402632545    12.000000000000
         C           -4.903508799989     1.444441330383    -0.323118896737    12.000000000000
         C           -6.132261343652     0.739953875277    -0.310828852754    12.000000000000
         C           -3.676878991558     0.726711660896    -0.312491180337    12.000000000000
         C           -2.445660777107     1.429655651485    -0.322800890538    12.000000000000
         C           -1.223604872343     0.715339019858    -0.311371626007    12.000000000000
         C            0.007633678272     1.417397667460    -0.312905972289    12.000000000000
         C            1.231215616705     0.702131208810    -0.331732557946    12.000000000000
         C            2.460816909489     1.403306554348    -0.312228049055    12.000000000000
         C            3.684426063155     0.687212946435    -0.313056835332    12.000000000000
         C            4.918704710497     1.391749079412    -0.325458656968    12.000000000000
         C            7.369797886919     2.779496721407    -0.319250628287    12.000000000000
         C            7.380158475080     1.391232026078    -0.317703945442    12.000000000000
         C            6.139795348081     0.674133141423    -0.311375603630    12.000000000000
         H           -8.279194990388     3.407132559347    -0.324465722794     1.007825032230
         H            8.315109280438     3.318132614846    -0.323461204087     1.007825032230
         C           -8.591760128623     0.724847071267    -0.318062204928    12.000000000000
         C           -8.599028794745    -0.632625288006    -0.315939080345    12.000000000000
         C           -6.139817330160    -0.674122118931    -0.322928421680    12.000000000000
         C           -7.380188303179    -1.391251671359    -0.315512360139    12.000000000000
         C           -4.918688671298    -1.391740499807    -0.310587923530    12.000000000000
         C           -3.684442486726    -0.687222797513    -0.321620163595    12.000000000000
         C           -2.460821231289    -1.403330660602    -0.311077077405    12.000000000000
         C           -1.231166203362    -0.702159346658    -0.323197456197    12.000000000000
         C           -0.007573816429    -1.417404331188    -0.315740931894    12.000000000000
         C            1.223643524847    -0.715260859041    -0.305735309945    12.000000000000
         C            2.445666458290    -1.429628770784    -0.317485322705    12.000000000000
         C            3.676862511805    -0.726692913333    -0.321625907100    12.000000000000
         C            6.132244655378    -0.739964321627    -0.323153881312    12.000000000000
         C            4.903514954462    -1.444443002318    -0.309312806772    12.000000000000
         C            8.599010657649     0.632618384891    -0.317841829298    12.000000000000
         C            8.591741297059    -0.724836348971    -0.316105449036    12.000000000000
         C            7.364858573348    -1.470318147383    -0.316335625729    12.000000000000
         H           -9.528310162860     1.276861967415    -0.319532131892     1.007825032230
         H            9.541406783565     1.174587006667    -0.318893861559     1.007825032230
         C           -7.369842100810    -2.779530627711    -0.313704151717    12.000000000000
         C           -4.924603300092    -2.808422739118    -0.321435784153    12.000000000000
         C           -6.166626686709    -3.516637674603    -0.315133943994    12.000000000000
         C           -3.702514550747    -3.524667030898    -0.311111714967    12.000000000000
         C           -2.467651176156    -2.821311444581    -0.323156353324    12.000000000000
         C           -0.015137665149    -2.833127127177    -0.322874764815    12.000000000000
         C           -1.247126032268    -3.534717657340    -0.311310811407    12.000000000000
         C            1.209240878602    -3.547900160421    -0.308771781615    12.000000000000
         C            2.437331831113    -2.847627219953    -0.322911539926    12.000000000000
         C            4.894298152729    -2.861108450063    -0.322090799855    12.000000000000
         C            3.664611063999    -3.564205327309    -0.309211379914    12.000000000000
         C            6.128634823704    -3.582569539495    -0.315865537957    12.000000000000
         C            7.339668473654    -2.858398789148    -0.314350311875    12.000000000000
         H           -9.541453302301    -1.174548948442    -0.314569664172     1.007825032230
         H            9.528257677030    -1.276904555682    -0.314855641275     1.007825032230
         H           -8.315169234890    -3.318135334990    -0.309531923186     1.007825032230
         H            8.279150951450    -3.407126271671    -0.310010755892     1.007825032230
         C           -6.144998379744    -4.927632754561    -0.313807945934    12.000000000000
         C           -3.706787539039    -4.941247195895    -0.323628914022    12.000000000000
         C           -4.955594249043    -5.643479455272    -0.315661779377    12.000000000000
         C           -2.486125517268    -5.654771056187    -0.310689242977    12.000000000000
         C           -1.254062526522    -4.956107531779    -0.321864848963    12.000000000000
         C            1.201008382827    -4.969265869970    -0.320683724705    12.000000000000
         C           -0.030340865455    -5.669505784916    -0.312840525041    12.000000000000
         C            3.653745910287    -4.980729257192    -0.319925724957    12.000000000000
         C            2.425488504834    -5.681160117305    -0.310548794405    12.000000000000
         C            6.091961426769    -4.993243445164    -0.313571311283    12.000000000000
         C            4.894972253569    -5.696333902735    -0.314807507114    12.000000000000
         H           -7.089896579082    -5.466985324016    -0.309405184253     1.007825032230
         H            7.031051018158    -5.542644018110    -0.309991531520     1.007825032230
         C           -4.923549513240    -7.078806581455    -0.316216548282    12.000000000000
         C           -2.485346279279    -7.087713559707    -0.318726440718    12.000000000000
         C           -3.751690082821    -7.763932639414    -0.318531761793    12.000000000000
         C           -0.037953148030    -7.099450356247    -0.318510715570    12.000000000000
         C           -1.277960291443    -7.772889866444    -0.320495408332    12.000000000000
         C            2.409440129685    -7.114007493780    -0.317647514759    12.000000000000
         C            1.194745746111    -7.786170847340    -0.319799805641    12.000000000000
         C            4.847616861456    -7.131247592357    -0.315140700100    12.000000000000
         C            3.668467414834    -7.803773474721    -0.317489134463    12.000000000000
         H           -5.869944541458    -7.613816079819    -0.314672511416     1.007825032230
         H            5.788245434347    -7.676317671092    -0.314013580618     1.007825032230
         H           -3.753531130491    -8.851057051013    -0.320367676221     1.007825032230
         H           -1.284308596936    -8.860860874274    -0.324922792190     1.007825032230
         H            1.189217383654    -8.874146102367    -0.323892442331     1.007825032230
         H            3.658542423782    -8.890846115831    -0.319143675886     1.007825032230

  Charge       = 0
  Multiplicity = 1
  Basis Set: JUN-CC-PVDZ
    Blend: JUN-CC-PVDZ
  Basis Set: (JUN-CC-PVDZ AUX)
    Blend: JUN-CC-PVDZ-JKFIT

    Orbital Energies [Eh]
    ---------------------

    Doubly Occupied:

       1A    -11.264074     2A    -11.263762     3A    -11.263696
       4A    -11.263369     5A    -11.263316     6A    -11.263296
       7A    -11.263163     8A    -11.263144     9A    -11.263119
      10A    -11.262927    11A    -11.262792    12A    -11.262784
      13A    -11.262304    14A    -11.262293    15A    -11.262260
      16A    -11.262241    17A    -11.262160    18A    -11.262144
      19A    -11.262103    20A    -11.262067    21A    -11.262051
      22A    -11.261947    23A    -11.261920    24A    -11.261789
      25A    -11.261777    26A    -11.261765    27A    -11.261749
      28A    -11.261716    29A    -11.261701    30A    -11.261614
      31A    -11.261594    32A    -11.261588    33A    -11.261569
      34A    -11.261558    35A    -11.261553    36A    -11.261541
      37A    -11.261362    38A    -11.261353    39A    -11.261346
      40A    -11.261340    41A    -11.261336    42A    -11.261329
      43A    -11.261319    44A    -11.261302    45A    -11.261299
      46A    -11.261274    47A    -11.261271    48A    -11.261265
      49A    -11.261096    50A    -11.261065    51A    -11.261062
      52A    -11.260996    53A    -11.260975    54A    -11.260922
      55A    -11.259952    56A    -11.259940    57A    -11.259934
      58A    -11.259909    59A    -11.259902    60A    -11.259888
      61A    -11.259324    62A    -11.259300    63A    -11.259294
      64A    -11.259244    65A    -11.259240    66A    -11.259211
      67A    -11.258955    68A    -11.258940    69A    -11.258933
      70A    -11.258909    71A    -11.258902    72A    -11.258892
      73A    -11.254549    74A    -11.254548    75A    -11.254547
      76A    -11.254543    77A    -11.254539    78A    -11.254538
      79A    -11.253686    80A    -11.253684    81A    -11.253680
      82A    -11.253679    83A    -11.253679    84A    -11.253674
      85A    -11.253601    86A    -11.253600    87A    -11.253596
      88A    -11.253595    89A    -11.253594    90A    -11.253589
      91A    -11.253076    92A    -11.253076    93A    -11.253075
      94A    -11.253071    95A    -11.253067    96A    -11.253066
      97A     -1.253988    98A     -1.239049    99A     -1.239032
     100A     -1.220504   101A     -1.220499   102A     -1.215476
     103A     -1.201078   104A     -1.195644   105A     -1.188185
     106A     -1.188173   107A     -1.173802   108A     -1.173796
     109A     -1.155670   110A     -1.155666   111A     -1.152751
     112A     -1.144758   113A     -1.144754   114A     -1.128608
     115A     -1.114755   116A     -1.113197   117A     -1.112514
     118A     -1.112509   119A     -1.111652   120A     -1.088470
     121A     -1.088450   122A     -1.076994   123A     -1.076993
     124A     -1.067653   125A     -1.067627   126A     -1.065008
     127A     -1.046839   128A     -1.046831   129A     -1.040520
     130A     -1.038769   131A     -1.038767   132A     -1.025280
     133A     -1.021423   134A     -1.021378   135A     -1.007216
     136A     -1.006852   137A     -1.003831   138A     -1.000528
     139A     -1.000481   140A     -0.991107   141A     -0.971026
     142A     -0.970980   143A     -0.955917   144A     -0.955862
     145A     -0.905634   146A     -0.905588   147A     -0.905581
     148A     -0.905541   149A     -0.904374   150A     -0.892406
     151A     -0.892356   152A     -0.890407   153A     -0.890341
     154A     -0.889496   155A     -0.872250   156A     -0.869084
     157A     -0.851575   158A     -0.847906   159A     -0.847885
     160A     -0.845636   161A     -0.843058   162A     -0.834603
     163A     -0.834588   164A     -0.828146   165A     -0.828145
     166A     -0.784585   167A     -0.784572   168A     -0.783699
     169A     -0.783666   170A     -0.782323   171A     -0.782308
     172A     -0.782071   173A     -0.767029   174A     -0.760831
     175A     -0.750609   176A     -0.733517   177A     -0.727104
     178A     -0.727097   179A     -0.725121   180A     -0.724574
     181A     -0.724563   182A     -0.718526   183A     -0.713809
     184A     -0.713803   185A     -0.699606   186A     -0.699601
     187A     -0.686157   188A     -0.685989   189A     -0.685988
     190A     -0.682211   191A     -0.682195   192A     -0.678803
     193A     -0.653655   194A     -0.650904   195A     -0.650876
     196A     -0.649850   197A     -0.649830   198A     -0.649597
     199A     -0.640956   200A     -0.640944   201A     -0.640121
     202A     -0.639194   203A     -0.636050   204A     -0.636030
     205A     -0.629177   206A     -0.617760   207A     -0.615333
     208A     -0.615316   209A     -0.608835   210A     -0.608828
     211A     -0.599167   212A     -0.599091   213A     -0.598775
     214A     -0.598652   215A     -0.598615   216A     -0.598068
     217A     -0.595098   218A     -0.595087   219A     -0.594754
     220A     -0.594270   221A     -0.591987   222A     -0.591984
     223A     -0.587426   224A     -0.577821   225A     -0.577812
     226A     -0.575681   227A     -0.575678   228A     -0.573414
     229A     -0.569599   230A     -0.568170   231A     -0.568152
     232A     -0.566789   233A     -0.566771   234A     -0.560939
     235A     -0.558746   236A     -0.558735   237A     -0.558453
     238A     -0.554400   239A     -0.550572   240A     -0.547500
     241A     -0.544282   242A     -0.535072   243A     -0.534965
     244A     -0.533565   245A     -0.533542   246A     -0.528106
     247A     -0.528092   248A     -0.527826   249A     -0.517192
     250A     -0.517159   251A     -0.515369   252A     -0.515364
     253A     -0.509673   254A     -0.509654   255A     -0.498058
     256A     -0.496481   257A     -0.496453   258A     -0.493804
     259A     -0.493783   260A     -0.489456   261A     -0.481480
     262A     -0.477436   263A     -0.477430   264A     -0.474024
     265A     -0.469474   266A     -0.466557   267A     -0.466552
     268A     -0.458815   269A     -0.446722   270A     -0.446659
     271A     -0.441047   272A     -0.440783   273A     -0.440765
     274A     -0.434702   275A     -0.433923   276A     -0.407387
     277A     -0.407367   278A     -0.386418   279A     -0.386368
     280A     -0.385747   281A     -0.385744   282A     -0.383767
     283A     -0.354330   284A     -0.354318   285A     -0.350674
     286A     -0.338108   287A     -0.335629   288A     -0.335526
     289A     -0.332727   290A     -0.332719   291A     -0.307080
     292A     -0.301948   293A     -0.301898   294A     -0.300857
     295A     -0.286186   296A     -0.256481   297A     -0.253521
     298A     -0.253452   299A     -0.204273   300A     -0.204189

  @DF-RHF Final Energy: -3650.33934070540818

   => Energetics <=

    Nuclear Repulsion Energy =          15611.4211649754324753
    One-Electron Energy =              -36072.1275393456598977
    Two-Electron Energy =               16810.3670336648174271
    Total Energy =                      -3650.3393407054099953
 Dipole X            :         -0.0005759            0.0001983           -0.0003775
 Dipole Y            :          0.0011397           -0.0013163           -0.0001766
 Dipole Z            :        359.2264642         -359.2303264           -0.0038622
 Magnitude           :                                                    0.0038846

    SAPT Results
  --------------------------------------------------------------------------------------------------------
    Electrostatics                 11.43650758 [mEh]       7.17651685 [kcal/mol]      30.02654651 [kJ/mol]
      Elst10,r                     11.43650758 [mEh]       7.17651685 [kcal/mol]      30.02654651 [kJ/mol]

    Exchange                        0.56557398 [mEh]       0.35490303 [kcal/mol]       1.48491429 [kJ/mol]
      Exch10                        0.56557398 [mEh]       0.35490303 [kcal/mol]       1.48491429 [kJ/mol]
      Exch10(S^2)                   0.56557582 [mEh]       0.35490419 [kcal/mol]       1.48491912 [kJ/mol]

    Induction                     -10.61461989 [mEh]      -6.66077454 [kcal/mol]     -27.86868067 [kJ/mol]
      Ind20,r                     -10.74997330 [mEh]      -6.74571009 [kcal/mol]     -28.22405101 [kJ/mol]
      Exch-Ind20,r                  0.11453046 [mEh]       0.07186895 [kcal/mol]       0.30069969 [kJ/mol]
      delta HF,r (2)                0.02082295 [mEh]       0.01306660 [kcal/mol]       0.05467065 [kJ/mol]

    Dispersion                     -3.74075013 [mEh]      -2.34735614 [kcal/mol]      -9.82133810 [kJ/mol]
      Disp20                       -3.86432355 [mEh]      -2.42489964 [kcal/mol]     -10.14578008 [kJ/mol]
      Exch-Disp20                   0.12357342 [mEh]       0.07754349 [kcal/mol]       0.32444197 [kJ/mol]
      Disp20 (SS)                  -1.93216177 [mEh]      -1.21244982 [kcal/mol]      -5.07289004 [kJ/mol]
      Disp20 (OS)                  -1.93216177 [mEh]      -1.21244982 [kcal/mol]      -5.07289004 [kJ/mol]
      Exch-Disp20 (SS)              0.08044834 [mEh]       0.05048209 [kcal/mol]       0.21121708 [kJ/mol]
      Exch-Disp20 (OS)              0.04312509 [mEh]       0.02706140 [kcal/mol]       0.11322490 [kJ/mol]

  Total HF                          1.38746168 [mEh]       0.87064535 [kcal/mol]       3.64278013 [kJ/mol]
  Total SAPT0                      -2.35328845 [mEh]      -1.47671080 [kcal/mol]      -6.17855798 [kJ/mol]

  Special recipe for scaled SAPT0 (see Manual):
    Electrostatics sSAPT0          11.43650758 [mEh]       7.17651685 [kcal/mol]      30.02654651 [kJ/mol]
    Exchange sSAPT0                 0.56557398 [mEh]       0.35490303 [kcal/mol]       1.48491429 [kJ/mol]
    Induction sSAPT0              -10.61462100 [mEh]      -6.66077524 [kcal/mol]     -27.86868361 [kJ/mol]
    Dispersion sSAPT0              -3.74075133 [mEh]      -2.34735690 [kcal/mol]      -9.82134127 [kJ/mol]
  Total sSAPT0                     -2.35329078 [mEh]      -1.47671226 [kcal/mol]      -6.17856408 [kJ/mol]
  --------------------------------------------------------------------------------------------------------

*** Psi4 exiting successfully. Buy a developer a beer!
