                               Psi4 1.9 release

  ==> Input File <==

--------------------------------------------------------------------------
memory 64 GB # how much memory is available ! Depends on the nodes/cores !

molecule dimer {
# monomer A
-1 1    # Charge and multiplicity
B -1.977592e-04  2.742729e-04 -2.599966
F  1.123153e-16  1.430594e-17 -1.187181
F  1.147860e+00  6.757812e-01 -3.071107
F  1.191806e-02 -1.332011e+00 -3.070905
F -1.159666e+00  6.560735e-01 -3.070826
--
# monomer B
0 1     # Charge and multiplicity
C   -3.66844126402057      7.80375217008252      0.00190004133558
C   -4.84759871934653      7.13124183134024     -0.00046653359696
C   -4.89495929917518      5.69633040353158     -0.00103944469517
C   -3.65374067877320      4.98073034095895      0.00662099703436
C   -2.40942512149445      7.11398103667468      0.00209438359570
C   -2.42547734410473      5.68112195090346     -0.00491050527438
C   -1.19474401643570      7.78614419430947      0.00356656413763
C   0.03795902893699      7.09942164575698      0.00139585983271
C   0.03033258741920      5.66948955970466     -0.00408752508301
C   -1.20098450790502      4.96927034791531      0.00488220885047
C   1.27795782581485      7.77285944319479      0.00277170839332
C   2.48535808472416      7.08769688523756      0.00049722048857
C   2.48612868491717      5.65477081024076     -0.00644052849921
C   1.25408291964399      4.95607811366431      0.00518741308898
C   3.75171459140595      7.76391215098033      0.00062407186893
C   4.92356605618520      7.07878077698995     -0.00143240883900
C   4.95560727132542      5.64344746336949     -0.00159282164606
C   3.70680153420475      4.94121020833308      0.00349873852374
H   -3.65852113775815      8.89082741913536      0.00358502958574
H   -1.18921332975660      8.87412108735996      0.00753844057883
H   1.28429423888630      8.86083343548850      0.00693053253426
H   3.75354208679975      8.85103527897216      0.00214659618464
H   5.86995870320703      7.61379483465560     -0.00235777588134
H   -5.78823170750226      7.67630221293400     -0.00202638095293
C   -6.09197395869619      4.99326001364347     -0.00291168518608
C   -6.12866148031747      3.58258016879823     -0.00171050815740
C   -3.66457974004527      3.56418217974434     -0.00463560277484
C   -4.89429820469869      2.86108077590057      0.00453338221034
C   -2.43733499489796      2.84761165708481      0.00719617576166
C   -1.20922785759670      3.54788693497833     -0.00648285103018
C   1.24714157216223      3.53468075142962     -0.00729145743546
C   0.01517603956900      2.83311183930540      0.00439272578912
C   2.46764517244071      2.82128997725533      0.00449278391269
C   3.70254947457969      3.52466015442405     -0.00899517692985
C   6.14498038638375      4.92757236613191     -0.00282626685777
C   6.16658835886151      3.51658447594213     -0.00065971342101
C   4.92460995845939      2.80840792535402      0.00587903281610
H   7.08990550964105      5.46688776622306     -0.00658814770723
H   -7.03104175110130      5.54268795285765     -0.00714490013730
C   -7.33969804112295      2.85841153457957     -0.00333767559888
C   -7.36488195805880      1.47032337158330     -0.00157213747140
C   -4.90350460894690      1.44442681216000     -0.00628840166334
C   -6.13225715261081      0.73993935705394      0.00600164231964
C   -3.67687480051673      0.72669714267312      0.00433931473643
C   -2.44565658606518      1.42964113326212     -0.00597039546461
C   -1.22360068130162      0.71532450163492      0.00545886906656
C   0.00763786931376      1.41738314923765      0.00392452278437
C   1.23121980774686      0.70211669058719     -0.01490206287210
C   2.46082110053113      1.40329203612573      0.00460244601878
C   3.68443025419614      0.68719842821222      0.00377365974158
C   4.91870890153864      1.39173456118907     -0.00862816189375
C   7.36980207796101      2.77948220318441     -0.00242013321349
C   7.38016266612146      1.39121750785509     -0.00087345036788
C   6.13979953912259      0.67411862320065      0.00545489144369
H   -8.27919079934664      3.40711804112415     -0.00763522772059
H   8.31511347147953      3.31811809662368     -0.00663070901292
C   -8.59175593758115      0.72483255304480     -0.00123170985383
C   -8.59902460370342     -0.63263980622873      0.00089141472904
C   -6.13981313911873     -0.67413663715361     -0.00609792660607
C   -7.38018411213749     -1.39126618958160      0.00131813493501
C   -4.91868448025621     -1.39175501803000      0.00624257154343
C   -3.68443829568458     -0.68723731573599     -0.00478966852105
C   -2.46081704024768     -1.40334517882457      0.00575341766833
C   -1.23116201232071     -0.70217386488055     -0.00636696112346
C   -0.00756962538737     -1.41741884941102      0.00108956317991
C   1.22364771588843     -0.71527537726392      0.01109518512883
C   2.44567064933149     -1.42964328900682     -0.00065482763106
C   3.67686670284649     -0.72670743155550     -0.00479541202602
C   6.13224884641929     -0.73997883984993     -0.00632338623858
C   4.90351914550401     -1.44445752054090      0.00751768830159
C   8.59901484869081      0.63260386666793     -0.00101133422380
C   8.59174548810050     -0.72485086719319      0.00072504603735
C   7.36486276438985     -1.47033266560598      0.00049486934466
H   -9.52830597181814      1.27684744919284     -0.00270163681798
H   9.54141097460619      1.17457248844457     -0.00206336648518
C   -7.36983790976868     -2.77954514593389      0.00312634335708
C   -4.92459910905015     -2.80843725734101     -0.00460528907921
C   -6.16662249566744     -3.51665219282533      0.00169655107992
C   -3.70251035970491     -3.52468154912026      0.00571878010666
C   -2.46764698511392     -2.82132596280400     -0.00632585824990
C   -0.01513347410770     -2.83314164539971     -0.00604426974092
C   -1.24712184122656     -3.53473217556300      0.00551968366725
C   1.20924506964357     -3.54791467864352      0.00805871345849
C   2.43733602215464     -2.84764173817541     -0.00608104485234
C   4.89430234377080     -2.86112296828604     -0.00526030478103
C   3.66461525504104     -3.56421984553201      0.00761911515957
C   6.12863901474565     -3.58258405771778      0.00096495711699
C   7.33967266469532     -2.85841330737039      0.00248018319869
H   -9.54144911125902     -1.17456346666430      0.00226083090216
H   9.52826186807155     -1.27691907390448      0.00197485379837
H   -8.31516504384864     -3.31814985321231      0.00729857188773
H   8.27915514249207     -3.40714078989363      0.00681973918158
C   -6.14499418870218     -4.92764727278338      0.00302254913999
C   -3.70678334799751     -4.94126171411716     -0.00679841894792
C   -4.95559005800169     -5.64349397349412      0.00116871569699
C   -2.48612132622665     -5.65478557440947      0.00614125209662
C   -1.25405833548005     -4.95612205000132     -0.00503435388927
C   1.20101257386816     -4.96928038819302     -0.00385322963129
C   -0.03033667441341     -5.66952030313900      0.00398997003238
C   3.65375010132847     -4.98074377541453     -0.00309522988330
C   2.42549269587528     -5.68117463552727      0.00628170066869
C   6.09196561781097     -4.99325796338655      0.00325918379042
C   4.89497644461045     -5.69634842095790      0.00202298796027
H   -7.08989238804069     -5.46699984223871      0.00742531082125
H   7.03105520920009     -5.54265853633254      0.00683896355417
C   -4.92354532219813     -7.07882109967734      0.00061394679214
C   -2.48534208823777     -7.08772807792913     -0.00189594564379
C   -3.75168589177895     -7.76394715763627     -0.00170126671874
C   -0.03794895698805     -7.09946487446944     -0.00168022049625
C   -1.27795610040136     -7.77290438466689     -0.00366491325785
C   2.40944432072629     -7.11402201200282     -0.00081701968533
C   1.19474993715296     -7.78618536556242     -0.00296931056689
C   4.84762105249800     -7.13126211057943      0.00168979497423
C   3.66847160587561     -7.80378799294376     -0.00065863938960
H   -5.86994035041618     -7.61383059804164      0.00215798365757
H   5.78824962538815     -7.67633218931421      0.00281691445618
H   -3.75352693944918     -8.85107156923607     -0.00353718114765
H   -1.28430440589466     -8.86087539249706     -0.00809229711623
H   1.18922157469537     -8.87416062058945     -0.00706194725726
H   3.65854661482387     -8.89086063405326     -0.00231318081200

    units angstrom      # Angstroms are the default
    no_reorient         # Geometry fixed, default
    symmetry c1         # C1 symmetry, default
}

set {
    scf_type DF         # Density fitting, faster than exact integrals
    freeze_core True    # Freeze core electrons
    basis jun-cc-pVDZ   # Jun-cc-pVDZ basis set, recommended for sSAPT0 in https://doi.org/10.1063/1.4867135
}

energy('ssapt0')        # Compute sSAPT0 energy, includes also SAPT0
--------------------------------------------------------------------------

  //              Dimer HF             //
    Molecular point group: c1
  Charge       = -1
  Multiplicity = 1
  Basis Set: JUN-CC-PVDZ
    Blend: JUN-CC-PVDZ
  Basis Set: (JUN-CC-PVDZ AUX)
    Blend: JUN-CC-PVDZ-JKFIT
  @DF-RHF Final Energy: -4072.79223153894509
    Total Energy =                      -4072.7922315389441792
 Dipole X            :          0.0003675           -0.0000548            0.0003128
 Dipole Y            :         -0.0001369           -0.0002464           -0.0003833
 Dipole Z            :        -12.8907117           15.4725615            2.5818498
 Magnitude           :                                                    2.5818498
  //            Monomer A HF           //
    Molecular point group: c1
  Multiplicity = 1
  Basis Set: JUN-CC-PVDZ
    Blend: JUN-CC-PVDZ
  Basis Set: (JUN-CC-PVDZ AUX)
    Blend: JUN-CC-PVDZ-JKFIT
  @DF-RHF Final Energy:  -422.77736646706950
    Total Energy =                       -422.7773664670694984
  //            Monomer B HF           //
    Molecular point group: c1

    Geometry (in Angstrom), charge = 0, multiplicity = 1:

       Center              X                  Y                   Z               Mass
    ------------   -----------------  -----------------  -----------------  -----------------
      Gh(B)          -0.000201921932     0.000288800891    -2.420892781598    11.009305360000
      Gh(F)          -0.000004162732     0.000014527991    -1.008107781598    18.998403162730
      Gh(F)           1.147855837268     0.675795727991    -2.892033781598    18.998403162730
      Gh(F)           0.011913897268    -1.331996472009    -2.891831781598    18.998403162730
      Gh(F)          -1.159670162732     0.656088027991    -2.891752781598    18.998403162730
         C           -3.668445426752     7.803766698073     0.180973259737    12.000000000000
         C           -4.847602882078     7.131256359331     0.178606684805    12.000000000000
         C           -4.894963461907     5.696344931522     0.178033773706    12.000000000000
         C           -3.653744841505     4.980744868950     0.185694215436    12.000000000000
         C           -2.409429284226     7.113995564665     0.181167601997    12.000000000000
         C           -2.425481506836     5.681136478894     0.174162713127    12.000000000000
         C           -1.194748179167     7.786158722300     0.182639782539    12.000000000000
         C            0.037954866205     7.099436173748     0.180469078234    12.000000000000
         C            0.030328424687     5.669504087695     0.174985693319    12.000000000000
         C           -1.200988670637     4.969284875906     0.183955427252    12.000000000000
         C            1.277953663083     7.772873971185     0.181844926795    12.000000000000
         C            2.485353921992     7.087711413228     0.179570438890    12.000000000000
         C            2.486124522185     5.654785338231     0.172632689902    12.000000000000
         C            1.254078756912     4.956092641655     0.184260631491    12.000000000000
         C            3.751710428674     7.763926678971     0.179697290271    12.000000000000
         C            4.923561893453     7.078795304981     0.177640809563    12.000000000000
         C            4.955603108594     5.643461991360     0.177480396756    12.000000000000
         C            3.706797371473     4.941224736324     0.182571956925    12.000000000000
         H           -3.658525300490     8.890841947126     0.182658247987     1.007825032230
         H           -1.189217492488     8.874135615351     0.186611658980     1.007825032230
         H            1.284290076155     8.860847963479     0.186003750936     1.007825032230
         H            3.753537924068     8.851049806963     0.181219814586     1.007825032230
         H            5.869954540475     7.613809362646     0.176715442520     1.007825032230
         H           -5.788235870234     7.676316740925     0.177046837449     1.007825032230
         C           -6.091978121428     4.993274541634     0.176161533216    12.000000000000
         C           -6.128665643049     3.582594696789     0.177362710244    12.000000000000
         C           -3.664583902777     3.564196707735     0.174437615627    12.000000000000
         C           -4.894302367430     2.861095303891     0.183606600612    12.000000000000
         C           -2.437339157630     2.847626185075     0.186269394163    12.000000000000
         C           -1.209232020328     3.547901462969     0.172590367371    12.000000000000
         C            1.247137409430     3.534695279420     0.171781760966    12.000000000000
         C            0.015171876837     2.833126367296     0.183465944191    12.000000000000
         C            2.467641009709     2.821304505246     0.183566002314    12.000000000000
         C            3.702545311848     3.524674682415     0.170078041472    12.000000000000
         C            6.144976223652     4.927586894122     0.176246951544    12.000000000000
         C            6.166584196130     3.516599003933     0.178413504981    12.000000000000
         C            4.924605795728     2.808422453345     0.184952251218    12.000000000000
         H            7.089901346909     5.466902294214     0.172485070694     1.007825032230
         H           -7.031045913833     5.542702480848     0.171928318264     1.007825032230
         C           -7.339702203855     2.858426062570     0.175735542803    12.000000000000
         C           -7.364886120791     1.470337899574     0.177501080930    12.000000000000
         C           -4.903508771679     1.444441340151     0.172784816738    12.000000000000
         C           -6.132261315343     0.739953885044     0.185074860721    12.000000000000
         C           -3.676878963248     0.726711670664     0.183412533138    12.000000000000
         C           -2.445660748797     1.429655661253     0.173102822937    12.000000000000
         C           -1.223604844033     0.715339029625     0.184532087468    12.000000000000
         C            0.007633706582     1.417397677228     0.182997741186    12.000000000000
         C            1.231215645015     0.702131218578     0.164171155530    12.000000000000
         C            2.460816937799     1.403306564116     0.183675664420    12.000000000000
         C            3.684426091464     0.687212956203     0.182846878143    12.000000000000
         C            4.918704738807     1.391749089180     0.170445056508    12.000000000000
         C            7.369797915229     2.779496731175     0.176653085188    12.000000000000
         C            7.380158503390     1.391232035846     0.178199768034    12.000000000000
         C            6.139795376391     0.674133151191     0.184528109845    12.000000000000
         H           -8.279194962078     3.407132569115     0.171437990681     1.007825032230
         H            8.315109308748     3.318132624614     0.172442509389     1.007825032230
         C           -8.591760100313     0.724847081035     0.177841508548    12.000000000000
         C           -8.599028766435    -0.632625278238     0.179964633131    12.000000000000
         C           -6.139817301850    -0.674122109163     0.172975291796    12.000000000000
         C           -7.380188274869    -1.391251661591     0.180391353337    12.000000000000
         C           -4.918688642988    -1.391740490039     0.185315789945    12.000000000000
         C           -3.684442458416    -0.687222787745     0.174283549881    12.000000000000
         C           -2.460821202979    -1.403330650834     0.184826636070    12.000000000000
         C           -1.231166175052    -0.702159336890     0.172706257278    12.000000000000
         C           -0.007573788119    -1.417404321420     0.180162781582    12.000000000000
         C            1.223643553157    -0.715260849273     0.190168403530    12.000000000000
         C            2.445666486600    -1.429628761016     0.178418390771    12.000000000000
         C            3.676862540115    -0.726692903565     0.174277806376    12.000000000000
         C            6.132244683688    -0.739964311859     0.172749832163    12.000000000000
         C            4.903514982772    -1.444442992550     0.186590906703    12.000000000000
         C            8.599010685959     0.632618394658     0.178061884178    12.000000000000
         C            8.591741325369    -0.724836339203     0.179798264439    12.000000000000
         C            7.364858601658    -1.470318137615     0.179568087746    12.000000000000
         H           -9.528310134550     1.276861977183     0.176371581584     1.007825032230
         H            9.541406811874     1.174587016435     0.177009851916     1.007825032230
         C           -7.369842072500    -2.779530617943     0.182199561759    12.000000000000
         C           -4.924603271782    -2.808422729350     0.174467929322    12.000000000000
         C           -6.166626658399    -3.516637664835     0.180769769482    12.000000000000
         C           -3.702514522437    -3.524667021130     0.184791998508    12.000000000000
         C           -2.467651147846    -2.821311434813     0.172747360152    12.000000000000
         C           -0.015137636839    -2.833127117409     0.173028948661    12.000000000000
         C           -1.247126003958    -3.534717647572     0.184592902069    12.000000000000
         C            1.209240906912    -3.547900150653     0.187131931860    12.000000000000
         C            2.437331859423    -2.847627210185     0.172992173549    12.000000000000
         C            4.894298181039    -2.861108440295     0.173812913621    12.000000000000
         C            3.664611092309    -3.564205317541     0.186692333561    12.000000000000
         C            6.128634852014    -3.582569529727     0.180038175519    12.000000000000
         C            7.339668501964    -2.858398779380     0.181553401600    12.000000000000
         H           -9.541453273991    -1.174548938674     0.181334049304     1.007825032230
         H            9.528257705340    -1.276904545914     0.181048072200     1.007825032230
         H           -8.315169206580    -3.318135325222     0.186371790289     1.007825032230
         H            8.279150979760    -3.407126261903     0.185892957583     1.007825032230
         C           -6.144998351434    -4.927632744793     0.182095767542    12.000000000000
         C           -3.706787510729    -4.941247186127     0.172274799454    12.000000000000
         C           -4.955594220733    -5.643479445504     0.180241934099    12.000000000000
         C           -2.486125488958    -5.654771046419     0.185214470498    12.000000000000
         C           -1.254062498212    -4.956107522011     0.174038864512    12.000000000000
         C            1.201008411136    -4.969265860202     0.175219988770    12.000000000000
         C           -0.030340837145    -5.669505775148     0.183063188434    12.000000000000
         C            3.653745938597    -4.980729247424     0.175977988518    12.000000000000
         C            2.425488533144    -5.681160107537     0.185354919070    12.000000000000
         C            6.091961455079    -4.993243435396     0.182332402192    12.000000000000
         C            4.894972281879    -5.696333892967     0.181096206362    12.000000000000
         H           -7.089896550772    -5.466985314248     0.186498529223     1.007825032230
         H            7.031051046468    -5.542644008342     0.185912181956     1.007825032230
         C           -4.923549484930    -7.078806571687     0.179687165194    12.000000000000
         C           -2.485346250970    -7.087713549939     0.177177272758    12.000000000000
         C           -3.751690054511    -7.763932629646     0.177371951683    12.000000000000
         C           -0.037953119720    -7.099450346479     0.177392997905    12.000000000000
         C           -1.277960263133    -7.772889856676     0.175408305144    12.000000000000
         C            2.409440157995    -7.114007484012     0.178256198716    12.000000000000
         C            1.194745774421    -7.786170837572     0.176103907835    12.000000000000
         C            4.847616889766    -7.131247582589     0.180763013376    12.000000000000
         C            3.668467443144    -7.803773464953     0.178414579012    12.000000000000
         H           -5.869944513148    -7.613816070051     0.181231202059     1.007825032230
         H            5.788245462656    -7.676317661324     0.181890132858     1.007825032230
         H           -3.753531102181    -8.851057041246     0.175536037254     1.007825032230
         H           -1.284308568626    -8.860860864507     0.170980921285     1.007825032230
         H            1.189217411964    -8.874146092599     0.172011271144     1.007825032230
         H            3.658542452092    -8.890846106063     0.176760037590     1.007825032230

  Charge       = 0
  Multiplicity = 1
  Basis Set: JUN-CC-PVDZ
    Blend: JUN-CC-PVDZ
  Basis Set: (JUN-CC-PVDZ AUX)
    Blend: JUN-CC-PVDZ-JKFIT

    Orbital Energies [Eh]
    ---------------------

    Doubly Occupied:

       1A    -11.264013     2A    -11.263658     3A    -11.263655
       4A    -11.263253     5A    -11.263251     6A    -11.263217
       7A    -11.263064     8A    -11.263060     9A    -11.263057
      10A    -11.262838    11A    -11.262706    12A    -11.262702
      13A    -11.262217    14A    -11.262214    15A    -11.262178
      16A    -11.262177    17A    -11.262080    18A    -11.262074
      19A    -11.262028    20A    -11.261991    21A    -11.261989
      22A    -11.261872    23A    -11.261867    24A    -11.261731
      25A    -11.261721    26A    -11.261704    27A    -11.261697
      28A    -11.261655    29A    -11.261647    30A    -11.261553
      31A    -11.261531    32A    -11.261527    33A    -11.261500
      34A    -11.261498    35A    -11.261492    36A    -11.261475
      37A    -11.261316    38A    -11.261309    39A    -11.261303
      40A    -11.261297    41A    -11.261292    42A    -11.261287
      43A    -11.261266    44A    -11.261248    45A    -11.261244
      46A    -11.261220    47A    -11.261218    48A    -11.261211
      49A    -11.261020    50A    -11.260987    51A    -11.260983
      52A    -11.260904    53A    -11.260901    54A    -11.260841
      55A    -11.259894    56A    -11.259880    57A    -11.259877
      58A    -11.259848    59A    -11.259846    60A    -11.259829
      61A    -11.259264    62A    -11.259239    63A    -11.259235
      64A    -11.259183    65A    -11.259180    66A    -11.259151
      67A    -11.258895    68A    -11.258877    69A    -11.258875
      70A    -11.258847    71A    -11.258844    72A    -11.258833
      73A    -11.254519    74A    -11.254517    75A    -11.254513
      76A    -11.254512    77A    -11.254511    78A    -11.254510
      79A    -11.253637    80A    -11.253636    81A    -11.253634
      82A    -11.253632    83A    -11.253629    84A    -11.253628
      85A    -11.253552    86A    -11.253551    87A    -11.253549
      88A    -11.253548    89A    -11.253544    90A    -11.253544
      91A    -11.253047    92A    -11.253045    93A    -11.253041
      94A    -11.253040    95A    -11.253039    96A    -11.253038
      97A     -1.253840    98A     -1.238944    99A     -1.238942
     100A     -1.220429   101A     -1.220424   102A     -1.215323
     103A     -1.201017   104A     -1.195577   105A     -1.188062
     106A     -1.188060   107A     -1.173742   108A     -1.173739
     109A     -1.155571   110A     -1.155567   111A     -1.152598
     112A     -1.144702   113A     -1.144699   114A     -1.128524
     115A     -1.114659   116A     -1.113135   117A     -1.112395
     118A     -1.112380   119A     -1.111601   120A     -1.088383
     121A     -1.088368   122A     -1.076937   123A     -1.076936
     124A     -1.067563   125A     -1.067534   126A     -1.064875
     127A     -1.046763   128A     -1.046756   129A     -1.040438
     130A     -1.038713   131A     -1.038712   132A     -1.025177
     133A     -1.021274   134A     -1.021224   135A     -1.007143
     136A     -1.006776   137A     -1.003760   138A     -1.000430
     139A     -1.000382   140A     -0.991055   141A     -0.970928
     142A     -0.970879   143A     -0.955852   144A     -0.955797
     145A     -0.905532   146A     -0.905514   147A     -0.905491
     148A     -0.905471   149A     -0.904216   150A     -0.892288
     151A     -0.892229   152A     -0.890297   153A     -0.890240
     154A     -0.889408   155A     -0.872185   156A     -0.869042
     157A     -0.851510   158A     -0.847796   159A     -0.847775
     160A     -0.845536   161A     -0.842972   162A     -0.834529
     163A     -0.834516   164A     -0.828086   165A     -0.828083
     166A     -0.784507   167A     -0.784496   168A     -0.783597
     169A     -0.783571   170A     -0.782234   171A     -0.782214
     172A     -0.781960   173A     -0.766959   174A     -0.760710
     175A     -0.750505   176A     -0.733458   177A     -0.727028
     178A     -0.727015   179A     -0.725037   180A     -0.724507
     181A     -0.724489   182A     -0.718412   183A     -0.713692
     184A     -0.713685   185A     -0.699534   186A     -0.699522
     187A     -0.686025   188A     -0.685930   189A     -0.685926
     190A     -0.682143   191A     -0.682133   192A     -0.678709
     193A     -0.653578   194A     -0.650819   195A     -0.650789
     196A     -0.649735   197A     -0.649719   198A     -0.649535
     199A     -0.640836   200A     -0.640809   201A     -0.640059
     202A     -0.639139   203A     -0.635959   204A     -0.635932
     205A     -0.629100   206A     -0.617739   207A     -0.615277
     208A     -0.615257   209A     -0.608763   210A     -0.608757
     211A     -0.599105   212A     -0.599071   213A     -0.598685
     214A     -0.598555   215A     -0.598533   216A     -0.597955
     217A     -0.595037   218A     -0.595024   219A     -0.594678
     220A     -0.594153   221A     -0.591895   222A     -0.591892
     223A     -0.587313   224A     -0.577776   225A     -0.577766
     226A     -0.575632   227A     -0.575628   228A     -0.573349
     229A     -0.569593   230A     -0.568047   231A     -0.568024
     232A     -0.566699   233A     -0.566689   234A     -0.560891
     235A     -0.558658   236A     -0.558639   237A     -0.558404
     238A     -0.554323   239A     -0.550523   240A     -0.547455
     241A     -0.544235   242A     -0.535006   243A     -0.534969
     244A     -0.533486   245A     -0.533465   246A     -0.528041
     247A     -0.528025   248A     -0.527714   249A     -0.517079
     250A     -0.517045   251A     -0.515325   252A     -0.515319
     253A     -0.509609   254A     -0.509594   255A     -0.497990
     256A     -0.496402   257A     -0.496375   258A     -0.493740
     259A     -0.493729   260A     -0.489446   261A     -0.481420
     262A     -0.477394   263A     -0.477391   264A     -0.473957
     265A     -0.469390   266A     -0.466473   267A     -0.466468
     268A     -0.458753   269A     -0.446593   270A     -0.446533
     271A     -0.440997   272A     -0.440746   273A     -0.440720
     274A     -0.434661   275A     -0.433886   276A     -0.407331
     277A     -0.407308   278A     -0.386347   279A     -0.386298
     280A     -0.385711   281A     -0.385709   282A     -0.383714
     283A     -0.354298   284A     -0.354281   285A     -0.350610
     286A     -0.338025   287A     -0.335504   288A     -0.335434
     289A     -0.332687   290A     -0.332681   291A     -0.306996
     292A     -0.301866   293A     -0.301804   294A     -0.300828
     295A     -0.286132   296A     -0.256456   297A     -0.253405
     298A     -0.253351   299A     -0.204219   300A     -0.204131

  @DF-RHF Final Energy: -3650.34119661716704

   => Energetics <=

    Nuclear Repulsion Energy =          15611.4211649754324753
    One-Electron Energy =              -36072.1746307680368773
    Two-Electron Energy =               16810.4122691754382686
    Total Energy =                      -3650.3411966171661334
 Dipole X            :          0.0004290            0.0002304            0.0006594
 Dipole Y            :          0.0013930           -0.0013052            0.0000878
 Dipole Z            :       -203.0443153          203.0429954           -0.0013199
 Magnitude           :                                                    0.0014781

    SAPT Results
  --------------------------------------------------------------------------------------------------------
    Electrostatics               -262.96322160 [mEh]    -165.01191281 [kcal/mol]    -690.40984320 [kJ/mol]
      Elst10,r                   -262.96322160 [mEh]    -165.01191281 [kcal/mol]    -690.40984320 [kJ/mol]

    Exchange                      632.64723066 [mEh]     396.99213080 [kcal/mol]    1661.01507527 [kJ/mol]
      Exch10                      632.64723066 [mEh]     396.99213080 [kcal/mol]    1661.01507527 [kJ/mol]
      Exch10(S^2)                 595.85380837 [mEh]     373.90390974 [kcal/mol]    1564.41395835 [kJ/mol]

    Induction                     -43.35246377 [mEh]     -27.20408173 [kcal/mol]    -113.82187794 [kJ/mol]
      Ind20,r                    -366.48069390 [mEh]    -229.97010738 [kcal/mol]    -962.19492928 [kJ/mol]
      Exch-Ind20,r                263.44950429 [mEh]     165.31705980 [kcal/mol]     691.68657821 [kJ/mol]
      delta HF,r (2)               59.67872585 [mEh]      37.44896585 [kcal/mol]     156.68647313 [kJ/mol]

    Dispersion                    -63.61792850 [mEh]     -39.92085284 [kcal/mol]    -167.02884827 [kJ/mol]
      Disp20                     -100.93976216 [mEh]     -63.34065704 [kcal/mol]    -265.01730904 [kJ/mol]
      Exch-Disp20                  37.32183366 [mEh]      23.41980420 [kcal/mol]      97.98846078 [kJ/mol]
      Disp20 (SS)                 -50.46988108 [mEh]     -31.67032852 [kcal/mol]    -132.50865452 [kJ/mol]
      Disp20 (OS)                 -50.46988108 [mEh]     -31.67032852 [kcal/mol]    -132.50865452 [kJ/mol]
      Exch-Disp20 (SS)             18.09841509 [mEh]      11.35692693 [kcal/mol]      47.51738226 [kJ/mol]
      Exch-Disp20 (OS)             19.22341858 [mEh]      12.06287727 [kcal/mol]      50.47107852 [kJ/mol]

  Total HF                        326.33154529 [mEh]     204.77613626 [kcal/mol]     856.78335412 [kJ/mol]
  Total SAPT0                     262.71361679 [mEh]     164.85528343 [kcal/mol]     689.75450586 [kJ/mol]

  Special recipe for scaled SAPT0 (see Manual):
    Electrostatics sSAPT0        -262.96322160 [mEh]    -165.01191281 [kcal/mol]    -690.40984320 [kJ/mol]
    Exchange sSAPT0               632.64723066 [mEh]     396.99213080 [kcal/mol]    1661.01507527 [kJ/mol]
    Induction sSAPT0                8.52641314 [mEh]       5.35040502 [kcal/mol]      22.38609462 [kJ/mol]
    Dispersion sSAPT0             -56.26845628 [mEh]     -35.30898939 [kcal/mol]    -147.73281160 [kJ/mol]
  Total sSAPT0                    321.94196592 [mEh]     202.02163362 [kcal/mol]     845.25851508 [kJ/mol]
  --------------------------------------------------------------------------------------------------------

*** Psi4 exiting successfully. Buy a developer a beer!
