                               Psi4 1.9 release

  ==> Input File <==

--------------------------------------------------------------------------
memory 32 GB # how much memory is available ! Depends on the nodes/cores !

molecule dimer {
# monomer A
+1 1    # Charge and multiplicity
C  0.680067 -1.215929 6.408042
C -0.680504 -1.215545 6.406014
N -1.085635  0.102779 6.405016
C  0.000108  0.884180 6.401740
C -2.477365  0.570758 6.355610
N  1.085222  0.102779 6.405016
H  1.385146 -2.033368 6.415870
H -1.385302 -2.033214 6.406204
H -0.000009  1.965269 6.399993
C  2.478117  0.567877 6.421908
H  2.490592  1.658130 6.394563
H  2.967028  0.220701 7.335354
H  3.001428  0.176405 5.546425
H -2.857359  0.490799 5.333539
H -3.082679 -0.042306 7.025694
H -2.518128  1.610706 6.682594
--
# monomer B
0 1     # Charge and multiplicity
C   1.22531237526482      0.70753866091955      0.00613762728373
C   1.22532433589282     -0.70753852257020     -0.00619318228664
C   -0.00000567409046      1.41496628609039     -0.00672680580738
C   2.45644923379077      1.41832825917820      0.00902448468363
C   0.00001130712078     -1.41497612663474      0.00347275151708
C   -1.22530046906674      0.70754574598412      0.00838914760619
C   2.45643823516184     -1.41832293188077     -0.00843833914343
C   -0.00000085313587      2.83680140328112     -0.00913035594137
C   3.68182717731192      0.70931832800114     -0.00808954934571
C   2.45512052870677      2.83422403348893     -0.00819210630633
C   3.68182158506039     -0.70933346742900      0.00798293467272
C   -1.22531311884624     -0.70752714354401     -0.00512042085974
C   1.22670006104402      3.54346985599427      0.00816696660346
C   0.00000526469929     -2.83678176723568      0.00832091913869
C   -2.45643555300670      1.41831729028492      0.00842454345199
C   2.45512389762097     -2.83422965658853      0.00783102630520
C   -1.22671388474763      3.54346943575023      0.00827029982280
C   4.91451777504333      1.42717324448953     -0.00160886631602
C   3.69315067131765      3.54279566454522     -0.00155906667985
C   -2.45643712022637     -1.41831290883911     -0.00846337726810
C   1.22670532178455     -3.54347386990643     -0.00780316414624
C   -2.45512491866593      2.83421703463423     -0.00818572995999
C   4.91452486062398     -1.42718653794377      0.00136387641845
C   1.22142509354026      4.97013443726031      0.00150231067809
C   4.89300870916237      2.82518837202648     -0.00039219795739
C   -1.22669652864725     -3.54347062507680     -0.00753595973677
C   -3.68181849668397      0.70932533873199     -0.00807686886569
C   3.69314758099218     -3.54280096939050      0.00148176697923
C   -1.22143177215231      4.97012866986289      0.00168580605083
C   6.13477145276790      0.68054831910577     -0.00083909176631
C   3.65678936045204      4.97295361556775     -0.00065042889723
C   -2.45512642789169     -2.83421472106065      0.00758666850712
C   -3.68181869921921     -0.70932533146830      0.00810055625144
C   4.89301309775526     -2.82519973363176      0.00021895393805
C   -0.00000059327114      5.65044773803267      0.00045449734393
C   6.13477559217374     -0.68055448207492      0.00042622874941
C   2.47813196269732      5.65357712333155      0.00063835075260
C   1.22142288457925     -4.97012668293268     -0.00129718634452
C   -3.69316190412301      3.54279732619245     -0.00139355922051
C   -1.22142804110313     -4.97011793159564     -0.00140994817719
C   -4.91452132810043      1.42717581899491     -0.00153192130862
C   3.65678749952045     -4.97295485423912      0.00080007163680
C   -2.47813805026426      5.65357479452875      0.00092287576113
C   -3.69314125872231     -3.54278984697859      0.00136564082345
C   -4.91451200321153     -1.42718062802730      0.00139857359209
C   -0.00000552908399     -5.65043791501335      0.00005899322272
C   -4.89302000425900      2.82518897091939     -0.00040227981744
C   2.47812647313991     -5.65357317188818     -0.00029052915548
C   -3.65679823041642      4.97295655404175     -0.00047374852278
C   -4.89299899901461     -2.82519139505969      0.00006491824035
C   -2.47812801824129     -5.65356579800621     -0.00056571680280
C   -6.13477002348955      0.68054913825639     -0.00086464346868
C   -3.65678835334731     -4.97294365097028      0.00058578382008
C   -6.13476456307132     -0.68055354348201      0.00040575295444
H   5.83528897565761      3.36927626695423      0.00396712770529
H   7.07385965258860      1.22821762089947     -0.00037744837300
H   4.60066374401555      5.51238117445323     -0.00014522814529
H   5.83528386714679     -3.36930568472863     -0.00423551337640
H   -0.00001167146422      6.73853104613662     -0.00389474766392
H   7.07386165167227     -1.22822657074368     -0.00008250934481
H   2.47331421164041      6.74068466339473      0.00017162982210
H   4.60066897122302     -5.51237575717576      0.00039007446835
H   -2.47331820069565      6.74068209160650      0.00047297644710
H   -0.00000978838621     -6.73852780445195      0.00458867820736
H   -5.83530143450167      3.36927132229595      0.00410314985360
H   2.47330840367253     -6.74068500242887      0.00027980126949
H   -4.60067436136587      5.51237839860371      0.00002010017831
H   -5.83527902699321     -3.36928859177951     -0.00451481925734
H   -2.47329986759855     -6.74067870613986     -0.00016951527498
H   -7.07385728692578      1.22822084484047     -0.00046143985387
H   -4.60067330624313     -5.51236229778631      0.00021776644566
H   -7.07385645456741     -1.22822025997701     -0.00017736581114

    units angstrom      # Angstroms are the default
    no_reorient         # Geometry fixed, default
    symmetry c1         # C1 symmetry, default
}

set {
    scf_type DF         # Density fitting, faster than exact integrals
    freeze_core True    # Freeze core electrons
    basis jun-cc-pVDZ   # Jun-cc-pVDZ basis set, recommended for sSAPT0 in https://doi.org/10.1063/1.4867135
}

energy('ssapt0')        # Compute sSAPT0 energy, includes also SAPT0
--------------------------------------------------------------------------

  //              Dimer HF             //
    Molecular point group: c1
  Charge       = 1
  Multiplicity = 1
  Basis Set: JUN-CC-PVDZ
    Blend: JUN-CC-PVDZ
  Basis Set: (JUN-CC-PVDZ AUX)
    Blend: JUN-CC-PVDZ-JKFIT
  @DF-RHF Final Energy: -2359.19965356991634
    Total Energy =                      -2359.1996535699163360
 Dipole X            :          0.0032738            0.0006313            0.0039051
 Dipole Y            :         -1.5216761            1.8864948            0.3648187
 Dipole Z            :        -23.6422112           33.3052001            9.6629889
 Magnitude           :                                                    9.6698739
  //            Monomer A HF           //
    Molecular point group: c1
  Multiplicity = 1
  Basis Set: JUN-CC-PVDZ
    Blend: JUN-CC-PVDZ
  Basis Set: (JUN-CC-PVDZ AUX)
    Blend: JUN-CC-PVDZ-JKFIT
  @DF-RHF Final Energy:  -303.29733320444575
    Total Energy =                       -303.2973332044457493
  //            Monomer B HF           //
    Molecular point group: c1

    Geometry (in Angstrom), charge = 0, multiplicity = 1:

       Center              X                  Y                   Z               Mass
    ------------   -----------------  -----------------  -----------------  -----------------
      Gh(C)           0.680066520158    -1.215933861162     5.594003449303    12.000000000000
      Gh(C)          -0.680504479842    -1.215549861162     5.591975449303    12.000000000000
      Gh(N)          -1.085635479842     0.102774138838     5.590977449303    14.003074004430
      Gh(C)           0.000107520158     0.884175138838     5.587701449303    12.000000000000
      Gh(C)          -2.477365479842     0.570753138838     5.541571449303    12.000000000000
      Gh(N)           1.085221520158     0.102774138838     5.590977449303    14.003074004430
      Gh(H)           1.385145520158    -2.033372861162     5.601831449303     1.007825032230
      Gh(H)          -1.385302479842    -2.033218861162     5.592165449303     1.007825032230
      Gh(H)          -0.000009479842     1.965264138838     5.585954449303     1.007825032230
      Gh(C)           2.478116520158     0.567872138838     5.607869449303    12.000000000000
      Gh(H)           2.490591520158     1.658125138838     5.580524449303     1.007825032230
      Gh(H)           2.967027520158     0.220696138838     6.521315449303     1.007825032230
      Gh(H)           3.001427520158     0.176400138838     4.732386449303     1.007825032230
      Gh(H)          -2.857359479842     0.490794138838     4.519500449303     1.007825032230
      Gh(H)          -3.082679479842    -0.042310861162     6.211655449303     1.007825032230
      Gh(H)          -2.518128479842     1.610701138838     5.868555449303     1.007825032230
         C            1.225311895423     0.707533799757    -0.807900923413    12.000000000000
         C            1.225323856051    -0.707543383733    -0.820231732983    12.000000000000
         C           -0.000006153932     1.414961424928    -0.820765356504    12.000000000000
         C            2.456448753949     1.418323398016    -0.805014066013    12.000000000000
         C            0.000010827279    -1.414980987797    -0.810565799180    12.000000000000
         C           -1.225300948908     0.707540884822    -0.805649403091    12.000000000000
         C            2.456437755320    -1.418327793043    -0.822476889840    12.000000000000
         C           -0.000001332978     2.836796542119    -0.823168906638    12.000000000000
         C            3.681826697470     0.709313466839    -0.822128100043    12.000000000000
         C            2.455120048865     2.834219172327    -0.822230657003    12.000000000000
         C            3.681821105219    -0.709338328591    -0.806055616024    12.000000000000
         C           -1.225313598688    -0.707532004706    -0.819158971557    12.000000000000
         C            1.226699581202     3.543464994832    -0.805871584093    12.000000000000
         C            0.000004784858    -2.836786628398    -0.805717631558    12.000000000000
         C           -2.456436032848     1.418312429123    -0.805614007245    12.000000000000
         C            2.455123417779    -2.834234517751    -0.806207524392    12.000000000000
         C           -1.226714364589     3.543464574588    -0.805768250874    12.000000000000
         C            4.914517295202     1.427168383327    -0.815647417013    12.000000000000
         C            3.693150191476     3.542790803383    -0.815597617377    12.000000000000
         C           -2.456437600068    -1.418317770001    -0.822501927965    12.000000000000
         C            1.226704841943    -3.543478731069    -0.821841714843    12.000000000000
         C           -2.455125398508     2.834212173472    -0.822224280657    12.000000000000
         C            4.914524380782    -1.427191399106    -0.812674674278    12.000000000000
         C            1.221424613699     4.970129576098    -0.812536240019    12.000000000000
         C            4.893008229321     2.825183510864    -0.814430748654    12.000000000000
         C           -1.226697008489    -3.543475486239    -0.821574510434    12.000000000000
         C           -3.681818976526     0.709320477570    -0.822115419563    12.000000000000
         C            3.693147101150    -3.542805830553    -0.812556783718    12.000000000000
         C           -1.221432251994     4.970123808701    -0.812352744646    12.000000000000
         C            6.134770972926     0.680543457943    -0.814877642463    12.000000000000
         C            3.656788880610     4.972948754405    -0.814688979594    12.000000000000
         C           -2.455126907733    -2.834219582223    -0.806451882190    12.000000000000
         C           -3.681819179061    -0.709330192631    -0.805937994445    12.000000000000
         C            4.893012617914    -2.825204594794    -0.813819596759    12.000000000000
         C           -0.000001073113     5.650442876870    -0.813584053353    12.000000000000
         C            6.134775112332    -0.680559343237    -0.813612321947    12.000000000000
         C            2.478131482856     5.653572262169    -0.813400199944    12.000000000000
         C            1.221422404738    -4.970131544095    -0.815335737041    12.000000000000
         C           -3.693162383965     3.542792465030    -0.815432109917    12.000000000000
         C           -1.221428520945    -4.970122792758    -0.815448498874    12.000000000000
         C           -4.914521807942     1.427170957833    -0.815570472005    12.000000000000
         C            3.656787019679    -4.972959715401    -0.813238479060    12.000000000000
         C           -2.478138530106     5.653569933366    -0.813115674936    12.000000000000
         C           -3.693141738564    -3.542794708141    -0.812672909873    12.000000000000
         C           -4.914512483053    -1.427185489190    -0.812639977105    12.000000000000
         C           -0.000006008926    -5.650442776176    -0.813979557474    12.000000000000
         C           -4.893020484101     2.825184109757    -0.814440830514    12.000000000000
         C            2.478125993298    -5.653578033051    -0.814329079852    12.000000000000
         C           -3.656798710258     4.972951692879    -0.814512299220    12.000000000000
         C           -4.892999478856    -2.825196256222    -0.813973632456    12.000000000000
         C           -2.478128498083    -5.653570659169    -0.814604267500    12.000000000000
         C           -6.134770503331     0.680544277094    -0.814903194166    12.000000000000
         C           -3.656788833189    -4.972948512133    -0.813452766877    12.000000000000
         C           -6.134765042913    -0.680558404644    -0.813632797742    12.000000000000
         H            5.835288495816     3.369271405792    -0.810071422992     1.007825032230
         H            7.073859172747     1.228212759737    -0.814415999070     1.007825032230
         H            4.600663264174     5.512376313291    -0.814183778842     1.007825032230
         H            5.835283387305    -3.369310545891    -0.818274064073     1.007825032230
         H           -0.000012151306     6.738526184974    -0.817933298361     1.007825032230
         H            7.073861171831    -1.228231431906    -0.814121060042     1.007825032230
         H            2.473313731799     6.740679802232    -0.813866920875     1.007825032230
         H            4.600668491381    -5.512380618338    -0.813648476228     1.007825032230
         H           -2.473318680537     6.740677230444    -0.813565574250     1.007825032230
         H           -0.000010268228    -6.738532665614    -0.809449872489     1.007825032230
         H           -5.835301914343     3.369266461134    -0.809935400843     1.007825032230
         H            2.473307923831    -6.740689863591    -0.813758749427     1.007825032230
         H           -4.600674841208     5.512373537441    -0.814018450519     1.007825032230
         H           -5.835279506835    -3.369293452942    -0.818553369954     1.007825032230
         H           -2.473300347440    -6.740683567302    -0.814208065972     1.007825032230
         H           -7.073857766768     1.228215983678    -0.814499990551     1.007825032230
         H           -4.600673786085    -5.512367158949    -0.813820784251     1.007825032230
         H           -7.073856934409    -1.228225121139    -0.814215916508     1.007825032230

  Charge       = 0
  Multiplicity = 1
  Basis Set: JUN-CC-PVDZ
    Blend: JUN-CC-PVDZ
  Basis Set: (JUN-CC-PVDZ AUX)
    Blend: JUN-CC-PVDZ-JKFIT

    Orbital Energies [Eh]
    ---------------------

    Doubly Occupied:

       1A    -11.260632     2A    -11.260189     3A    -11.260187
       4A    -11.259480     5A    -11.259479     6A    -11.259310
       7A    -11.259102     8A    -11.259024     9A    -11.259024
      10A    -11.258700    11A    -11.258696    12A    -11.258630
      13A    -11.258567    14A    -11.258562    15A    -11.258559
      16A    -11.258531    17A    -11.258525    18A    -11.258509
      19A    -11.258495    20A    -11.258489    21A    -11.258484
      22A    -11.258383    23A    -11.258379    24A    -11.258078
      25A    -11.257422    26A    -11.257360    27A    -11.257360
      28A    -11.257225    29A    -11.257224    30A    -11.257139
      31A    -11.256517    32A    -11.256446    33A    -11.256445
      34A    -11.256337    35A    -11.256335    36A    -11.256289
      37A    -11.252371    38A    -11.252371    39A    -11.252369
      40A    -11.252368    41A    -11.252365    42A    -11.252364
      43A    -11.251500    44A    -11.251497    45A    -11.251496
      46A    -11.251491    47A    -11.251489    48A    -11.251485
      49A    -11.250933    50A    -11.250932    51A    -11.250930
      52A    -11.250929    53A    -11.250926    54A    -11.250925
      55A     -1.244234    56A     -1.219965    57A     -1.219964
      58A     -1.189679    59A     -1.189671    60A     -1.181111
      61A     -1.157682    62A     -1.149110    63A     -1.135651
      64A     -1.135644    65A     -1.113315    66A     -1.113311
      67A     -1.082578    68A     -1.082570    69A     -1.078758
      70A     -1.066100    71A     -1.066095    72A     -1.039531
      73A     -1.024432    74A     -1.021934    75A     -1.021890
      76A     -1.017846    77A     -1.012911    78A     -0.987167
      79A     -0.987121    80A     -0.962005    81A     -0.961956
      82A     -0.894422    83A     -0.894396    84A     -0.888104
      85A     -0.886352    86A     -0.886295    87A     -0.881545
      88A     -0.881498    89A     -0.862028    90A     -0.837516
      91A     -0.818341    92A     -0.816773    93A     -0.812285
      94A     -0.812276    95A     -0.794812    96A     -0.794801
      97A     -0.746780    98A     -0.745011    99A     -0.733574
     100A     -0.733567   101A     -0.732308   102A     -0.732285
     103A     -0.716646   104A     -0.699104   105A     -0.699092
     106A     -0.693726   107A     -0.693709   108A     -0.661356
     109A     -0.653276   110A     -0.651319   111A     -0.650375
     112A     -0.650370   113A     -0.639485   114A     -0.639481
     115A     -0.629860   116A     -0.627670   117A     -0.627655
     118A     -0.606453   119A     -0.605904   120A     -0.601810
     121A     -0.599871   122A     -0.599838   123A     -0.593771
     124A     -0.591391   125A     -0.591378   126A     -0.585384
     127A     -0.576418   128A     -0.576401   129A     -0.567439
     130A     -0.567424   131A     -0.566110   132A     -0.566091
     133A     -0.558883   134A     -0.554978   135A     -0.554972
     136A     -0.538716   137A     -0.538714   138A     -0.538270
     139A     -0.538262   140A     -0.529847   141A     -0.528193
     142A     -0.523004   143A     -0.522996   144A     -0.500625
     145A     -0.495691   146A     -0.493362   147A     -0.487918
     148A     -0.485213   149A     -0.481895   150A     -0.481888
     151A     -0.470411   152A     -0.470396   153A     -0.451188
     154A     -0.451111   155A     -0.439160   156A     -0.439151
     157A     -0.404839   158A     -0.404817   159A     -0.403460
     160A     -0.375514   161A     -0.375511   162A     -0.349216
     163A     -0.337680   164A     -0.336645   165A     -0.336590
     166A     -0.311193   167A     -0.298184   168A     -0.284444
     169A     -0.284392   170A     -0.225015   171A     -0.224950

  @DF-RHF Final Energy: -2055.89206850242908

   => Energetics <=

    Nuclear Repulsion Energy =           6452.5568002797772351
    One-Electron Energy =              -15636.4413767200239818
    Two-Electron Energy =                7127.9925079378172086
    Total Energy =                      -2055.8920685024295381
 Dipole X            :          0.0000979           -0.0000085            0.0000894
 Dipole Y            :          0.0028658           -0.0028843           -0.0000185
 Dipole Z            :        526.0971428         -526.1034344           -0.0062916
 Magnitude           :                                                    0.0062923

    SAPT Results
  --------------------------------------------------------------------------------------------------------
    Electrostatics                 -7.82918488 [mEh]      -4.91288768 [kcal/mol]     -20.55552206 [kJ/mol]
      Elst10,r                     -7.82918488 [mEh]      -4.91288768 [kcal/mol]     -20.55552206 [kJ/mol]

    Exchange                       -0.00051356 [mEh]      -0.00032227 [kcal/mol]      -0.00134836 [kJ/mol]
      Exch10                       -0.00051356 [mEh]      -0.00032227 [kcal/mol]      -0.00134836 [kJ/mol]
      Exch10(S^2)                  -0.00051356 [mEh]      -0.00032227 [kcal/mol]      -0.00134836 [kJ/mol]

    Induction                      -2.42216460 [mEh]      -1.51993123 [kcal/mol]      -6.35939228 [kJ/mol]
      Ind20,r                      -2.37957689 [mEh]      -1.49320704 [kcal/mol]      -6.24757826 [kJ/mol]
      Exch-Ind20,r                  0.00096853 [mEh]       0.00060776 [kcal/mol]       0.00254288 [kJ/mol]
      delta HF,r (2)               -0.04355624 [mEh]      -0.02733196 [kcal/mol]      -0.11435690 [kJ/mol]

    Dispersion                     -1.86662003 [mEh]      -1.17132175 [kcal/mol]      -4.90081021 [kJ/mol]
      Disp20                       -1.86708634 [mEh]      -1.17161437 [kcal/mol]      -4.90203452 [kJ/mol]
      Exch-Disp20                   0.00046631 [mEh]       0.00029262 [kcal/mol]       0.00122430 [kJ/mol]
      Disp20 (SS)                  -0.93354317 [mEh]      -0.58580718 [kcal/mol]      -2.45101726 [kJ/mol]
      Disp20 (OS)                  -0.93354317 [mEh]      -0.58580718 [kcal/mol]      -2.45101726 [kJ/mol]
      Exch-Disp20 (SS)              0.00035845 [mEh]       0.00022493 [kcal/mol]       0.00094112 [kJ/mol]
      Exch-Disp20 (OS)              0.00010786 [mEh]       0.00006768 [kcal/mol]       0.00028318 [kJ/mol]

  Total HF                        -10.25186304 [mEh]      -6.43314118 [kcal/mol]     -26.91626271 [kJ/mol]
  Total SAPT0                     -12.11848307 [mEh]      -7.60446294 [kcal/mol]     -31.81707292 [kJ/mol]

  Special recipe for scaled SAPT0 (see Manual):
    Electrostatics sSAPT0          -7.82918488 [mEh]      -4.91288768 [kcal/mol]     -20.55552206 [kJ/mol]
    Exchange sSAPT0                -0.00051356 [mEh]      -0.00032227 [kcal/mol]      -0.00134836 [kJ/mol]
    Induction sSAPT0               -2.42216460 [mEh]      -1.51993123 [kcal/mol]      -6.35939228 [kJ/mol]
    Dispersion sSAPT0              -1.86662003 [mEh]      -1.17132175 [kcal/mol]      -4.90081021 [kJ/mol]
  Total sSAPT0                    -12.11848307 [mEh]      -7.60446294 [kcal/mol]     -31.81707292 [kJ/mol]
  --------------------------------------------------------------------------------------------------------

*** Psi4 exiting successfully. Buy a developer a beer!
