                               Psi4 1.9 release

  ==> Input File <==

--------------------------------------------------------------------------
memory 47 GB # how much memory is available ! Depends on the nodes/cores !

molecule dimer {
# monomer A
-1 1    # Charge and multiplicity
B -1.977592e-04  2.742729e-04 -3.799966
F  1.123153e-16  1.430594e-17 -2.387181
F  1.147860e+00  6.757812e-01 -4.271107
F  1.191806e-02 -1.332011e+00 -4.270905
F -1.159666e+00  6.560735e-01 -4.270826
--
# monomer B
0 1     # Charge and multiplicity
C   -3.66844126402057      7.80375217008252      0.00190004133558
C   -4.84759871934653      7.13124183134024     -0.00046653359696
C   -4.89495929917518      5.69633040353158     -0.00103944469517
C   -3.65374067877320      4.98073034095895      0.00662099703436
C   -2.40942512149445      7.11398103667468      0.00209438359570
C   -2.42547734410473      5.68112195090346     -0.00491050527438
C   -1.19474401643570      7.78614419430947      0.00356656413763
C   0.03795902893699      7.09942164575698      0.00139585983271
C   0.03033258741920      5.66948955970466     -0.00408752508301
C   -1.20098450790502      4.96927034791531      0.00488220885047
C   1.27795782581485      7.77285944319479      0.00277170839332
C   2.48535808472416      7.08769688523756      0.00049722048857
C   2.48612868491717      5.65477081024076     -0.00644052849921
C   1.25408291964399      4.95607811366431      0.00518741308898
C   3.75171459140595      7.76391215098033      0.00062407186893
C   4.92356605618520      7.07878077698995     -0.00143240883900
C   4.95560727132542      5.64344746336949     -0.00159282164606
C   3.70680153420475      4.94121020833308      0.00349873852374
H   -3.65852113775815      8.89082741913536      0.00358502958574
H   -1.18921332975660      8.87412108735996      0.00753844057883
H   1.28429423888630      8.86083343548850      0.00693053253426
H   3.75354208679975      8.85103527897216      0.00214659618464
H   5.86995870320703      7.61379483465560     -0.00235777588134
H   -5.78823170750226      7.67630221293400     -0.00202638095293
C   -6.09197395869619      4.99326001364347     -0.00291168518608
C   -6.12866148031747      3.58258016879823     -0.00171050815740
C   -3.66457974004527      3.56418217974434     -0.00463560277484
C   -4.89429820469869      2.86108077590057      0.00453338221034
C   -2.43733499489796      2.84761165708481      0.00719617576166
C   -1.20922785759670      3.54788693497833     -0.00648285103018
C   1.24714157216223      3.53468075142962     -0.00729145743546
C   0.01517603956900      2.83311183930540      0.00439272578912
C   2.46764517244071      2.82128997725533      0.00449278391269
C   3.70254947457969      3.52466015442405     -0.00899517692985
C   6.14498038638375      4.92757236613191     -0.00282626685777
C   6.16658835886151      3.51658447594213     -0.00065971342101
C   4.92460995845939      2.80840792535402      0.00587903281610
H   7.08990550964105      5.46688776622306     -0.00658814770723
H   -7.03104175110130      5.54268795285765     -0.00714490013730
C   -7.33969804112295      2.85841153457957     -0.00333767559888
C   -7.36488195805880      1.47032337158330     -0.00157213747140
C   -4.90350460894690      1.44442681216000     -0.00628840166334
C   -6.13225715261081      0.73993935705394      0.00600164231964
C   -3.67687480051673      0.72669714267312      0.00433931473643
C   -2.44565658606518      1.42964113326212     -0.00597039546461
C   -1.22360068130162      0.71532450163492      0.00545886906656
C   0.00763786931376      1.41738314923765      0.00392452278437
C   1.23121980774686      0.70211669058719     -0.01490206287210
C   2.46082110053113      1.40329203612573      0.00460244601878
C   3.68443025419614      0.68719842821222      0.00377365974158
C   4.91870890153864      1.39173456118907     -0.00862816189375
C   7.36980207796101      2.77948220318441     -0.00242013321349
C   7.38016266612146      1.39121750785509     -0.00087345036788
C   6.13979953912259      0.67411862320065      0.00545489144369
H   -8.27919079934664      3.40711804112415     -0.00763522772059
H   8.31511347147953      3.31811809662368     -0.00663070901292
C   -8.59175593758115      0.72483255304480     -0.00123170985383
C   -8.59902460370342     -0.63263980622873      0.00089141472904
C   -6.13981313911873     -0.67413663715361     -0.00609792660607
C   -7.38018411213749     -1.39126618958160      0.00131813493501
C   -4.91868448025621     -1.39175501803000      0.00624257154343
C   -3.68443829568458     -0.68723731573599     -0.00478966852105
C   -2.46081704024768     -1.40334517882457      0.00575341766833
C   -1.23116201232071     -0.70217386488055     -0.00636696112346
C   -0.00756962538737     -1.41741884941102      0.00108956317991
C   1.22364771588843     -0.71527537726392      0.01109518512883
C   2.44567064933149     -1.42964328900682     -0.00065482763106
C   3.67686670284649     -0.72670743155550     -0.00479541202602
C   6.13224884641929     -0.73997883984993     -0.00632338623858
C   4.90351914550401     -1.44445752054090      0.00751768830159
C   8.59901484869081      0.63260386666793     -0.00101133422380
C   8.59174548810050     -0.72485086719319      0.00072504603735
C   7.36486276438985     -1.47033266560598      0.00049486934466
H   -9.52830597181814      1.27684744919284     -0.00270163681798
H   9.54141097460619      1.17457248844457     -0.00206336648518
C   -7.36983790976868     -2.77954514593389      0.00312634335708
C   -4.92459910905015     -2.80843725734101     -0.00460528907921
C   -6.16662249566744     -3.51665219282533      0.00169655107992
C   -3.70251035970491     -3.52468154912026      0.00571878010666
C   -2.46764698511392     -2.82132596280400     -0.00632585824990
C   -0.01513347410770     -2.83314164539971     -0.00604426974092
C   -1.24712184122656     -3.53473217556300      0.00551968366725
C   1.20924506964357     -3.54791467864352      0.00805871345849
C   2.43733602215464     -2.84764173817541     -0.00608104485234
C   4.89430234377080     -2.86112296828604     -0.00526030478103
C   3.66461525504104     -3.56421984553201      0.00761911515957
C   6.12863901474565     -3.58258405771778      0.00096495711699
C   7.33967266469532     -2.85841330737039      0.00248018319869
H   -9.54144911125902     -1.17456346666430      0.00226083090216
H   9.52826186807155     -1.27691907390448      0.00197485379837
H   -8.31516504384864     -3.31814985321231      0.00729857188773
H   8.27915514249207     -3.40714078989363      0.00681973918158
C   -6.14499418870218     -4.92764727278338      0.00302254913999
C   -3.70678334799751     -4.94126171411716     -0.00679841894792
C   -4.95559005800169     -5.64349397349412      0.00116871569699
C   -2.48612132622665     -5.65478557440947      0.00614125209662
C   -1.25405833548005     -4.95612205000132     -0.00503435388927
C   1.20101257386816     -4.96928038819302     -0.00385322963129
C   -0.03033667441341     -5.66952030313900      0.00398997003238
C   3.65375010132847     -4.98074377541453     -0.00309522988330
C   2.42549269587528     -5.68117463552727      0.00628170066869
C   6.09196561781097     -4.99325796338655      0.00325918379042
C   4.89497644461045     -5.69634842095790      0.00202298796027
H   -7.08989238804069     -5.46699984223871      0.00742531082125
H   7.03105520920009     -5.54265853633254      0.00683896355417
C   -4.92354532219813     -7.07882109967734      0.00061394679214
C   -2.48534208823777     -7.08772807792913     -0.00189594564379
C   -3.75168589177895     -7.76394715763627     -0.00170126671874
C   -0.03794895698805     -7.09946487446944     -0.00168022049625
C   -1.27795610040136     -7.77290438466689     -0.00366491325785
C   2.40944432072629     -7.11402201200282     -0.00081701968533
C   1.19474993715296     -7.78618536556242     -0.00296931056689
C   4.84762105249800     -7.13126211057943      0.00168979497423
C   3.66847160587561     -7.80378799294376     -0.00065863938960
H   -5.86994035041618     -7.61383059804164      0.00215798365757
H   5.78824962538815     -7.67633218931421      0.00281691445618
H   -3.75352693944918     -8.85107156923607     -0.00353718114765
H   -1.28430440589466     -8.86087539249706     -0.00809229711623
H   1.18922157469537     -8.87416062058945     -0.00706194725726
H   3.65854661482387     -8.89086063405326     -0.00231318081200

    units angstrom      # Angstroms are the default
    no_reorient         # Geometry fixed, default
    symmetry c1         # C1 symmetry, default
}

set {
    scf_type DF         # Density fitting, faster than exact integrals
    freeze_core True    # Freeze core electrons
    basis jun-cc-pVDZ   # Jun-cc-pVDZ basis set, recommended for sSAPT0 in https://doi.org/10.1063/1.4867135
}

energy('ssapt0')        # Compute sSAPT0 energy, includes also SAPT0
--------------------------------------------------------------------------

  //              Dimer HF             //
    Molecular point group: c1
  Charge       = -1
  Multiplicity = 1
  Basis Set: JUN-CC-PVDZ
    Blend: JUN-CC-PVDZ
  Basis Set: (JUN-CC-PVDZ AUX)
    Blend: JUN-CC-PVDZ-JKFIT
  @DF-RHF Final Energy: -4073.10601049553497
    Total Energy =                      -4073.1060104955358838
 Dipole X            :          0.0005184           -0.0000548            0.0004637
 Dipole Y            :          0.0008031           -0.0002464            0.0005567
 Dipole Z            :        -17.4650810           22.6139314            5.1488504
 Magnitude           :                                                    5.1488505
  //            Monomer A HF           //
    Molecular point group: c1
  Multiplicity = 1
  Basis Set: JUN-CC-PVDZ
    Blend: JUN-CC-PVDZ
  Basis Set: (JUN-CC-PVDZ AUX)
    Blend: JUN-CC-PVDZ-JKFIT
  @DF-RHF Final Energy:  -422.77343067394435
    Total Energy =                       -422.7734306739443468
  //            Monomer B HF           //
    Molecular point group: c1

    Geometry (in Angstrom), charge = 0, multiplicity = 1:

       Center              X                  Y                   Z               Mass
    ------------   -----------------  -----------------  -----------------  -----------------
      Gh(B)          -0.000201921932     0.000288800891    -3.538242157223    11.009305360000
      Gh(F)          -0.000004162732     0.000014527991    -2.125457157223    18.998403162730
      Gh(F)           1.147855837268     0.675795727991    -4.009383157223    18.998403162730
      Gh(F)           0.011913897268    -1.331996472009    -4.009181157223    18.998403162730
      Gh(F)          -1.159670162732     0.656088027991    -4.009102157223    18.998403162730
         C           -3.668445426752     7.803766698073     0.263623884113    12.000000000000
         C           -4.847602882078     7.131256359331     0.261257309180    12.000000000000
         C           -4.894963461907     5.696344931522     0.260684398082    12.000000000000
         C           -3.653744841505     4.980744868950     0.268344839812    12.000000000000
         C           -2.409429284226     7.113995564665     0.263818226373    12.000000000000
         C           -2.425481506836     5.681136478894     0.256813337503    12.000000000000
         C           -1.194748179167     7.786158722300     0.265290406915    12.000000000000
         C            0.037954866205     7.099436173748     0.263119702610    12.000000000000
         C            0.030328424687     5.669504087695     0.257636317694    12.000000000000
         C           -1.200988670637     4.969284875906     0.266606051628    12.000000000000
         C            1.277953663083     7.772873971185     0.264495551171    12.000000000000
         C            2.485353921992     7.087711413228     0.262221063266    12.000000000000
         C            2.486124522185     5.654785338231     0.255283314278    12.000000000000
         C            1.254078756912     4.956092641655     0.266911255866    12.000000000000
         C            3.751710428674     7.763926678971     0.262347914646    12.000000000000
         C            4.923561893453     7.078795304981     0.260291433938    12.000000000000
         C            4.955603108594     5.643461991360     0.260131021131    12.000000000000
         C            3.706797371473     4.941224736324     0.265222581301    12.000000000000
         H           -3.658525300490     8.890841947126     0.265308872363     1.007825032230
         H           -1.189217492488     8.874135615351     0.269262283356     1.007825032230
         H            1.284290076155     8.860847963479     0.268654375312     1.007825032230
         H            3.753537924068     8.851049806963     0.263870438962     1.007825032230
         H            5.869954540475     7.613809362646     0.259366066896     1.007825032230
         H           -5.788235870234     7.676316740925     0.259697461824     1.007825032230
         C           -6.091978121428     4.993274541634     0.258812157591    12.000000000000
         C           -6.128665643049     3.582594696789     0.260013334620    12.000000000000
         C           -3.664583902777     3.564196707735     0.257088240002    12.000000000000
         C           -4.894302367430     2.861095303891     0.266257224988    12.000000000000
         C           -2.437339157630     2.847626185075     0.268920018539    12.000000000000
         C           -1.209232020328     3.547901462969     0.255240991747    12.000000000000
         C            1.247137409430     3.534695279420     0.254432385342    12.000000000000
         C            0.015171876837     2.833126367296     0.266116568566    12.000000000000
         C            2.467641009709     2.821304505246     0.266216626690    12.000000000000
         C            3.702545311848     3.524674682415     0.252728665847    12.000000000000
         C            6.144976223652     4.927586894122     0.258897575920    12.000000000000
         C            6.166584196130     3.516599003933     0.261064129356    12.000000000000
         C            4.924605795728     2.808422453345     0.267602875593    12.000000000000
         H            7.089901346909     5.466902294214     0.255135695070     1.007825032230
         H           -7.031045913833     5.542702480848     0.254578942640     1.007825032230
         C           -7.339702203855     2.858426062570     0.258386167178    12.000000000000
         C           -7.364886120791     1.470337899574     0.260151705306    12.000000000000
         C           -4.903508771679     1.444441340151     0.255435441114    12.000000000000
         C           -6.132261315343     0.739953885044     0.267725485097    12.000000000000
         C           -3.676878963248     0.726711670664     0.266063157514    12.000000000000
         C           -2.445660748797     1.429655661253     0.255753447313    12.000000000000
         C           -1.223604844033     0.715339029625     0.267182711844    12.000000000000
         C            0.007633706582     1.417397677228     0.265648365562    12.000000000000
         C            1.231215645015     0.702131218578     0.246821779905    12.000000000000
         C            2.460816937799     1.403306564116     0.266326288796    12.000000000000
         C            3.684426091464     0.687212956203     0.265497502519    12.000000000000
         C            4.918704738807     1.391749089180     0.253095680884    12.000000000000
         C            7.369797915229     2.779496731175     0.259303709564    12.000000000000
         C            7.380158503390     1.391232035846     0.260850392409    12.000000000000
         C            6.139795376391     0.674133151191     0.267178734221    12.000000000000
         H           -8.279194962078     3.407132569115     0.254088615057     1.007825032230
         H            8.315109308748     3.318132624614     0.255093133764     1.007825032230
         C           -8.591760100313     0.724847081035     0.260492132923    12.000000000000
         C           -8.599028766435    -0.632625278238     0.262615257506    12.000000000000
         C           -6.139817301850    -0.674122109163     0.255625916171    12.000000000000
         C           -7.380188274869    -1.391251661591     0.263041977712    12.000000000000
         C           -4.918688642988    -1.391740490039     0.267966414321    12.000000000000
         C           -3.684442458416    -0.687222787745     0.256934174256    12.000000000000
         C           -2.460821202979    -1.403330650834     0.267477260446    12.000000000000
         C           -1.231166175052    -0.702159336890     0.255356881654    12.000000000000
         C           -0.007573788119    -1.417404321420     0.262813405957    12.000000000000
         C            1.223643553157    -0.715260849273     0.272819027906    12.000000000000
         C            2.445666486600    -1.429628761016     0.261069015146    12.000000000000
         C            3.676862540115    -0.726692903565     0.256928430751    12.000000000000
         C            6.132244683688    -0.739964311859     0.255400456539    12.000000000000
         C            4.903514982772    -1.444442992550     0.269241531079    12.000000000000
         C            8.599010685959     0.632618394658     0.260712508553    12.000000000000
         C            8.591741325369    -0.724836339203     0.262448888815    12.000000000000
         C            7.364858601658    -1.470318137615     0.262218712122    12.000000000000
         H           -9.528310134550     1.276861977183     0.259022205959     1.007825032230
         H            9.541406811874     1.174587016435     0.259660476292     1.007825032230
         C           -7.369842072500    -2.779530617943     0.264850186134    12.000000000000
         C           -4.924603271782    -2.808422729350     0.257118553698    12.000000000000
         C           -6.166626658399    -3.516637664835     0.263420393857    12.000000000000
         C           -3.702514522437    -3.524667021130     0.267442622884    12.000000000000
         C           -2.467651147846    -2.821311434813     0.255397984527    12.000000000000
         C           -0.015137636839    -2.833127117409     0.255679573036    12.000000000000
         C           -1.247126003958    -3.534717647572     0.267243526445    12.000000000000
         C            1.209240906912    -3.547900150653     0.269782556236    12.000000000000
         C            2.437331859423    -2.847627210185     0.255642797925    12.000000000000
         C            4.894298181039    -2.861108440295     0.256463537996    12.000000000000
         C            3.664611092309    -3.564205317541     0.269342957937    12.000000000000
         C            6.128634852014    -3.582569529727     0.262688799894    12.000000000000
         C            7.339668501964    -2.858398779380     0.264204025976    12.000000000000
         H           -9.541453273991    -1.174548938674     0.263984673679     1.007825032230
         H            9.528257705340    -1.276904545914     0.263698696576     1.007825032230
         H           -8.315169206580    -3.318135325222     0.269022414665     1.007825032230
         H            8.279150979760    -3.407126261903     0.268543581959     1.007825032230
         C           -6.144998351434    -4.927632744793     0.264746391917    12.000000000000
         C           -3.706787510729    -4.941247186127     0.254925423829    12.000000000000
         C           -4.955594220733    -5.643479445504     0.262892558474    12.000000000000
         C           -2.486125488958    -5.654771046419     0.267865094874    12.000000000000
         C           -1.254062498212    -4.956107522011     0.256689488888    12.000000000000
         C            1.201008411136    -4.969265860202     0.257870613146    12.000000000000
         C           -0.030340837145    -5.669505775148     0.265713812810    12.000000000000
         C            3.653745938597    -4.980729247424     0.258628612894    12.000000000000
         C            2.425488533144    -5.681160107537     0.268005543446    12.000000000000
         C            6.091961455079    -4.993243435396     0.264983026568    12.000000000000
         C            4.894972281879    -5.696333892967     0.263746830738    12.000000000000
         H           -7.089896550772    -5.466985314248     0.269149153599     1.007825032230
         H            7.031051046468    -5.542644008342     0.268562806331     1.007825032230
         C           -4.923549484930    -7.078806571687     0.262337789569    12.000000000000
         C           -2.485346250970    -7.087713549939     0.259827897133    12.000000000000
         C           -3.751690054511    -7.763932629646     0.260022576059    12.000000000000
         C           -0.037953119720    -7.099450346479     0.260043622281    12.000000000000
         C           -1.277960263133    -7.772889856676     0.258058929519    12.000000000000
         C            2.409440157995    -7.114007484012     0.260906823092    12.000000000000
         C            1.194745774421    -7.786170837572     0.258754532210    12.000000000000
         C            4.847616889766    -7.131247582589     0.263413637752    12.000000000000
         C            3.668467443144    -7.803773464953     0.261065203388    12.000000000000
         H           -5.869944513148    -7.613816070051     0.263881826435     1.007825032230
         H            5.788245462656    -7.676317661324     0.264540757233     1.007825032230
         H           -3.753531102181    -8.851057041246     0.258186661630     1.007825032230
         H           -1.284308568626    -8.860860864507     0.253631545661     1.007825032230
         H            1.189217411964    -8.874146092599     0.254661895520     1.007825032230
         H            3.658542452092    -8.890846106063     0.259410661965     1.007825032230

  Charge       = 0
  Multiplicity = 1
  Basis Set: JUN-CC-PVDZ
    Blend: JUN-CC-PVDZ
  Basis Set: (JUN-CC-PVDZ AUX)
    Blend: JUN-CC-PVDZ-JKFIT

    Orbital Energies [Eh]
    ---------------------

    Doubly Occupied:

       1A    -11.264101     2A    -11.263739     3A    -11.263734
       4A    -11.263316     5A    -11.263313     6A    -11.263281
       7A    -11.263133     8A    -11.263131     9A    -11.263124
      10A    -11.262900    11A    -11.262774    12A    -11.262769
      13A    -11.262279    14A    -11.262276    15A    -11.262255
      16A    -11.262254    17A    -11.262144    18A    -11.262140
      19A    -11.262087    20A    -11.262051    21A    -11.262048
      22A    -11.261939    23A    -11.261936    24A    -11.261778
      25A    -11.261776    26A    -11.261753    27A    -11.261745
      28A    -11.261710    29A    -11.261702    30A    -11.261610
      31A    -11.261588    32A    -11.261584    33A    -11.261575
      34A    -11.261554    35A    -11.261552    36A    -11.261530
      37A    -11.261360    38A    -11.261352    39A    -11.261345
      40A    -11.261340    41A    -11.261335    42A    -11.261330
      43A    -11.261315    44A    -11.261298    45A    -11.261293
      46A    -11.261271    47A    -11.261268    48A    -11.261263
      49A    -11.261081    50A    -11.261047    51A    -11.261044
      52A    -11.260964    53A    -11.260963    54A    -11.260903
      55A    -11.259949    56A    -11.259936    57A    -11.259933
      58A    -11.259904    59A    -11.259901    60A    -11.259886
      61A    -11.259321    62A    -11.259295    63A    -11.259293
      64A    -11.259240    65A    -11.259238    66A    -11.259209
      67A    -11.258952    68A    -11.258934    69A    -11.258932
      70A    -11.258904    71A    -11.258902    72A    -11.258890
      73A    -11.254552    74A    -11.254551    75A    -11.254546
      76A    -11.254544    77A    -11.254544    78A    -11.254543
      79A    -11.253682    80A    -11.253682    81A    -11.253679
      82A    -11.253677    83A    -11.253676    84A    -11.253672
      85A    -11.253598    86A    -11.253597    87A    -11.253594
      88A    -11.253592    89A    -11.253591    90A    -11.253588
      91A    -11.253079    92A    -11.253078    93A    -11.253074
      94A    -11.253072    95A    -11.253072    96A    -11.253071
      97A     -1.253976    98A     -1.239030    99A     -1.239029
     100A     -1.220497   101A     -1.220493   102A     -1.215474
     103A     -1.201075   104A     -1.195638   105A     -1.188167
     106A     -1.188165   107A     -1.173797   108A     -1.173794
     109A     -1.155657   110A     -1.155654   111A     -1.152754
     112A     -1.144754   113A     -1.144751   114A     -1.128601
     115A     -1.114744   116A     -1.113195   117A     -1.112510
     118A     -1.112496   119A     -1.111650   120A     -1.088459
     121A     -1.088444   122A     -1.076992   123A     -1.076991
     124A     -1.067643   125A     -1.067613   126A     -1.065008
     127A     -1.046834   128A     -1.046826   129A     -1.040513
     130A     -1.038765   131A     -1.038764   132A     -1.025266
     133A     -1.021418   134A     -1.021368   135A     -1.007212
     136A     -1.006845   137A     -1.003824   138A     -1.000517
     139A     -1.000469   140A     -0.991104   141A     -0.971021
     142A     -0.970973   143A     -0.955912   144A     -0.955857
     145A     -0.905620   146A     -0.905579   147A     -0.905577
     148A     -0.905539   149A     -0.904373   150A     -0.892403
     151A     -0.892344   152A     -0.890392   153A     -0.890334
     154A     -0.889487   155A     -0.872248   156A     -0.869083
     157A     -0.851569   158A     -0.847901   159A     -0.847879
     160A     -0.845624   161A     -0.843050   162A     -0.834596
     163A     -0.834583   164A     -0.828145   165A     -0.828141
     166A     -0.784579   167A     -0.784568   168A     -0.783688
     169A     -0.783661   170A     -0.782320   171A     -0.782300
     172A     -0.782070   173A     -0.767024   174A     -0.760830
     175A     -0.750596   176A     -0.733512   177A     -0.727103
     178A     -0.727089   179A     -0.725114   180A     -0.724573
     181A     -0.724554   182A     -0.718512   183A     -0.713804
     184A     -0.713798   185A     -0.699604   186A     -0.699592
     187A     -0.686157   188A     -0.685987   189A     -0.685984
     190A     -0.682204   191A     -0.682194   192A     -0.678793
     193A     -0.653649   194A     -0.650901   195A     -0.650871
     196A     -0.649840   197A     -0.649824   198A     -0.649596
     199A     -0.640958   200A     -0.640931   201A     -0.640117
     202A     -0.639191   203A     -0.636045   204A     -0.636018
     205A     -0.629173   206A     -0.617761   207A     -0.615331
     208A     -0.615311   209A     -0.608831   210A     -0.608824
     211A     -0.599127   212A     -0.599092   213A     -0.598773
     214A     -0.598638   215A     -0.598614   216A     -0.598056
     217A     -0.595095   218A     -0.595082   219A     -0.594748
     220A     -0.594258   221A     -0.591982   222A     -0.591979
     223A     -0.587414   224A     -0.577820   225A     -0.577810
     226A     -0.575671   227A     -0.575667   228A     -0.573409
     229A     -0.569611   230A     -0.568170   231A     -0.568147
     232A     -0.566781   233A     -0.566770   234A     -0.560938
     235A     -0.558743   236A     -0.558724   237A     -0.558451
     238A     -0.554394   239A     -0.550568   240A     -0.547498
     241A     -0.544279   242A     -0.535015   243A     -0.534977
     244A     -0.533560   245A     -0.533538   246A     -0.528104
     247A     -0.528088   248A     -0.527817   249A     -0.517186
     250A     -0.517151   251A     -0.515367   252A     -0.515362
     253A     -0.509668   254A     -0.509652   255A     -0.498054
     256A     -0.496475   257A     -0.496448   258A     -0.493772
     259A     -0.493762   260A     -0.489457   261A     -0.481477
     262A     -0.477433   263A     -0.477430   264A     -0.474020
     265A     -0.469468   266A     -0.466552   267A     -0.466547
     268A     -0.458801   269A     -0.446711   270A     -0.446651
     271A     -0.441038   272A     -0.440788   273A     -0.440763
     274A     -0.434702   275A     -0.433921   276A     -0.407380
     277A     -0.407356   278A     -0.386398   279A     -0.386350
     280A     -0.385748   281A     -0.385747   282A     -0.383752
     283A     -0.354341   284A     -0.354325   285A     -0.350660
     286A     -0.338064   287A     -0.335610   288A     -0.335540
     289A     -0.332726   290A     -0.332719   291A     -0.307063
     292A     -0.301925   293A     -0.301862   294A     -0.300864
     295A     -0.286176   296A     -0.256484   297A     -0.253495
     298A     -0.253442   299A     -0.204269   300A     -0.204180

  @DF-RHF Final Energy: -3650.33946727593684

   => Energetics <=

    Nuclear Repulsion Energy =          15611.4211649754324753
    One-Electron Energy =              -36072.1313698247686261
    Two-Electron Energy =               16810.3707375734011293
    Total Energy =                      -3650.3394672759350215
 Dipole X            :         -0.0001010            0.0002304            0.0001294
 Dipole Y            :          0.0013118           -0.0013052            0.0000066
 Dipole Z            :       -296.7519965          296.7552219            0.0032254
 Magnitude           :                                                    0.0032280

    SAPT Results
  --------------------------------------------------------------------------------------------------------
    Electrostatics                  1.84893125 [mEh]       1.16022187 [kcal/mol]       4.85436832 [kJ/mol]
      Elst10,r                      1.84893125 [mEh]       1.16022187 [kcal/mol]       4.85436832 [kJ/mol]

    Exchange                       24.71623714 [mEh]      15.50967296 [kcal/mol]      64.89247166 [kJ/mol]
      Exch10                       24.71623714 [mEh]      15.50967296 [kcal/mol]      64.89247166 [kJ/mol]
      Exch10(S^2)                  24.65385246 [mEh]      15.47052598 [kcal/mol]      64.72868071 [kJ/mol]

    Induction                     -19.67771404 [mEh]     -12.34795198 [kcal/mol]     -51.66383109 [kJ/mol]
      Ind20,r                     -25.66242412 [mEh]     -16.10341426 [kcal/mol]     -67.37668524 [kJ/mol]
      Exch-Ind20,r                  7.61637420 [mEh]       4.77934697 [kcal/mol]      19.99678770 [kJ/mol]
      delta HF,r (2)               -1.63166412 [mEh]      -1.02388469 [kcal/mol]      -4.28393355 [kJ/mol]

    Dispersion                    -11.79599045 [mEh]      -7.40209576 [kcal/mol]     -30.97036865 [kJ/mol]
      Disp20                      -14.37110772 [mEh]      -9.01800624 [kcal/mol]     -37.73133812 [kJ/mol]
      Exch-Disp20                   2.57511728 [mEh]       1.61591049 [kcal/mol]       6.76096948 [kJ/mol]
      Disp20 (SS)                  -7.18555386 [mEh]      -4.50900312 [kcal/mol]     -18.86566906 [kJ/mol]
      Disp20 (OS)                  -7.18555386 [mEh]      -4.50900312 [kcal/mol]     -18.86566906 [kJ/mol]
      Exch-Disp20 (SS)              1.43895634 [mEh]       0.90295874 [kcal/mol]       3.77797936 [kJ/mol]
      Exch-Disp20 (OS)              1.13616093 [mEh]       0.71295175 [kcal/mol]       2.98299012 [kJ/mol]

  Total HF                          6.88745435 [mEh]       4.32194285 [kcal/mol]      18.08300889 [kJ/mol]
  Total SAPT0                      -4.90853610 [mEh]      -3.08015290 [kcal/mol]     -12.88735975 [kJ/mol]

  Special recipe for scaled SAPT0 (see Manual):
    Electrostatics sSAPT0           1.84893125 [mEh]       1.16022187 [kcal/mol]       4.85436832 [kJ/mol]
    Exchange sSAPT0                24.71623714 [mEh]      15.50967296 [kcal/mol]      64.89247166 [kJ/mol]
    Induction sSAPT0              -19.61974966 [mEh]     -12.31157879 [kcal/mol]     -51.51164564 [kJ/mol]
    Dispersion sSAPT0             -11.77639253 [mEh]      -7.38979788 [kcal/mol]     -30.91891433 [kJ/mol]
  Total sSAPT0                     -4.83097381 [mEh]      -3.03148183 [kcal/mol]     -12.68371998 [kJ/mol]
  --------------------------------------------------------------------------------------------------------

*** Psi4 exiting successfully. Buy a developer a beer!
