                               Psi4 1.9 release

  ==> Input File <==

--------------------------------------------------------------------------
memory 64 GB # how much memory is available ! Depends on the nodes/cores !

molecule dimer {
# monomer A
+1 1    # Charge and multiplicity
C  0.680067 -0.008042 -5.815929
C -0.680504 -0.006014 -5.815545
N -1.085635 -0.005016 -4.497221
C  0.000108 -0.001740 -3.715820
C -2.477365  0.044390 -4.029242
N  1.085222 -0.005016 -4.497221
H  1.385146 -0.015870 -6.633368
H -1.385302 -0.006204 -6.633214
H -0.000009  0.000007 -2.634731
C  2.478117 -0.021908 -4.032123
H  2.490592  0.005437 -2.941870
H  2.967028 -0.935354 -4.379299
H  3.001428  0.853575 -4.423595
H -2.857359  1.066461 -4.109201
H -3.082679 -0.625694 -4.642306
H -2.518128 -0.282594 -2.989294
--
# monomer B
0 1     # Charge and multiplicity
C   -3.66844126402057      7.80375217008252      0.00190004133558
C   -4.84759871934653      7.13124183134024     -0.00046653359696
C   -4.89495929917518      5.69633040353158     -0.00103944469517
C   -3.65374067877320      4.98073034095895      0.00662099703436
C   -2.40942512149445      7.11398103667468      0.00209438359570
C   -2.42547734410473      5.68112195090346     -0.00491050527438
C   -1.19474401643570      7.78614419430947      0.00356656413763
C   0.03795902893699      7.09942164575698      0.00139585983271
C   0.03033258741920      5.66948955970466     -0.00408752508301
C   -1.20098450790502      4.96927034791531      0.00488220885047
C   1.27795782581485      7.77285944319479      0.00277170839332
C   2.48535808472416      7.08769688523756      0.00049722048857
C   2.48612868491717      5.65477081024076     -0.00644052849921
C   1.25408291964399      4.95607811366431      0.00518741308898
C   3.75171459140595      7.76391215098033      0.00062407186893
C   4.92356605618520      7.07878077698995     -0.00143240883900
C   4.95560727132542      5.64344746336949     -0.00159282164606
C   3.70680153420475      4.94121020833308      0.00349873852374
H   -3.65852113775815      8.89082741913536      0.00358502958574
H   -1.18921332975660      8.87412108735996      0.00753844057883
H   1.28429423888630      8.86083343548850      0.00693053253426
H   3.75354208679975      8.85103527897216      0.00214659618464
H   5.86995870320703      7.61379483465560     -0.00235777588134
H   -5.78823170750226      7.67630221293400     -0.00202638095293
C   -6.09197395869619      4.99326001364347     -0.00291168518608
C   -6.12866148031747      3.58258016879823     -0.00171050815740
C   -3.66457974004527      3.56418217974434     -0.00463560277484
C   -4.89429820469869      2.86108077590057      0.00453338221034
C   -2.43733499489796      2.84761165708481      0.00719617576166
C   -1.20922785759670      3.54788693497833     -0.00648285103018
C   1.24714157216223      3.53468075142962     -0.00729145743546
C   0.01517603956900      2.83311183930540      0.00439272578912
C   2.46764517244071      2.82128997725533      0.00449278391269
C   3.70254947457969      3.52466015442405     -0.00899517692985
C   6.14498038638375      4.92757236613191     -0.00282626685777
C   6.16658835886151      3.51658447594213     -0.00065971342101
C   4.92460995845939      2.80840792535402      0.00587903281610
H   7.08990550964105      5.46688776622306     -0.00658814770723
H   -7.03104175110130      5.54268795285765     -0.00714490013730
C   -7.33969804112295      2.85841153457957     -0.00333767559888
C   -7.36488195805880      1.47032337158330     -0.00157213747140
C   -4.90350460894690      1.44442681216000     -0.00628840166334
C   -6.13225715261081      0.73993935705394      0.00600164231964
C   -3.67687480051673      0.72669714267312      0.00433931473643
C   -2.44565658606518      1.42964113326212     -0.00597039546461
C   -1.22360068130162      0.71532450163492      0.00545886906656
C   0.00763786931376      1.41738314923765      0.00392452278437
C   1.23121980774686      0.70211669058719     -0.01490206287210
C   2.46082110053113      1.40329203612573      0.00460244601878
C   3.68443025419614      0.68719842821222      0.00377365974158
C   4.91870890153864      1.39173456118907     -0.00862816189375
C   7.36980207796101      2.77948220318441     -0.00242013321349
C   7.38016266612146      1.39121750785509     -0.00087345036788
C   6.13979953912259      0.67411862320065      0.00545489144369
H   -8.27919079934664      3.40711804112415     -0.00763522772059
H   8.31511347147953      3.31811809662368     -0.00663070901292
C   -8.59175593758115      0.72483255304480     -0.00123170985383
C   -8.59902460370342     -0.63263980622873      0.00089141472904
C   -6.13981313911873     -0.67413663715361     -0.00609792660607
C   -7.38018411213749     -1.39126618958160      0.00131813493501
C   -4.91868448025621     -1.39175501803000      0.00624257154343
C   -3.68443829568458     -0.68723731573599     -0.00478966852105
C   -2.46081704024768     -1.40334517882457      0.00575341766833
C   -1.23116201232071     -0.70217386488055     -0.00636696112346
C   -0.00756962538737     -1.41741884941102      0.00108956317991
C   1.22364771588843     -0.71527537726392      0.01109518512883
C   2.44567064933149     -1.42964328900682     -0.00065482763106
C   3.67686670284649     -0.72670743155550     -0.00479541202602
C   6.13224884641929     -0.73997883984993     -0.00632338623858
C   4.90351914550401     -1.44445752054090      0.00751768830159
C   8.59901484869081      0.63260386666793     -0.00101133422380
C   8.59174548810050     -0.72485086719319      0.00072504603735
C   7.36486276438985     -1.47033266560598      0.00049486934466
H   -9.52830597181814      1.27684744919284     -0.00270163681798
H   9.54141097460619      1.17457248844457     -0.00206336648518
C   -7.36983790976868     -2.77954514593389      0.00312634335708
C   -4.92459910905015     -2.80843725734101     -0.00460528907921
C   -6.16662249566744     -3.51665219282533      0.00169655107992
C   -3.70251035970491     -3.52468154912026      0.00571878010666
C   -2.46764698511392     -2.82132596280400     -0.00632585824990
C   -0.01513347410770     -2.83314164539971     -0.00604426974092
C   -1.24712184122656     -3.53473217556300      0.00551968366725
C   1.20924506964357     -3.54791467864352      0.00805871345849
C   2.43733602215464     -2.84764173817541     -0.00608104485234
C   4.89430234377080     -2.86112296828604     -0.00526030478103
C   3.66461525504104     -3.56421984553201      0.00761911515957
C   6.12863901474565     -3.58258405771778      0.00096495711699
C   7.33967266469532     -2.85841330737039      0.00248018319869
H   -9.54144911125902     -1.17456346666430      0.00226083090216
H   9.52826186807155     -1.27691907390448      0.00197485379837
H   -8.31516504384864     -3.31814985321231      0.00729857188773
H   8.27915514249207     -3.40714078989363      0.00681973918158
C   -6.14499418870218     -4.92764727278338      0.00302254913999
C   -3.70678334799751     -4.94126171411716     -0.00679841894792
C   -4.95559005800169     -5.64349397349412      0.00116871569699
C   -2.48612132622665     -5.65478557440947      0.00614125209662
C   -1.25405833548005     -4.95612205000132     -0.00503435388927
C   1.20101257386816     -4.96928038819302     -0.00385322963129
C   -0.03033667441341     -5.66952030313900      0.00398997003238
C   3.65375010132847     -4.98074377541453     -0.00309522988330
C   2.42549269587528     -5.68117463552727      0.00628170066869
C   6.09196561781097     -4.99325796338655      0.00325918379042
C   4.89497644461045     -5.69634842095790      0.00202298796027
H   -7.08989238804069     -5.46699984223871      0.00742531082125
H   7.03105520920009     -5.54265853633254      0.00683896355417
C   -4.92354532219813     -7.07882109967734      0.00061394679214
C   -2.48534208823777     -7.08772807792913     -0.00189594564379
C   -3.75168589177895     -7.76394715763627     -0.00170126671874
C   -0.03794895698805     -7.09946487446944     -0.00168022049625
C   -1.27795610040136     -7.77290438466689     -0.00366491325785
C   2.40944432072629     -7.11402201200282     -0.00081701968533
C   1.19474993715296     -7.78618536556242     -0.00296931056689
C   4.84762105249800     -7.13126211057943      0.00168979497423
C   3.66847160587561     -7.80378799294376     -0.00065863938960
H   -5.86994035041618     -7.61383059804164      0.00215798365757
H   5.78824962538815     -7.67633218931421      0.00281691445618
H   -3.75352693944918     -8.85107156923607     -0.00353718114765
H   -1.28430440589466     -8.86087539249706     -0.00809229711623
H   1.18922157469537     -8.87416062058945     -0.00706194725726
H   3.65854661482387     -8.89086063405326     -0.00231318081200

    units angstrom      # Angstroms are the default
    no_reorient         # Geometry fixed, default
    symmetry c1         # C1 symmetry, default
}

set {
    scf_type DF         # Density fitting, faster than exact integrals
    freeze_core True    # Freeze core electrons
    basis jun-cc-pVDZ   # Jun-cc-pVDZ basis set, recommended for sSAPT0 in https://doi.org/10.1063/1.4867135
}

energy('ssapt0')        # Compute sSAPT0 energy, includes also SAPT0
--------------------------------------------------------------------------

  //              Dimer HF             //
    Molecular point group: c1
  Charge       = 1
  Multiplicity = 1
  Basis Set: JUN-CC-PVDZ
    Blend: JUN-CC-PVDZ
  Basis Set: (JUN-CC-PVDZ AUX)
    Blend: JUN-CC-PVDZ-JKFIT
  @DF-RHF Final Energy: -3953.66144119110595
    Total Energy =                      -3953.6614411911068601
 Dipole X            :         -0.0024528            0.0004804           -0.0019723
 Dipole Y            :         -0.0515975            0.0561130            0.0045155
 Dipole Z            :         20.1722403          -26.0505485           -5.8783082
 Magnitude           :                                                    5.8783102
  //            Monomer A HF           //
    Molecular point group: c1
  Multiplicity = 1
  Basis Set: JUN-CC-PVDZ
    Blend: JUN-CC-PVDZ
  Basis Set: (JUN-CC-PVDZ AUX)
    Blend: JUN-CC-PVDZ-JKFIT
  @DF-RHF Final Energy:  -303.29810005877556
    Total Energy =                       -303.2981000587755602
  //            Monomer B HF           //
    Molecular point group: c1

    Geometry (in Angstrom), charge = 0, multiplicity = 1:

       Center              X                  Y                   Z               Mass
    ------------   -----------------  -----------------  -----------------  -----------------
      Gh(C)           0.680062820275    -0.008027535675    -5.465220310098    12.000000000000
      Gh(C)          -0.680508179725    -0.005999535675    -5.464836310098    12.000000000000
      Gh(N)          -1.085639179725    -0.005001535675    -4.146512310098    14.003074004430
      Gh(C)           0.000103820275    -0.001725535675    -3.365111310098    12.000000000000
      Gh(C)          -2.477369179725     0.044404464325    -3.678533310098    12.000000000000
      Gh(N)           1.085217820275    -0.005001535675    -4.146512310098    14.003074004430
      Gh(H)           1.385141820275    -0.015855535675    -6.282659310098     1.007825032230
      Gh(H)          -1.385306179725    -0.006189535675    -6.282505310098     1.007825032230
      Gh(H)          -0.000013179725     0.000021464325    -2.284022310098     1.007825032230
      Gh(C)           2.478112820275    -0.021893535675    -3.681414310098    12.000000000000
      Gh(H)           2.490587820275     0.005451464325    -2.591161310098     1.007825032230
      Gh(H)           2.967023820275    -0.935339535675    -4.028590310098     1.007825032230
      Gh(H)           3.001423820275     0.853589464325    -4.072886310098     1.007825032230
      Gh(H)          -2.857363179725     1.066475464325    -3.758492310098     1.007825032230
      Gh(H)          -3.082683179725    -0.625679535675    -4.291597310098     1.007825032230
      Gh(H)          -2.518132179725    -0.282579535675    -2.638585310098     1.007825032230
         C           -3.668445443746     7.803766634408     0.352608731238    12.000000000000
         C           -4.847602899072     7.131256295665     0.350242156306    12.000000000000
         C           -4.894963478901     5.696344867857     0.349669245207    12.000000000000
         C           -3.653744858499     4.980744805284     0.357329686937    12.000000000000
         C           -2.409429301220     7.113995501000     0.352803073498    12.000000000000
         C           -2.425481523830     5.681136415228     0.345798184628    12.000000000000
         C           -1.194748196161     7.786158658634     0.354275254040    12.000000000000
         C            0.037954849212     7.099436110082     0.352104549735    12.000000000000
         C            0.030328407694     5.669504024030     0.346621164819    12.000000000000
         C           -1.200988687630     4.969284812240     0.355590898753    12.000000000000
         C            1.277953646089     7.772873907520     0.353480398296    12.000000000000
         C            2.485353904999     7.087711349563     0.351205910391    12.000000000000
         C            2.486124505192     5.654785274566     0.344268161403    12.000000000000
         C            1.254078739919     4.956092577989     0.355896102991    12.000000000000
         C            3.751710411681     7.763926615305     0.351332761771    12.000000000000
         C            4.923561876460     7.078795241315     0.349276281063    12.000000000000
         C            4.955603091600     5.643461927694     0.349115868256    12.000000000000
         C            3.706797354479     4.941224672658     0.354207428426    12.000000000000
         H           -3.658525317484     8.890841883460     0.354293719488     1.007825032230
         H           -1.189217509482     8.874135551685     0.358247130481     1.007825032230
         H            1.284290059161     8.860847899813     0.357639222437     1.007825032230
         H            3.753537907074     8.851049743297     0.352855286087     1.007825032230
         H            5.869954523482     7.613809298981     0.348350914021     1.007825032230
         H           -5.788235887228     7.676316677259     0.348682308950     1.007825032230
         C           -6.091978138422     4.993274477968     0.347797004716    12.000000000000
         C           -6.128665660043     3.582594633123     0.348998181745    12.000000000000
         C           -3.664583919771     3.564196644069     0.346073087128    12.000000000000
         C           -4.894302384424     2.861095240226     0.355242072113    12.000000000000
         C           -2.437339174623     2.847626121410     0.357904865664    12.000000000000
         C           -1.209232037322     3.547901399303     0.344225838872    12.000000000000
         C            1.247137392437     3.534695215755     0.343417232467    12.000000000000
         C            0.015171859844     2.833126303630     0.355101415692    12.000000000000
         C            2.467640992715     2.821304441580     0.355201473815    12.000000000000
         C            3.702545294854     3.524674618749     0.341713512973    12.000000000000
         C            6.144976206658     4.927586830457     0.347882423045    12.000000000000
         C            6.166584179136     3.516598940267     0.350048976481    12.000000000000
         C            4.924605778734     2.808422389679     0.356587722719    12.000000000000
         H            7.089901329916     5.466902230548     0.344120542195     1.007825032230
         H           -7.031045930827     5.542702417183     0.343563789765     1.007825032230
         C           -7.339702220848     2.858425998905     0.347371014304    12.000000000000
         C           -7.364886137784     1.470337835908     0.349136552431    12.000000000000
         C           -4.903508788672     1.444441276485     0.344420288239    12.000000000000
         C           -6.132261332336     0.739953821379     0.356710332222    12.000000000000
         C           -3.676878980242     0.726711606998     0.355048004639    12.000000000000
         C           -2.445660765791     1.429655597587     0.344738294438    12.000000000000
         C           -1.223604861027     0.715338965960     0.356167558969    12.000000000000
         C            0.007633689588     1.417397613563     0.354633212687    12.000000000000
         C            1.231215628021     0.702131154912     0.335806627030    12.000000000000
         C            2.460816920806     1.403306500451     0.355311135921    12.000000000000
         C            3.684426074471     0.687212892537     0.354482349644    12.000000000000
         C            4.918704721813     1.391749025514     0.342080528009    12.000000000000
         C            7.369797898236     2.779496667509     0.348288556689    12.000000000000
         C            7.380158486396     1.391231972180     0.349835239535    12.000000000000
         C            6.139795359397     0.674133087526     0.356163581346    12.000000000000
         H           -8.279194979072     3.407132505449     0.343073462182     1.007825032230
         H            8.315109291754     3.318132560949     0.344077980890     1.007825032230
         C           -8.591760117307     0.724847017370     0.349476980049    12.000000000000
         C           -8.599028783429    -0.632625341904     0.351600104632    12.000000000000
         C           -6.139817318844    -0.674122172829     0.344610763296    12.000000000000
         C           -7.380188291863    -1.391251725257     0.352026824837    12.000000000000
         C           -4.918688659982    -1.391740553705     0.356951261446    12.000000000000
         C           -3.684442475410    -0.687222851411     0.345919021381    12.000000000000
         C           -2.460821219973    -1.403330714500     0.356462107571    12.000000000000
         C           -1.231166192046    -0.702159400556     0.344341728779    12.000000000000
         C           -0.007573805113    -1.417404385086     0.351798253082    12.000000000000
         C            1.223643536163    -0.715260912939     0.361803875031    12.000000000000
         C            2.445666469606    -1.429628824682     0.350053862271    12.000000000000
         C            3.676862523121    -0.726692967231     0.345913277876    12.000000000000
         C            6.132244666694    -0.739964375525     0.344385303664    12.000000000000
         C            4.903514965779    -1.444443056216     0.358226378204    12.000000000000
         C            8.599010668965     0.632618330993     0.349697355679    12.000000000000
         C            8.591741308375    -0.724836402868     0.351433735940    12.000000000000
         C            7.364858584664    -1.470318201281     0.351203559247    12.000000000000
         H           -9.528310151544     1.276861913518     0.348007053084     1.007825032230
         H            9.541406794881     1.174586952770     0.348645323417     1.007825032230
         C           -7.369842089494    -2.779530681609     0.353835033260    12.000000000000
         C           -4.924603288776    -2.808422793016     0.346103400823    12.000000000000
         C           -6.166626675393    -3.516637728500     0.352405240982    12.000000000000
         C           -3.702514539430    -3.524667084795     0.356427470009    12.000000000000
         C           -2.467651164839    -2.821311498479     0.344382831653    12.000000000000
         C           -0.015137653833    -2.833127181075     0.344664420162    12.000000000000
         C           -1.247126020952    -3.534717711238     0.356228373570    12.000000000000
         C            1.209240889918    -3.547900214319     0.358767403361    12.000000000000
         C            2.437331842429    -2.847627273850     0.344627645050    12.000000000000
         C            4.894298164045    -2.861108503961     0.345448385121    12.000000000000
         C            3.664611075316    -3.564205381207     0.358327805062    12.000000000000
         C            6.128634835020    -3.582569593393     0.351673647019    12.000000000000
         C            7.339668484970    -2.858398843045     0.353188873101    12.000000000000
         H           -9.541453290984    -1.174549002339     0.352969520805     1.007825032230
         H            9.528257688346    -1.276904609579     0.352683543701     1.007825032230
         H           -8.315169223574    -3.318135388887     0.358007261790     1.007825032230
         H            8.279150962767    -3.407126325569     0.357528429084     1.007825032230
         C           -6.144998368428    -4.927632808458     0.353731239042    12.000000000000
         C           -3.706787527723    -4.941247249792     0.343910270955    12.000000000000
         C           -4.955594237727    -5.643479509169     0.351877405599    12.000000000000
         C           -2.486125505952    -5.654771110084     0.356849941999    12.000000000000
         C           -1.254062515205    -4.956107585676     0.345674336013    12.000000000000
         C            1.201008394143    -4.969265923868     0.346855460271    12.000000000000
         C           -0.030340854139    -5.669505838814     0.354698659935    12.000000000000
         C            3.653745921603    -4.980729311090     0.347613460019    12.000000000000
         C            2.425488516150    -5.681160171202     0.356990390571    12.000000000000
         C            6.091961438086    -4.993243499062     0.353967873693    12.000000000000
         C            4.894972264885    -5.696333956633     0.352731677863    12.000000000000
         H           -7.089896567766    -5.466985377914     0.358134000724     1.007825032230
         H            7.031051029475    -5.542644072008     0.357547653457     1.007825032230
         C           -4.923549501924    -7.078806635352     0.351322636695    12.000000000000
         C           -2.485346267963    -7.087713613604     0.348812744259    12.000000000000
         C           -3.751690071504    -7.763932693311     0.349007423184    12.000000000000
         C           -0.037953136713    -7.099450410144     0.349028469406    12.000000000000
         C           -1.277960280127    -7.772889920342     0.347043776645    12.000000000000
         C            2.409440141001    -7.114007547678     0.349891670217    12.000000000000
         C            1.194745757428    -7.786170901237     0.347739379336    12.000000000000
         C            4.847616872773    -7.131247646254     0.352398484877    12.000000000000
         C            3.668467426150    -7.803773528619     0.350050050513    12.000000000000
         H           -5.869944530142    -7.613816133717     0.352866673560     1.007825032230
         H            5.788245445663    -7.676317724989     0.353525604359     1.007825032230
         H           -3.753531119175    -8.851057104911     0.347171508755     1.007825032230
         H           -1.284308585620    -8.860860928172     0.342616392786     1.007825032230
         H            1.189217394970    -8.874146156264     0.343646742645     1.007825032230
         H            3.658542435098    -8.890846169728     0.348395509090     1.007825032230

  Charge       = 0
  Multiplicity = 1
  Basis Set: JUN-CC-PVDZ
    Blend: JUN-CC-PVDZ
  Basis Set: (JUN-CC-PVDZ AUX)
    Blend: JUN-CC-PVDZ-JKFIT

    Orbital Energies [Eh]
    ---------------------

    Doubly Occupied:

       1A    -11.264034     2A    -11.263721     3A    -11.263653
       4A    -11.263318     5A    -11.263300     6A    -11.263249
       7A    -11.263139     8A    -11.263108     9A    -11.263064
      10A    -11.262886    11A    -11.262756    12A    -11.262739
      13A    -11.262266    14A    -11.262251    15A    -11.262234
      16A    -11.262178    17A    -11.262111    18A    -11.262089
      19A    -11.262050    20A    -11.262006    21A    -11.262000
      22A    -11.261891    23A    -11.261869    24A    -11.261729
      25A    -11.261724    26A    -11.261697    27A    -11.261694
      28A    -11.261652    29A    -11.261648    30A    -11.261559
      31A    -11.261540    32A    -11.261533    33A    -11.261515
      34A    -11.261513    35A    -11.261492    36A    -11.261486
      37A    -11.261306    38A    -11.261298    39A    -11.261291
      40A    -11.261288    41A    -11.261274    42A    -11.261270
      43A    -11.261260    44A    -11.261248    45A    -11.261239
      46A    -11.261217    47A    -11.261213    48A    -11.261207
      49A    -11.261060    50A    -11.261040    51A    -11.260999
      52A    -11.260961    53A    -11.260917    54A    -11.260876
      55A    -11.259888    56A    -11.259875    57A    -11.259873
      58A    -11.259844    59A    -11.259842    60A    -11.259826
      61A    -11.259259    62A    -11.259236    63A    -11.259228
      64A    -11.259180    65A    -11.259173    66A    -11.259146
      67A    -11.258891    68A    -11.258874    69A    -11.258871
      70A    -11.258843    71A    -11.258841    72A    -11.258829
      73A    -11.254505    74A    -11.254504    75A    -11.254499
      76A    -11.254496    77A    -11.254487    78A    -11.254480
      79A    -11.253630    80A    -11.253630    81A    -11.253618
      82A    -11.253615    83A    -11.253614    84A    -11.253607
      85A    -11.253546    86A    -11.253546    87A    -11.253533
      88A    -11.253530    89A    -11.253529    90A    -11.253522
      91A    -11.253033    92A    -11.253032    93A    -11.253027
      94A    -11.253024    95A    -11.253015    96A    -11.253008
      97A     -1.253875    98A     -1.238948    99A     -1.238920
     100A     -1.220415   101A     -1.220401   102A     -1.215378
     103A     -1.200993   104A     -1.195555   105A     -1.188086
     106A     -1.188068   107A     -1.173718   108A     -1.173716
     109A     -1.155567   110A     -1.155563   111A     -1.152653
     112A     -1.144679   113A     -1.144676   114A     -1.128509
     115A     -1.114652   116A     -1.113120   117A     -1.112428
     118A     -1.112399   119A     -1.111577   120A     -1.088374
     121A     -1.088353   122A     -1.076920   123A     -1.076918
     124A     -1.067561   125A     -1.067522   126A     -1.064909
     127A     -1.046748   128A     -1.046738   129A     -1.040423
     130A     -1.038696   131A     -1.038689   132A     -1.025176
     133A     -1.021320   134A     -1.021254   135A     -1.007130
     136A     -1.006748   137A     -1.003744   138A     -1.000430
     139A     -1.000373   140A     -0.991036   141A     -0.970932
     142A     -0.970879   143A     -0.955838   144A     -0.955779
     145A     -0.905514   146A     -0.905510   147A     -0.905480
     148A     -0.905467   149A     -0.904254   150A     -0.892287
     151A     -0.892234   152A     -0.890296   153A     -0.890241
     154A     -0.889389   155A     -0.872173   156A     -0.869021
     157A     -0.851487   158A     -0.847793   159A     -0.847784
     160A     -0.845530   161A     -0.842950   162A     -0.834506
     163A     -0.834496   164A     -0.828077   165A     -0.828067
     166A     -0.784496   167A     -0.784486   168A     -0.783599
     169A     -0.783582   170A     -0.782223   171A     -0.782205
     172A     -0.781965   173A     -0.766932   174A     -0.760721
     175A     -0.750508   176A     -0.733439   177A     -0.727024
     178A     -0.726984   179A     -0.725019   180A     -0.724489
     181A     -0.724456   182A     -0.718421   183A     -0.713704
     184A     -0.713697   185A     -0.699525   186A     -0.699500
     187A     -0.686052   188A     -0.685906   189A     -0.685895
     190A     -0.682116   191A     -0.682107   192A     -0.678718
     193A     -0.653571   194A     -0.650815   195A     -0.650780
     196A     -0.649738   197A     -0.649732   198A     -0.649513
     199A     -0.640867   200A     -0.640819   201A     -0.640032
     202A     -0.639110   203A     -0.635959   204A     -0.635926
     205A     -0.629077   206A     -0.617745   207A     -0.615256
     208A     -0.615228   209A     -0.608743   210A     -0.608737
     211A     -0.599169   212A     -0.599081   213A     -0.598682
     214A     -0.598528   215A     -0.598513   216A     -0.597967
     217A     -0.595014   218A     -0.595001   219A     -0.594662
     220A     -0.594151   221A     -0.591890   222A     -0.591887
     223A     -0.587313   224A     -0.577757   225A     -0.577737
     226A     -0.575690   227A     -0.575648   228A     -0.573322
     229A     -0.569562   230A     -0.568074   231A     -0.568047
     232A     -0.566687   233A     -0.566681   234A     -0.560869
     235A     -0.558660   236A     -0.558615   237A     -0.558381
     238A     -0.554305   239A     -0.550548   240A     -0.547430
     241A     -0.544236   242A     -0.534994   243A     -0.534943
     244A     -0.533480   245A     -0.533462   246A     -0.528025
     247A     -0.528004   248A     -0.527712   249A     -0.517094
     250A     -0.517068   251A     -0.515319   252A     -0.515314
     253A     -0.509585   254A     -0.509573   255A     -0.497964
     256A     -0.496397   257A     -0.496349   258A     -0.493788
     259A     -0.493717   260A     -0.489418   261A     -0.481394
     262A     -0.477380   263A     -0.477378   264A     -0.473933
     265A     -0.469364   266A     -0.466454   267A     -0.466451
     268A     -0.458777   269A     -0.446596   270A     -0.446545
     271A     -0.440985   272A     -0.440747   273A     -0.440680
     274A     -0.434648   275A     -0.433869   276A     -0.407324
     277A     -0.407312   278A     -0.386367   279A     -0.386301
     280A     -0.385693   281A     -0.385688   282A     -0.383709
     283A     -0.354274   284A     -0.354255   285A     -0.350619
     286A     -0.338034   287A     -0.335518   288A     -0.335495
     289A     -0.332675   290A     -0.332664   291A     -0.307011
     292A     -0.301882   293A     -0.301822   294A     -0.300807
     295A     -0.286121   296A     -0.256439   297A     -0.253429
     298A     -0.253394   299A     -0.204209   300A     -0.204129

  @DF-RHF Final Energy: -3650.34093740798380

   => Energetics <=

    Nuclear Repulsion Energy =          15611.4211649754306563
    One-Electron Energy =              -36072.1755044012097642
    Two-Electron Energy =               16810.4134020177989441
    Total Energy =                      -3650.3409374079819827
 Dipole X            :         -0.0005706            0.0002112           -0.0003595
 Dipole Y            :          0.0011831           -0.0013774           -0.0001943
 Dipole Z            :       -397.6428062          397.6494161            0.0066099
 Magnitude           :                                                    0.0066226

    SAPT Results
  --------------------------------------------------------------------------------------------------------
    Electrostatics                -12.94317065 [mEh]      -8.12196220 [kcal/mol]     -33.98228985 [kJ/mol]
      Elst10,r                    -12.94317065 [mEh]      -8.12196220 [kcal/mol]     -33.98228985 [kJ/mol]

    Exchange                        4.77010428 [mEh]       2.99328563 [kcal/mol]      12.52390706 [kJ/mol]
      Exch10                        4.77010428 [mEh]       2.99328563 [kcal/mol]      12.52390706 [kJ/mol]
      Exch10(S^2)                   4.76238784 [mEh]       2.98844349 [kcal/mol]      12.50364754 [kJ/mol]

    Induction                     -14.23065798 [mEh]      -8.92987270 [kcal/mol]     -37.36258738 [kJ/mol]
      Ind20,r                     -13.72029798 [mEh]      -8.60961696 [kcal/mol]     -36.02263737 [kJ/mol]
      Exch-Ind20,r                  0.99344712 [mEh]       0.62339748 [kcal/mol]       2.60829505 [kJ/mol]
      delta HF,r (2)               -1.50380712 [mEh]      -0.94365322 [kcal/mol]      -3.94824506 [kJ/mol]

    Dispersion                    -15.72809849 [mEh]      -9.86953081 [kcal/mol]     -41.29411691 [kJ/mol]
      Disp20                      -16.22572512 [mEh]     -10.18179623 [kcal/mol]     -42.60063544 [kJ/mol]
      Exch-Disp20                   0.49762663 [mEh]       0.31226542 [kcal/mol]       1.30651853 [kJ/mol]
      Disp20 (SS)                  -8.11286256 [mEh]      -5.09089812 [kcal/mol]     -21.30031772 [kJ/mol]
      Disp20 (OS)                  -8.11286256 [mEh]      -5.09089812 [kcal/mol]     -21.30031772 [kJ/mol]
      Exch-Disp20 (SS)              0.30796364 [mEh]       0.19325010 [kcal/mol]       0.80855842 [kJ/mol]
      Exch-Disp20 (OS)              0.18966299 [mEh]       0.11901532 [kcal/mol]       0.49796011 [kJ/mol]

  Total HF                        -22.40372435 [mEh]     -14.05854928 [kcal/mol]     -58.82097017 [kJ/mol]
  Total SAPT0                     -38.13182284 [mEh]     -23.92808008 [kcal/mol]    -100.11508707 [kJ/mol]

  Special recipe for scaled SAPT0 (see Manual):
    Electrostatics sSAPT0         -12.94317065 [mEh]      -8.12196220 [kcal/mol]     -33.98228985 [kJ/mol]
    Exchange sSAPT0                 4.77010428 [mEh]       2.99328563 [kcal/mol]      12.52390706 [kJ/mol]
    Induction sSAPT0              -14.22582114 [mEh]      -8.92683754 [kcal/mol]     -37.34988825 [kJ/mol]
    Dispersion sSAPT0             -15.72567568 [mEh]      -9.86801047 [kcal/mol]     -41.28775580 [kJ/mol]
  Total sSAPT0                    -38.12456318 [mEh]     -23.92352458 [kcal/mol]    -100.09602684 [kJ/mol]
  --------------------------------------------------------------------------------------------------------

*** Psi4 exiting successfully. Buy a developer a beer!
