                               Psi4 1.9 release

  ==> Input File <==

--------------------------------------------------------------------------
memory 64 GB # how much memory is available ! Depends on the nodes/cores !

molecule dimer {
# monomer A
+1 1    # Charge and multiplicity
C  0.680067 -1.215929 5.008042
C -0.680504 -1.215545 5.006014
N -1.085635  0.102779 5.005016
C  0.000108  0.884180 5.001740
C -2.477365  0.570758 4.955610
N  1.085222  0.102779 5.005016
H  1.385146 -2.033368 5.015870
H -1.385302 -2.033214 5.006204
H -0.000009  1.965269 4.999993
C  2.478117  0.567877 5.021908
H  2.490592  1.658130 4.994563
H  2.967028  0.220701 5.935354
H  3.001428  0.176405 4.146425
H -2.857359  0.490799 3.933539
H -3.082679 -0.042306 5.625694
H -2.518128  1.610706 5.282594
--
# monomer B
0 1     # Charge and multiplicity
C   -3.66844126402057      7.80375217008252      0.00190004133558
C   -4.84759871934653      7.13124183134024     -0.00046653359696
C   -4.89495929917518      5.69633040353158     -0.00103944469517
C   -3.65374067877320      4.98073034095895      0.00662099703436
C   -2.40942512149445      7.11398103667468      0.00209438359570
C   -2.42547734410473      5.68112195090346     -0.00491050527438
C   -1.19474401643570      7.78614419430947      0.00356656413763
C   0.03795902893699      7.09942164575698      0.00139585983271
C   0.03033258741920      5.66948955970466     -0.00408752508301
C   -1.20098450790502      4.96927034791531      0.00488220885047
C   1.27795782581485      7.77285944319479      0.00277170839332
C   2.48535808472416      7.08769688523756      0.00049722048857
C   2.48612868491717      5.65477081024076     -0.00644052849921
C   1.25408291964399      4.95607811366431      0.00518741308898
C   3.75171459140595      7.76391215098033      0.00062407186893
C   4.92356605618520      7.07878077698995     -0.00143240883900
C   4.95560727132542      5.64344746336949     -0.00159282164606
C   3.70680153420475      4.94121020833308      0.00349873852374
H   -3.65852113775815      8.89082741913536      0.00358502958574
H   -1.18921332975660      8.87412108735996      0.00753844057883
H   1.28429423888630      8.86083343548850      0.00693053253426
H   3.75354208679975      8.85103527897216      0.00214659618464
H   5.86995870320703      7.61379483465560     -0.00235777588134
H   -5.78823170750226      7.67630221293400     -0.00202638095293
C   -6.09197395869619      4.99326001364347     -0.00291168518608
C   -6.12866148031747      3.58258016879823     -0.00171050815740
C   -3.66457974004527      3.56418217974434     -0.00463560277484
C   -4.89429820469869      2.86108077590057      0.00453338221034
C   -2.43733499489796      2.84761165708481      0.00719617576166
C   -1.20922785759670      3.54788693497833     -0.00648285103018
C   1.24714157216223      3.53468075142962     -0.00729145743546
C   0.01517603956900      2.83311183930540      0.00439272578912
C   2.46764517244071      2.82128997725533      0.00449278391269
C   3.70254947457969      3.52466015442405     -0.00899517692985
C   6.14498038638375      4.92757236613191     -0.00282626685777
C   6.16658835886151      3.51658447594213     -0.00065971342101
C   4.92460995845939      2.80840792535402      0.00587903281610
H   7.08990550964105      5.46688776622306     -0.00658814770723
H   -7.03104175110130      5.54268795285765     -0.00714490013730
C   -7.33969804112295      2.85841153457957     -0.00333767559888
C   -7.36488195805880      1.47032337158330     -0.00157213747140
C   -4.90350460894690      1.44442681216000     -0.00628840166334
C   -6.13225715261081      0.73993935705394      0.00600164231964
C   -3.67687480051673      0.72669714267312      0.00433931473643
C   -2.44565658606518      1.42964113326212     -0.00597039546461
C   -1.22360068130162      0.71532450163492      0.00545886906656
C   0.00763786931376      1.41738314923765      0.00392452278437
C   1.23121980774686      0.70211669058719     -0.01490206287210
C   2.46082110053113      1.40329203612573      0.00460244601878
C   3.68443025419614      0.68719842821222      0.00377365974158
C   4.91870890153864      1.39173456118907     -0.00862816189375
C   7.36980207796101      2.77948220318441     -0.00242013321349
C   7.38016266612146      1.39121750785509     -0.00087345036788
C   6.13979953912259      0.67411862320065      0.00545489144369
H   -8.27919079934664      3.40711804112415     -0.00763522772059
H   8.31511347147953      3.31811809662368     -0.00663070901292
C   -8.59175593758115      0.72483255304480     -0.00123170985383
C   -8.59902460370342     -0.63263980622873      0.00089141472904
C   -6.13981313911873     -0.67413663715361     -0.00609792660607
C   -7.38018411213749     -1.39126618958160      0.00131813493501
C   -4.91868448025621     -1.39175501803000      0.00624257154343
C   -3.68443829568458     -0.68723731573599     -0.00478966852105
C   -2.46081704024768     -1.40334517882457      0.00575341766833
C   -1.23116201232071     -0.70217386488055     -0.00636696112346
C   -0.00756962538737     -1.41741884941102      0.00108956317991
C   1.22364771588843     -0.71527537726392      0.01109518512883
C   2.44567064933149     -1.42964328900682     -0.00065482763106
C   3.67686670284649     -0.72670743155550     -0.00479541202602
C   6.13224884641929     -0.73997883984993     -0.00632338623858
C   4.90351914550401     -1.44445752054090      0.00751768830159
C   8.59901484869081      0.63260386666793     -0.00101133422380
C   8.59174548810050     -0.72485086719319      0.00072504603735
C   7.36486276438985     -1.47033266560598      0.00049486934466
H   -9.52830597181814      1.27684744919284     -0.00270163681798
H   9.54141097460619      1.17457248844457     -0.00206336648518
C   -7.36983790976868     -2.77954514593389      0.00312634335708
C   -4.92459910905015     -2.80843725734101     -0.00460528907921
C   -6.16662249566744     -3.51665219282533      0.00169655107992
C   -3.70251035970491     -3.52468154912026      0.00571878010666
C   -2.46764698511392     -2.82132596280400     -0.00632585824990
C   -0.01513347410770     -2.83314164539971     -0.00604426974092
C   -1.24712184122656     -3.53473217556300      0.00551968366725
C   1.20924506964357     -3.54791467864352      0.00805871345849
C   2.43733602215464     -2.84764173817541     -0.00608104485234
C   4.89430234377080     -2.86112296828604     -0.00526030478103
C   3.66461525504104     -3.56421984553201      0.00761911515957
C   6.12863901474565     -3.58258405771778      0.00096495711699
C   7.33967266469532     -2.85841330737039      0.00248018319869
H   -9.54144911125902     -1.17456346666430      0.00226083090216
H   9.52826186807155     -1.27691907390448      0.00197485379837
H   -8.31516504384864     -3.31814985321231      0.00729857188773
H   8.27915514249207     -3.40714078989363      0.00681973918158
C   -6.14499418870218     -4.92764727278338      0.00302254913999
C   -3.70678334799751     -4.94126171411716     -0.00679841894792
C   -4.95559005800169     -5.64349397349412      0.00116871569699
C   -2.48612132622665     -5.65478557440947      0.00614125209662
C   -1.25405833548005     -4.95612205000132     -0.00503435388927
C   1.20101257386816     -4.96928038819302     -0.00385322963129
C   -0.03033667441341     -5.66952030313900      0.00398997003238
C   3.65375010132847     -4.98074377541453     -0.00309522988330
C   2.42549269587528     -5.68117463552727      0.00628170066869
C   6.09196561781097     -4.99325796338655      0.00325918379042
C   4.89497644461045     -5.69634842095790      0.00202298796027
H   -7.08989238804069     -5.46699984223871      0.00742531082125
H   7.03105520920009     -5.54265853633254      0.00683896355417
C   -4.92354532219813     -7.07882109967734      0.00061394679214
C   -2.48534208823777     -7.08772807792913     -0.00189594564379
C   -3.75168589177895     -7.76394715763627     -0.00170126671874
C   -0.03794895698805     -7.09946487446944     -0.00168022049625
C   -1.27795610040136     -7.77290438466689     -0.00366491325785
C   2.40944432072629     -7.11402201200282     -0.00081701968533
C   1.19474993715296     -7.78618536556242     -0.00296931056689
C   4.84762105249800     -7.13126211057943      0.00168979497423
C   3.66847160587561     -7.80378799294376     -0.00065863938960
H   -5.86994035041618     -7.61383059804164      0.00215798365757
H   5.78824962538815     -7.67633218931421      0.00281691445618
H   -3.75352693944918     -8.85107156923607     -0.00353718114765
H   -1.28430440589466     -8.86087539249706     -0.00809229711623
H   1.18922157469537     -8.87416062058945     -0.00706194725726
H   3.65854661482387     -8.89086063405326     -0.00231318081200

    units angstrom      # Angstroms are the default
    no_reorient         # Geometry fixed, default
    symmetry c1         # C1 symmetry, default
}

set {
    scf_type DF         # Density fitting, faster than exact integrals
    freeze_core True    # Freeze core electrons
    basis jun-cc-pVDZ   # Jun-cc-pVDZ basis set, recommended for sSAPT0 in https://doi.org/10.1063/1.4867135
}

energy('ssapt0')        # Compute sSAPT0 energy, includes also SAPT0
--------------------------------------------------------------------------

  //              Dimer HF             //
    Molecular point group: c1
  Charge       = 1
  Multiplicity = 1
  Basis Set: JUN-CC-PVDZ
    Blend: JUN-CC-PVDZ
  Basis Set: (JUN-CC-PVDZ AUX)
    Blend: JUN-CC-PVDZ-JKFIT
  @DF-RHF Final Energy: -3953.65511896504904
    Total Energy =                      -3953.6551189650490414
 Dipole X            :          0.0016381            0.0004804            0.0021185
 Dipole Y            :         -1.5826112            1.8866171            0.3040059
 Dipole Z            :        -22.9573206           30.3094640            7.3521434
 Magnitude           :                                                    7.3584263
  //            Monomer A HF           //
    Molecular point group: c1
  Multiplicity = 1
  Basis Set: JUN-CC-PVDZ
    Blend: JUN-CC-PVDZ
  Basis Set: (JUN-CC-PVDZ AUX)
    Blend: JUN-CC-PVDZ-JKFIT
  @DF-RHF Final Energy:  -303.29786688712551
    Total Energy =                       -303.2978668871255081
  //            Monomer B HF           //
    Molecular point group: c1

    Geometry (in Angstrom), charge = 0, multiplicity = 1:

       Center              X                  Y                   Z               Mass
    ------------   -----------------  -----------------  -----------------  -----------------
      Gh(C)           0.680062820275    -1.215917226251     4.626827511025    12.000000000000
      Gh(C)          -0.680508179725    -1.215533226251     4.624799511025    12.000000000000
      Gh(N)          -1.085639179725     0.102790773749     4.623801511025    14.003074004430
      Gh(C)           0.000103820275     0.884191773749     4.620525511025    12.000000000000
      Gh(C)          -2.477369179725     0.570769773749     4.574395511025    12.000000000000
      Gh(N)           1.085217820275     0.102790773749     4.623801511025    14.003074004430
      Gh(H)           1.385141820275    -2.033356226251     4.634655511025     1.007825032230
      Gh(H)          -1.385306179725    -2.033202226251     4.624989511025     1.007825032230
      Gh(H)          -0.000013179725     1.965280773749     4.618778511025     1.007825032230
      Gh(C)           2.478112820275     0.567888773749     4.640693511025    12.000000000000
      Gh(H)           2.490587820275     1.658141773750     4.613348511025     1.007825032230
      Gh(H)           2.967023820275     0.220712773749     5.554139511025     1.007825032230
      Gh(H)           3.001423820275     0.176416773749     3.765210511025     1.007825032230
      Gh(H)          -2.857363179725     0.490810773749     3.552324511025     1.007825032230
      Gh(H)          -3.082683179725    -0.042294226251     5.244479511025     1.007825032230
      Gh(H)          -2.518132179725     1.610717773749     4.901379511025     1.007825032230
         C           -3.668445443746     7.803763943832    -0.379314447639    12.000000000000
         C           -4.847602899072     7.131253605090    -0.381681022572    12.000000000000
         C           -4.894963478901     5.696342177281    -0.382253933670    12.000000000000
         C           -3.653744858499     4.980742114708    -0.374593491940    12.000000000000
         C           -2.409429301220     7.113992810424    -0.379120105379    12.000000000000
         C           -2.425481523830     5.681133724653    -0.386124994249    12.000000000000
         C           -1.194748196161     7.786155968059    -0.377647924837    12.000000000000
         C            0.037954849212     7.099433419506    -0.379818629142    12.000000000000
         C            0.030328407694     5.669501333454    -0.385302014058    12.000000000000
         C           -1.200988687630     4.969282121665    -0.376332280124    12.000000000000
         C            1.277953646089     7.772871216944    -0.378442780581    12.000000000000
         C            2.485353904999     7.087708658987    -0.380717268486    12.000000000000
         C            2.486124505192     5.654782583990    -0.387655017474    12.000000000000
         C            1.254078739919     4.956089887414    -0.376027075886    12.000000000000
         C            3.751710411681     7.763923924730    -0.380590417106    12.000000000000
         C            4.923561876460     7.078792550739    -0.382646897814    12.000000000000
         C            4.955603091600     5.643459237119    -0.382807310621    12.000000000000
         C            3.706797354479     4.941221982083    -0.377715750451    12.000000000000
         H           -3.658525317484     8.890839192885    -0.377629459389     1.007825032230
         H           -1.189217509482     8.874132861109    -0.373676048396     1.007825032230
         H            1.284290059161     8.860845209238    -0.374283956440     1.007825032230
         H            3.753537907074     8.851047052722    -0.379067892790     1.007825032230
         H            5.869954523482     7.613806608405    -0.383572264856     1.007825032230
         H           -5.788235887228     7.676313986684    -0.383240869928     1.007825032230
         C           -6.091978138422     4.993271787393    -0.384126174161    12.000000000000
         C           -6.128665660043     3.582591942548    -0.382924997132    12.000000000000
         C           -3.664583919771     3.564193953494    -0.385850091750    12.000000000000
         C           -4.894302384424     2.861092549650    -0.376681106764    12.000000000000
         C           -2.437339174623     2.847623430834    -0.374018313213    12.000000000000
         C           -1.209232037322     3.547898708728    -0.387697340005    12.000000000000
         C            1.247137392437     3.534692525179    -0.388505946410    12.000000000000
         C            0.015171859844     2.833123613055    -0.376821763186    12.000000000000
         C            2.467640992715     2.821301751005    -0.376721705062    12.000000000000
         C            3.702545294854     3.524671928174    -0.390209665905    12.000000000000
         C            6.144976206658     4.927584139881    -0.384040755832    12.000000000000
         C            6.166584179136     3.516596249692    -0.381874202396    12.000000000000
         C            4.924605778734     2.808419699104    -0.375335456159    12.000000000000
         H            7.089901329916     5.466899539973    -0.387802636682     1.007825032230
         H           -7.031045930827     5.542699726607    -0.388359389112     1.007825032230
         C           -7.339702220848     2.858423308329    -0.384552164574    12.000000000000
         C           -7.364886137784     1.470335145333    -0.382786626446    12.000000000000
         C           -4.903508788672     1.444438585909    -0.387502890638    12.000000000000
         C           -6.132261332336     0.739951130803    -0.375212846655    12.000000000000
         C           -3.676878980242     0.726708916423    -0.376875174238    12.000000000000
         C           -2.445660765791     1.429652907012    -0.387184884439    12.000000000000
         C           -1.223604861027     0.715336275384    -0.375755619908    12.000000000000
         C            0.007633689588     1.417394922987    -0.377289966190    12.000000000000
         C            1.231215628021     0.702128464337    -0.396116551847    12.000000000000
         C            2.460816920806     1.403303809875    -0.376612042956    12.000000000000
         C            3.684426074471     0.687210201962    -0.377440829233    12.000000000000
         C            4.918704721813     1.391746334939    -0.389842650868    12.000000000000
         C            7.369797898236     2.779493976934    -0.383634622188    12.000000000000
         C            7.380158486396     1.391229281605    -0.382087939343    12.000000000000
         C            6.139795359397     0.674130396950    -0.375759597531    12.000000000000
         H           -8.279194979072     3.407129814874    -0.388849716695     1.007825032230
         H            8.315109291754     3.318129870373    -0.387845197988     1.007825032230
         C           -8.591760117307     0.724844326794    -0.382446198829    12.000000000000
         C           -8.599028783429    -0.632628032479    -0.380323074246    12.000000000000
         C           -6.139817318844    -0.674124863404    -0.387312415581    12.000000000000
         C           -7.380188291863    -1.391254415832    -0.379896354040    12.000000000000
         C           -4.918688659982    -1.391743244281    -0.374971917431    12.000000000000
         C           -3.684442475410    -0.687225541986    -0.386004157496    12.000000000000
         C           -2.460821219973    -1.403333405075    -0.375461071306    12.000000000000
         C           -1.231166192046    -0.702162091131    -0.387581450098    12.000000000000
         C           -0.007573805113    -1.417407075662    -0.380124925795    12.000000000000
         C            1.223643536163    -0.715263603514    -0.370119303846    12.000000000000
         C            2.445666469606    -1.429631515257    -0.381869316606    12.000000000000
         C            3.676862523121    -0.726695657806    -0.386009901001    12.000000000000
         C            6.132244666694    -0.739967066100    -0.387537875213    12.000000000000
         C            4.903514965779    -1.444445746791    -0.373696800673    12.000000000000
         C            8.599010668965     0.632615640417    -0.382225823199    12.000000000000
         C            8.591741308375    -0.724839093444    -0.380489442937    12.000000000000
         C            7.364858584664    -1.470320891856    -0.380719619630    12.000000000000
         H           -9.528310151544     1.276859222942    -0.383916125793     1.007825032230
         H            9.541406794881     1.174584262194    -0.383277855460     1.007825032230
         C           -7.369842089494    -2.779533372184    -0.378088145618    12.000000000000
         C           -4.924603288776    -2.808425483592    -0.385819778054    12.000000000000
         C           -6.166626675393    -3.516640419076    -0.379517937895    12.000000000000
         C           -3.702514539430    -3.524669775371    -0.375495708868    12.000000000000
         C           -2.467651164839    -2.821314189055    -0.387540347225    12.000000000000
         C           -0.015137653833    -2.833129871650    -0.387258758716    12.000000000000
         C           -1.247126020952    -3.534720401814    -0.375694805307    12.000000000000
         C            1.209240889918    -3.547902904894    -0.373155775516    12.000000000000
         C            2.437331842429    -2.847629964426    -0.387295533827    12.000000000000
         C            4.894298164045    -2.861111194537    -0.386474793756    12.000000000000
         C            3.664611075316    -3.564208071783    -0.373595373815    12.000000000000
         C            6.128634835020    -3.582572283968    -0.380249531858    12.000000000000
         C            7.339668484970    -2.858401533621    -0.378734305776    12.000000000000
         H           -9.541453290984    -1.174551692915    -0.378953658073     1.007825032230
         H            9.528257688346    -1.276907300155    -0.379239635176     1.007825032230
         H           -8.315169223574    -3.318138079463    -0.373915917087     1.007825032230
         H            8.279150962767    -3.407129016144    -0.374394749793     1.007825032230
         C           -6.144998368428    -4.927635499034    -0.378191939835    12.000000000000
         C           -3.706787527723    -4.941249940368    -0.388012907923    12.000000000000
         C           -4.955594237727    -5.643482199745    -0.380045773278    12.000000000000
         C           -2.486125505952    -5.654773800660    -0.375073236878    12.000000000000
         C           -1.254062515205    -4.956110276252    -0.386248842864    12.000000000000
         C            1.201008394143    -4.969268614444    -0.385067718606    12.000000000000
         C           -0.030340854139    -5.669508529390    -0.377224518942    12.000000000000
         C            3.653745921603    -4.980732001665    -0.384309718858    12.000000000000
         C            2.425488516150    -5.681162861778    -0.374932788306    12.000000000000
         C            6.091961438086    -4.993246189637    -0.377955305184    12.000000000000
         C            4.894972264885    -5.696336647208    -0.379191501014    12.000000000000
         H           -7.089896567766    -5.466988068489    -0.373789178153     1.007825032230
         H            7.031051029475    -5.542646762583    -0.374375525421     1.007825032230
         C           -4.923549501924    -7.078809325928    -0.380600542183    12.000000000000
         C           -2.485346267963    -7.087716304180    -0.383110434619    12.000000000000
         C           -3.751690071504    -7.763935383887    -0.382915755693    12.000000000000
         C           -0.037953136713    -7.099453100720    -0.382894709471    12.000000000000
         C           -1.277960280127    -7.772892610917    -0.384879402233    12.000000000000
         C            2.409440141001    -7.114010238253    -0.382031508660    12.000000000000
         C            1.194745757428    -7.786173591813    -0.384183799542    12.000000000000
         C            4.847616872773    -7.131250336830    -0.379524694000    12.000000000000
         C            3.668467426150    -7.803776219194    -0.381873128364    12.000000000000
         H           -5.869944530142    -7.613818824292    -0.379056505317     1.007825032230
         H            5.788245445663    -7.676320415565    -0.378397574519     1.007825032230
         H           -3.753531119175    -8.851059795487    -0.384751670122     1.007825032230
         H           -1.284308585620    -8.860863618748    -0.389306786091     1.007825032230
         H            1.189217394970    -8.874148846840    -0.388276436232     1.007825032230
         H            3.658542435098    -8.890848860304    -0.383527669787     1.007825032230

  Charge       = 0
  Multiplicity = 1
  Basis Set: JUN-CC-PVDZ
    Blend: JUN-CC-PVDZ
  Basis Set: (JUN-CC-PVDZ AUX)
    Blend: JUN-CC-PVDZ-JKFIT

    Orbital Energies [Eh]
    ---------------------

    Doubly Occupied:

       1A    -11.263987     2A    -11.263666     3A    -11.263654
       4A    -11.263304     5A    -11.263300     6A    -11.263266
       7A    -11.263110     8A    -11.263096     9A    -11.263084
      10A    -11.262913    11A    -11.262761    12A    -11.262756
      13A    -11.262273    14A    -11.262270    15A    -11.262209
      16A    -11.262201    17A    -11.262140    18A    -11.262110
      19A    -11.262066    20A    -11.262027    21A    -11.262024
      22A    -11.261885    23A    -11.261883    24A    -11.261758
      25A    -11.261746    26A    -11.261729    27A    -11.261724
      28A    -11.261679    29A    -11.261671    30A    -11.261588
      31A    -11.261564    32A    -11.261560    33A    -11.261535
      34A    -11.261533    35A    -11.261514    36A    -11.261487
      37A    -11.261337    38A    -11.261328    39A    -11.261321
      40A    -11.261316    41A    -11.261309    42A    -11.261303
      43A    -11.261291    44A    -11.261276    45A    -11.261271
      46A    -11.261248    47A    -11.261244    48A    -11.261239
      49A    -11.261075    50A    -11.261045    51A    -11.261040
      52A    -11.260967    53A    -11.260958    54A    -11.260895
      55A    -11.259922    56A    -11.259909    57A    -11.259905
      58A    -11.259877    59A    -11.259875    60A    -11.259859
      61A    -11.259296    62A    -11.259271    63A    -11.259266
      64A    -11.259216    65A    -11.259211    66A    -11.259183
      67A    -11.258925    68A    -11.258907    69A    -11.258905
      70A    -11.258877    71A    -11.258875    72A    -11.258863
      73A    -11.254529    74A    -11.254528    75A    -11.254524
      76A    -11.254523    77A    -11.254520    78A    -11.254516
      79A    -11.253660    80A    -11.253659    81A    -11.253656
      82A    -11.253653    83A    -11.253652    84A    -11.253647
      85A    -11.253576    86A    -11.253575    87A    -11.253572
      88A    -11.253568    89A    -11.253567    90A    -11.253563
      91A    -11.253057    92A    -11.253055    93A    -11.253051
      94A    -11.253051    95A    -11.253047    96A    -11.253044
      97A     -1.253942    98A     -1.239001    99A     -1.238987
     100A     -1.220464   101A     -1.220457   102A     -1.215443
     103A     -1.201042   104A     -1.195605   105A     -1.188146
     106A     -1.188132   107A     -1.173765   108A     -1.173763
     109A     -1.155625   110A     -1.155620   111A     -1.152715
     112A     -1.144724   113A     -1.144721   114A     -1.128562
     115A     -1.114709   116A     -1.113163   117A     -1.112488
     118A     -1.112465   119A     -1.111620   120A     -1.088426
     121A     -1.088412   122A     -1.076963   123A     -1.076961
     124A     -1.067613   125A     -1.067582   126A     -1.064969
     127A     -1.046799   128A     -1.046790   129A     -1.040476
     130A     -1.038736   131A     -1.038734   132A     -1.025236
     133A     -1.021386   134A     -1.021328   135A     -1.007177
     136A     -1.006803   137A     -1.003794   138A     -1.000485
     139A     -1.000436   140A     -0.991076   141A     -0.970986
     142A     -0.970937   143A     -0.955883   144A     -0.955826
     145A     -0.905586   146A     -0.905550   147A     -0.905545
     148A     -0.905508   149A     -0.904325   150A     -0.892358
     151A     -0.892298   152A     -0.890359   153A     -0.890304
     154A     -0.889448   155A     -0.872216   156A     -0.869057
     157A     -0.851537   158A     -0.847857   159A     -0.847841
     160A     -0.845592   161A     -0.843008   162A     -0.834560
     163A     -0.834549   164A     -0.828117   165A     -0.828111
     166A     -0.784547   167A     -0.784537   168A     -0.783658
     169A     -0.783635   170A     -0.782281   171A     -0.782259
     172A     -0.782025   173A     -0.766986   174A     -0.760783
     175A     -0.750567   176A     -0.733483   177A     -0.727067
     178A     -0.727046   179A     -0.725075   180A     -0.724537
     181A     -0.724514   182A     -0.718487   183A     -0.713765
     184A     -0.713758   185A     -0.699572   186A     -0.699554
     187A     -0.686116   188A     -0.685951   189A     -0.685946
     190A     -0.682166   191A     -0.682158   192A     -0.678774
     193A     -0.653622   194A     -0.650867   195A     -0.650835
     196A     -0.649803   197A     -0.649791   198A     -0.649561
     199A     -0.640925   200A     -0.640888   201A     -0.640080
     202A     -0.639156   203A     -0.636015   204A     -0.635984
     205A     -0.629129   206A     -0.617754   207A     -0.615298
     208A     -0.615275   209A     -0.608794   210A     -0.608788
     211A     -0.599129   212A     -0.599119   213A     -0.598735
     214A     -0.598589   215A     -0.598575   216A     -0.598033
     217A     -0.595059   218A     -0.595047   219A     -0.594713
     220A     -0.594221   221A     -0.591946   222A     -0.591942
     223A     -0.587379   224A     -0.577792   225A     -0.577779
     226A     -0.575690   227A     -0.575681   228A     -0.573371
     229A     -0.569573   230A     -0.568136   231A     -0.568110
     232A     -0.566743   233A     -0.566733   234A     -0.560909
     235A     -0.558710   236A     -0.558682   237A     -0.558422
     238A     -0.554357   239A     -0.550561   240A     -0.547468
     241A     -0.544263   242A     -0.535011   243A     -0.534997
     244A     -0.533530   245A     -0.533510   246A     -0.528070
     247A     -0.528054   248A     -0.527778   249A     -0.517158
     250A     -0.517125   251A     -0.515350   252A     -0.515344
     253A     -0.509631   254A     -0.509618   255A     -0.498014
     256A     -0.496443   257A     -0.496411   258A     -0.493795
     259A     -0.493780   260A     -0.489429   261A     -0.481441
     262A     -0.477411   263A     -0.477411   264A     -0.473982
     265A     -0.469423   266A     -0.466510   267A     -0.466506
     268A     -0.458802   269A     -0.446669   270A     -0.446612
     271A     -0.441013   272A     -0.440766   273A     -0.440723
     274A     -0.434680   275A     -0.433898   276A     -0.407361
     277A     -0.407339   278A     -0.386401   279A     -0.386344
     280A     -0.385721   281A     -0.385721   282A     -0.383743
     283A     -0.354311   284A     -0.354290   285A     -0.350653
     286A     -0.338069   287A     -0.335561   288A     -0.335521
     289A     -0.332701   290A     -0.332700   291A     -0.307056
     292A     -0.301925   293A     -0.301865   294A     -0.300828
     295A     -0.286156   296A     -0.256460   297A     -0.253474
     298A     -0.253430   299A     -0.204246   300A     -0.204161

  @DF-RHF Final Energy: -3650.33989221084676

   => Energetics <=

    Nuclear Repulsion Energy =          15611.4211649754324753
    One-Electron Energy =              -36072.1491454286951921
    Two-Electron Energy =               16810.3880882424164156
    Total Energy =                      -3650.3398922108463012
 Dipole X            :         -0.0010843            0.0002112           -0.0008732
 Dipole Y            :          0.0044052           -0.0044281           -0.0000229
 Dipole Z            :        432.2184923         -432.2311956           -0.0127033
 Magnitude           :                                                    0.0127333

    SAPT Results
  --------------------------------------------------------------------------------------------------------
    Electrostatics                -11.02700676 [mEh]      -6.91955121 [kcal/mol]     -28.95140227 [kJ/mol]
      Elst10,r                    -11.02700676 [mEh]      -6.91955121 [kcal/mol]     -28.95140227 [kJ/mol]

    Exchange                        0.11347692 [mEh]       0.07120784 [kcal/mol]       0.29793361 [kJ/mol]
      Exch10                        0.11347692 [mEh]       0.07120784 [kcal/mol]       0.29793361 [kJ/mol]
      Exch10(S^2)                   0.11347563 [mEh]       0.07120704 [kcal/mol]       0.29793024 [kJ/mol]

    Induction                      -6.44633723 [mEh]      -4.04513768 [kcal/mol]     -16.92485607 [kJ/mol]
      Ind20,r                      -6.28042720 [mEh]      -3.94102757 [kcal/mol]     -16.48925934 [kJ/mol]
      Exch-Ind20,r                  0.02342431 [mEh]       0.01469897 [kcal/mol]       0.06150051 [kJ/mol]
      delta HF,r (2)               -0.18933434 [mEh]      -0.11880909 [kcal/mol]      -0.49709723 [kJ/mol]

    Dispersion                     -6.80582584 [mEh]      -4.27072019 [kcal/mol]     -17.86869328 [kJ/mol]
      Disp20                       -6.83071647 [mEh]      -4.28633930 [kcal/mol]     -17.93404362 [kJ/mol]
      Exch-Disp20                   0.02489063 [mEh]       0.01561911 [kcal/mol]       0.06535034 [kJ/mol]
      Disp20 (SS)                  -3.41535823 [mEh]      -2.14316965 [kcal/mol]      -8.96702181 [kJ/mol]
      Disp20 (OS)                  -3.41535823 [mEh]      -2.14316965 [kcal/mol]      -8.96702181 [kJ/mol]
      Exch-Disp20 (SS)              0.01693728 [mEh]       0.01062831 [kcal/mol]       0.04446883 [kJ/mol]
      Exch-Disp20 (OS)              0.00795335 [mEh]       0.00499080 [kcal/mol]       0.02088151 [kJ/mol]

  Total HF                        -17.35986708 [mEh]     -10.89348105 [kcal/mol]     -45.57832473 [kJ/mol]
  Total SAPT0                     -24.16569291 [mEh]     -15.16420124 [kcal/mol]     -63.44701801 [kJ/mol]

  Special recipe for scaled SAPT0 (see Manual):
    Electrostatics sSAPT0         -11.02700676 [mEh]      -6.91955121 [kcal/mol]     -28.95140227 [kJ/mol]
    Exchange sSAPT0                 0.11347692 [mEh]       0.07120784 [kcal/mol]       0.29793361 [kJ/mol]
    Induction sSAPT0               -6.44633644 [mEh]      -4.04513718 [kcal/mol]     -16.92485398 [kJ/mol]
    Dispersion sSAPT0              -6.80582499 [mEh]      -4.27071966 [kcal/mol]     -17.86869106 [kJ/mol]
  Total sSAPT0                    -24.16569128 [mEh]     -15.16420022 [kcal/mol]     -63.44701370 [kJ/mol]
  --------------------------------------------------------------------------------------------------------

*** Psi4 exiting successfully. Buy a developer a beer!
