                               Psi4 1.9 release

  ==> Input File <==

--------------------------------------------------------------------------
memory 32 GB # how much memory is available ! Depends on the nodes/cores !

molecule dimer {
# monomer A
+1 1    # Charge and multiplicity
C  0.680067 -1.215929 4.008042
C -0.680504 -1.215545 4.006014
N -1.085635  0.102779 4.005016
C  0.000108  0.884180 4.001740
C -2.477365  0.570758 3.955610
N  1.085222  0.102779 4.005016
H  1.385146 -2.033368 4.015870
H -1.385302 -2.033214 4.006204
H -0.000009  1.965269 3.999993
C  2.478117  0.567877 4.021908
H  2.490592  1.658130 3.994563
H  2.967028  0.220701 4.935354
H  3.001428  0.176405 3.146425
H -2.857359  0.490799 2.933539
H -3.082679 -0.042306 4.625694
H -2.518128  1.610706 4.282594
--
# monomer B
0 1     # Charge and multiplicity
C   1.22531237526482      0.70753866091955      0.00613762728373
C   1.22532433589282     -0.70753852257020     -0.00619318228664
C   -0.00000567409046      1.41496628609039     -0.00672680580738
C   2.45644923379077      1.41832825917820      0.00902448468363
C   0.00001130712078     -1.41497612663474      0.00347275151708
C   -1.22530046906674      0.70754574598412      0.00838914760619
C   2.45643823516184     -1.41832293188077     -0.00843833914343
C   -0.00000085313587      2.83680140328112     -0.00913035594137
C   3.68182717731192      0.70931832800114     -0.00808954934571
C   2.45512052870677      2.83422403348893     -0.00819210630633
C   3.68182158506039     -0.70933346742900      0.00798293467272
C   -1.22531311884624     -0.70752714354401     -0.00512042085974
C   1.22670006104402      3.54346985599427      0.00816696660346
C   0.00000526469929     -2.83678176723568      0.00832091913869
C   -2.45643555300670      1.41831729028492      0.00842454345199
C   2.45512389762097     -2.83422965658853      0.00783102630520
C   -1.22671388474763      3.54346943575023      0.00827029982280
C   4.91451777504333      1.42717324448953     -0.00160886631602
C   3.69315067131765      3.54279566454522     -0.00155906667985
C   -2.45643712022637     -1.41831290883911     -0.00846337726810
C   1.22670532178455     -3.54347386990643     -0.00780316414624
C   -2.45512491866593      2.83421703463423     -0.00818572995999
C   4.91452486062398     -1.42718653794377      0.00136387641845
C   1.22142509354026      4.97013443726031      0.00150231067809
C   4.89300870916237      2.82518837202648     -0.00039219795739
C   -1.22669652864725     -3.54347062507680     -0.00753595973677
C   -3.68181849668397      0.70932533873199     -0.00807686886569
C   3.69314758099218     -3.54280096939050      0.00148176697923
C   -1.22143177215231      4.97012866986289      0.00168580605083
C   6.13477145276790      0.68054831910577     -0.00083909176631
C   3.65678936045204      4.97295361556775     -0.00065042889723
C   -2.45512642789169     -2.83421472106065      0.00758666850712
C   -3.68181869921921     -0.70932533146830      0.00810055625144
C   4.89301309775526     -2.82519973363176      0.00021895393805
C   -0.00000059327114      5.65044773803267      0.00045449734393
C   6.13477559217374     -0.68055448207492      0.00042622874941
C   2.47813196269732      5.65357712333155      0.00063835075260
C   1.22142288457925     -4.97012668293268     -0.00129718634452
C   -3.69316190412301      3.54279732619245     -0.00139355922051
C   -1.22142804110313     -4.97011793159564     -0.00140994817719
C   -4.91452132810043      1.42717581899491     -0.00153192130862
C   3.65678749952045     -4.97295485423912      0.00080007163680
C   -2.47813805026426      5.65357479452875      0.00092287576113
C   -3.69314125872231     -3.54278984697859      0.00136564082345
C   -4.91451200321153     -1.42718062802730      0.00139857359209
C   -0.00000552908399     -5.65043791501335      0.00005899322272
C   -4.89302000425900      2.82518897091939     -0.00040227981744
C   2.47812647313991     -5.65357317188818     -0.00029052915548
C   -3.65679823041642      4.97295655404175     -0.00047374852278
C   -4.89299899901461     -2.82519139505969      0.00006491824035
C   -2.47812801824129     -5.65356579800621     -0.00056571680280
C   -6.13477002348955      0.68054913825639     -0.00086464346868
C   -3.65678835334731     -4.97294365097028      0.00058578382008
C   -6.13476456307132     -0.68055354348201      0.00040575295444
H   5.83528897565761      3.36927626695423      0.00396712770529
H   7.07385965258860      1.22821762089947     -0.00037744837300
H   4.60066374401555      5.51238117445323     -0.00014522814529
H   5.83528386714679     -3.36930568472863     -0.00423551337640
H   -0.00001167146422      6.73853104613662     -0.00389474766392
H   7.07386165167227     -1.22822657074368     -0.00008250934481
H   2.47331421164041      6.74068466339473      0.00017162982210
H   4.60066897122302     -5.51237575717576      0.00039007446835
H   -2.47331820069565      6.74068209160650      0.00047297644710
H   -0.00000978838621     -6.73852780445195      0.00458867820736
H   -5.83530143450167      3.36927132229595      0.00410314985360
H   2.47330840367253     -6.74068500242887      0.00027980126949
H   -4.60067436136587      5.51237839860371      0.00002010017831
H   -5.83527902699321     -3.36928859177951     -0.00451481925734
H   -2.47329986759855     -6.74067870613986     -0.00016951527498
H   -7.07385728692578      1.22822084484047     -0.00046143985387
H   -4.60067330624313     -5.51236229778631      0.00021776644566
H   -7.07385645456741     -1.22822025997701     -0.00017736581114

    units angstrom      # Angstroms are the default
    no_reorient         # Geometry fixed, default
    symmetry c1         # C1 symmetry, default
}

set {
    scf_type DF         # Density fitting, faster than exact integrals
    freeze_core True    # Freeze core electrons
    basis jun-cc-pVDZ   # Jun-cc-pVDZ basis set, recommended for sSAPT0 in https://doi.org/10.1063/1.4867135
}

energy('ssapt0')        # Compute sSAPT0 energy, includes also SAPT0
--------------------------------------------------------------------------

  //              Dimer HF             //
    Molecular point group: c1
  Charge       = 1
  Multiplicity = 1
  Basis Set: JUN-CC-PVDZ
    Blend: JUN-CC-PVDZ
  Basis Set: (JUN-CC-PVDZ AUX)
    Blend: JUN-CC-PVDZ-JKFIT
  @DF-RHF Final Energy: -2359.21258380240761
    Total Energy =                      -2359.2125838024076074
 Dipole X            :          0.0041115            0.0006313            0.0047428
 Dipole Y            :         -1.5815396            1.8864948            0.3049552
 Dipole Z            :        -15.6412842           20.7948034            5.1535192
 Magnitude           :                                                    5.1625362
  //            Monomer A HF           //
    Molecular point group: c1
  Multiplicity = 1
  Basis Set: JUN-CC-PVDZ
    Blend: JUN-CC-PVDZ
  Basis Set: (JUN-CC-PVDZ AUX)
    Blend: JUN-CC-PVDZ-JKFIT
  @DF-RHF Final Energy:  -303.29847430513064
    Total Energy =                       -303.2984743051306396
  //            Monomer B HF           //
    Molecular point group: c1

    Geometry (in Angstrom), charge = 0, multiplicity = 1:

       Center              X                  Y                   Z               Mass
    ------------   -----------------  -----------------  -----------------  -----------------
      Gh(C)           0.680066520158    -1.215933861162     3.499268723166    12.000000000000
      Gh(C)          -0.680504479842    -1.215549861162     3.497240723166    12.000000000000
      Gh(N)          -1.085635479842     0.102774138838     3.496242723166    14.003074004430
      Gh(C)           0.000107520158     0.884175138838     3.492966723166    12.000000000000
      Gh(C)          -2.477365479842     0.570753138838     3.446836723166    12.000000000000
      Gh(N)           1.085221520158     0.102774138838     3.496242723166    14.003074004430
      Gh(H)           1.385145520158    -2.033372861162     3.507096723166     1.007825032230
      Gh(H)          -1.385302479842    -2.033218861162     3.497430723166     1.007825032230
      Gh(H)          -0.000009479842     1.965264138838     3.491219723166     1.007825032230
      Gh(C)           2.478116520158     0.567872138838     3.513134723166    12.000000000000
      Gh(H)           2.490591520158     1.658125138838     3.485789723166     1.007825032230
      Gh(H)           2.967027520158     0.220696138838     4.426580723166     1.007825032230
      Gh(H)           3.001427520158     0.176400138838     2.637651723166     1.007825032230
      Gh(H)          -2.857359479842     0.490794138838     2.424765723166     1.007825032230
      Gh(H)          -3.082679479842    -0.042310861162     4.116920723166     1.007825032230
      Gh(H)          -2.518128479842     1.610701138838     3.773820723166     1.007825032230
         C            1.225311895423     0.707533799757    -0.502635649550    12.000000000000
         C            1.225323856051    -0.707543383733    -0.514966459121    12.000000000000
         C           -0.000006153932     1.414961424928    -0.515500082641    12.000000000000
         C            2.456448753949     1.418323398016    -0.499748792150    12.000000000000
         C            0.000010827279    -1.414980987797    -0.505300525317    12.000000000000
         C           -1.225300948908     0.707540884822    -0.500384129228    12.000000000000
         C            2.456437755320    -1.418327793043    -0.517211615977    12.000000000000
         C           -0.000001332978     2.836796542119    -0.517903632775    12.000000000000
         C            3.681826697470     0.709313466839    -0.516862826180    12.000000000000
         C            2.455120048865     2.834219172327    -0.516965383140    12.000000000000
         C            3.681821105219    -0.709338328591    -0.500790342161    12.000000000000
         C           -1.225313598688    -0.707532004706    -0.513893697694    12.000000000000
         C            1.226699581202     3.543464994832    -0.500606310230    12.000000000000
         C            0.000004784858    -2.836786628398    -0.500452357695    12.000000000000
         C           -2.456436032848     1.418312429123    -0.500348733382    12.000000000000
         C            2.455123417779    -2.834234517751    -0.500942250529    12.000000000000
         C           -1.226714364589     3.543464574588    -0.500502977011    12.000000000000
         C            4.914517295202     1.427168383327    -0.510382143150    12.000000000000
         C            3.693150191476     3.542790803383    -0.510332343514    12.000000000000
         C           -2.456437600068    -1.418317770001    -0.517236654102    12.000000000000
         C            1.226704841943    -3.543478731069    -0.516576440980    12.000000000000
         C           -2.455125398508     2.834212173472    -0.516959006794    12.000000000000
         C            4.914524380782    -1.427191399106    -0.507409400415    12.000000000000
         C            1.221424613699     4.970129576098    -0.507270966156    12.000000000000
         C            4.893008229321     2.825183510864    -0.509165474791    12.000000000000
         C           -1.226697008489    -3.543475486239    -0.516309236571    12.000000000000
         C           -3.681818976526     0.709320477570    -0.516850145700    12.000000000000
         C            3.693147101150    -3.542805830553    -0.507291509855    12.000000000000
         C           -1.221432251994     4.970123808701    -0.507087470783    12.000000000000
         C            6.134770972926     0.680543457943    -0.509612368600    12.000000000000
         C            3.656788880610     4.972948754405    -0.509423705731    12.000000000000
         C           -2.455126907733    -2.834219582223    -0.501186608327    12.000000000000
         C           -3.681819179061    -0.709330192631    -0.500672720582    12.000000000000
         C            4.893012617914    -2.825204594794    -0.508554322896    12.000000000000
         C           -0.000001073113     5.650442876870    -0.508318779490    12.000000000000
         C            6.134775112332    -0.680559343237    -0.508347048084    12.000000000000
         C            2.478131482856     5.653572262169    -0.508134926081    12.000000000000
         C            1.221422404738    -4.970131544095    -0.510070463178    12.000000000000
         C           -3.693162383965     3.542792465030    -0.510166836054    12.000000000000
         C           -1.221428520945    -4.970122792758    -0.510183225011    12.000000000000
         C           -4.914521807942     1.427170957833    -0.510305198142    12.000000000000
         C            3.656787019679    -4.972959715401    -0.507973205197    12.000000000000
         C           -2.478138530106     5.653569933366    -0.507850401073    12.000000000000
         C           -3.693141738564    -3.542794708141    -0.507407636010    12.000000000000
         C           -4.914512483053    -1.427185489190    -0.507374703242    12.000000000000
         C           -0.000006008926    -5.650442776176    -0.508714283611    12.000000000000
         C           -4.893020484101     2.825184109757    -0.509175556651    12.000000000000
         C            2.478125993298    -5.653578033051    -0.509063805989    12.000000000000
         C           -3.656798710258     4.972951692879    -0.509247025357    12.000000000000
         C           -4.892999478856    -2.825196256222    -0.508708358594    12.000000000000
         C           -2.478128498083    -5.653570659169    -0.509338993637    12.000000000000
         C           -6.134770503331     0.680544277094    -0.509637920303    12.000000000000
         C           -3.656788833189    -4.972948512133    -0.508187493014    12.000000000000
         C           -6.134765042913    -0.680558404644    -0.508367523879    12.000000000000
         H            5.835288495816     3.369271405792    -0.504806149129     1.007825032230
         H            7.073859172747     1.228212759737    -0.509150725207     1.007825032230
         H            4.600663264174     5.512376313291    -0.508918504979     1.007825032230
         H            5.835283387305    -3.369310545891    -0.513008790210     1.007825032230
         H           -0.000012151306     6.738526184974    -0.512668024498     1.007825032230
         H            7.073861171831    -1.228231431906    -0.508855786179     1.007825032230
         H            2.473313731799     6.740679802232    -0.508601647012     1.007825032230
         H            4.600668491381    -5.512380618338    -0.508383202366     1.007825032230
         H           -2.473318680537     6.740677230444    -0.508300300387     1.007825032230
         H           -0.000010268228    -6.738532665614    -0.504184598627     1.007825032230
         H           -5.835301914343     3.369266461134    -0.504670126980     1.007825032230
         H            2.473307923831    -6.740689863591    -0.508493475564     1.007825032230
         H           -4.600674841208     5.512373537441    -0.508753176656     1.007825032230
         H           -5.835279506835    -3.369293452942    -0.513288096091     1.007825032230
         H           -2.473300347440    -6.740683567302    -0.508942792109     1.007825032230
         H           -7.073857766768     1.228215983678    -0.509234716688     1.007825032230
         H           -4.600673786085    -5.512367158949    -0.508555510388     1.007825032230
         H           -7.073856934409    -1.228225121139    -0.508950642645     1.007825032230

  Charge       = 0
  Multiplicity = 1
  Basis Set: JUN-CC-PVDZ
    Blend: JUN-CC-PVDZ
  Basis Set: (JUN-CC-PVDZ AUX)
    Blend: JUN-CC-PVDZ-JKFIT

    Orbital Energies [Eh]
    ---------------------

    Doubly Occupied:

       1A    -11.260597     2A    -11.260161     3A    -11.260136
       4A    -11.259430     5A    -11.259397     6A    -11.259231
       7A    -11.259000     8A    -11.258942     9A    -11.258901
      10A    -11.258584    11A    -11.258581    12A    -11.258475
      13A    -11.258419    14A    -11.258410    15A    -11.258406
      16A    -11.258381    17A    -11.258361    18A    -11.258351
      19A    -11.258346    20A    -11.258335    21A    -11.258334
      22A    -11.258277    23A    -11.258268    24A    -11.258023
      25A    -11.257291    26A    -11.257250    27A    -11.257206
      28A    -11.257114    29A    -11.257072    30A    -11.257009
      31A    -11.256394    32A    -11.256349    33A    -11.256292
      34A    -11.256227    35A    -11.256182    36A    -11.256154
      37A    -11.252227    38A    -11.252223    39A    -11.252214
      40A    -11.252212    41A    -11.252194    42A    -11.252182
      43A    -11.251322    44A    -11.251311    45A    -11.251309
      46A    -11.251306    47A    -11.251297    48A    -11.251291
      49A    -11.250788    50A    -11.250784    51A    -11.250776
      52A    -11.250772    53A    -11.250756    54A    -11.250744
      55A     -1.243916    56A     -1.219695    57A     -1.219671
      58A     -1.189423    59A     -1.189413    60A     -1.180801
      61A     -1.157452    62A     -1.148857    63A     -1.135366
      64A     -1.135340    65A     -1.113082    66A     -1.113080
      67A     -1.082301    68A     -1.082288    69A     -1.078463
      70A     -1.065876    71A     -1.065868    72A     -1.039280
      73A     -1.024126    74A     -1.021627    75A     -1.021568
      76A     -1.017617    77A     -1.012690    78A     -0.986894
      79A     -0.986838    80A     -0.961767    81A     -0.961710
      82A     -0.894166    83A     -0.894144    84A     -0.887775
      85A     -0.886022    86A     -0.885981    87A     -0.881250
      88A     -0.881205    89A     -0.861781    90A     -0.837309
      91A     -0.818078    92A     -0.816464    93A     -0.811990
      94A     -0.811988    95A     -0.794575    96A     -0.794562
      97A     -0.746464    98A     -0.744714    99A     -0.733269
     100A     -0.733255   101A     -0.732059   102A     -0.732039
     103A     -0.716358   104A     -0.698859   105A     -0.698825
     106A     -0.693460   107A     -0.693418   108A     -0.661109
     109A     -0.652967   110A     -0.651000   111A     -0.650139
     112A     -0.650132   113A     -0.639244   114A     -0.639221
     115A     -0.629570   116A     -0.627374   117A     -0.627366
     118A     -0.606417   119A     -0.605721   120A     -0.601511
     121A     -0.599623   122A     -0.599560   123A     -0.593491
     124A     -0.591063   125A     -0.591029   126A     -0.585175
     127A     -0.576437   128A     -0.576357   129A     -0.567215
     130A     -0.567194   131A     -0.565804   132A     -0.565798
     133A     -0.558574   134A     -0.554727   135A     -0.554720
     136A     -0.538475   137A     -0.538472   138A     -0.538194
     139A     -0.538188   140A     -0.529583   141A     -0.528134
     142A     -0.522753   143A     -0.522721   144A     -0.500386
     145A     -0.495566   146A     -0.493110   147A     -0.487787
     148A     -0.484925   149A     -0.481613   150A     -0.481612
     151A     -0.470301   152A     -0.470285   153A     -0.450850
     154A     -0.450784   155A     -0.439015   156A     -0.439006
     157A     -0.404708   158A     -0.404664   159A     -0.403318
     160A     -0.375361   161A     -0.375357   162A     -0.349075
     163A     -0.337550   164A     -0.336501   165A     -0.336461
     166A     -0.311035   167A     -0.298032   168A     -0.284280
     169A     -0.284225   170A     -0.224846   171A     -0.224786

  @DF-RHF Final Energy: -2055.89511336844907

   => Energetics <=

    Nuclear Repulsion Energy =           6452.5568002797772351
    One-Electron Energy =              -15636.5175586635577929
    Two-Electron Energy =                7128.0656450153310288
    Total Energy =                      -2055.8951133684495289
 Dipole X            :          0.0003645           -0.0000085            0.0003560
 Dipole Y            :          0.0036940           -0.0028843            0.0008097
 Dipole Z            :        328.8080838         -328.8146594           -0.0065756
 Magnitude           :                                                    0.0066348

    SAPT Results
  --------------------------------------------------------------------------------------------------------
    Electrostatics                -14.18068541 [mEh]      -8.89851444 [kcal/mol]     -37.23138441 [kJ/mol]
      Elst10,r                    -14.18068541 [mEh]      -8.89851444 [kcal/mol]     -37.23138441 [kJ/mol]

    Exchange                        3.84610053 [mEh]       2.41346452 [kcal/mol]      10.09793556 [kJ/mol]
      Exch10                        3.84610053 [mEh]       2.41346452 [kcal/mol]      10.09793556 [kJ/mol]
      Exch10(S^2)                   3.84466707 [mEh]       2.41256501 [kcal/mol]      10.09417200 [kJ/mol]

    Induction                      -8.66154395 [mEh]      -5.43520089 [kcal/mol]     -22.74088051 [kJ/mol]
      Ind20,r                      -8.95560261 [mEh]      -5.61972548 [kcal/mol]     -23.51293142 [kJ/mol]
      Exch-Ind20,r                  0.98276698 [mEh]       0.61669559 [kcal/mol]       2.58025434 [kJ/mol]
      delta HF,r (2)               -0.68870832 [mEh]      -0.43217099 [kcal/mol]      -1.80820344 [kJ/mol]

    Dispersion                    -17.34482283 [mEh]     -10.88404065 [kcal/mol]     -45.53882607 [kJ/mol]
      Disp20                      -17.88733846 [mEh]     -11.22447435 [kcal/mol]     -46.96320067 [kJ/mol]
      Exch-Disp20                   0.54251563 [mEh]       0.34043370 [kcal/mol]       1.42437460 [kJ/mol]
      Disp20 (SS)                  -8.94366923 [mEh]      -5.61223717 [kcal/mol]     -23.48160033 [kJ/mol]
      Disp20 (OS)                  -8.94366923 [mEh]      -5.61223717 [kcal/mol]     -23.48160033 [kJ/mol]
      Exch-Disp20 (SS)              0.34160887 [mEh]       0.21436280 [kcal/mol]       0.89689397 [kJ/mol]
      Exch-Disp20 (OS)              0.20090676 [mEh]       0.12607090 [kcal/mol]       0.52748063 [kJ/mol]

  Total HF                        -18.99612883 [mEh]     -11.92025080 [kcal/mol]     -49.87432937 [kJ/mol]
  Total SAPT0                     -36.34095166 [mEh]     -22.80429145 [kcal/mol]     -95.41315543 [kJ/mol]

  Special recipe for scaled SAPT0 (see Manual):
    Electrostatics sSAPT0         -14.18068541 [mEh]      -8.89851444 [kcal/mol]     -37.23138441 [kJ/mol]
    Exchange sSAPT0                 3.84610053 [mEh]       2.41346452 [kcal/mol]      10.09793556 [kJ/mol]
    Induction sSAPT0               -8.66044428 [mEh]      -5.43451083 [kcal/mol]     -22.73799333 [kJ/mol]
    Dispersion sSAPT0             -17.34421578 [mEh]     -10.88365972 [kcal/mol]     -45.53723226 [kJ/mol]
  Total sSAPT0                    -36.33924494 [mEh]     -22.80322047 [kcal/mol]     -95.40867444 [kJ/mol]
  --------------------------------------------------------------------------------------------------------

*** Psi4 exiting successfully. Buy a developer a beer!
