                               Psi4 1.9 release

  ==> Input File <==

--------------------------------------------------------------------------
memory 64 GB # how much memory is available ! Depends on the nodes/cores !

molecule dimer {
# monomer A
+1 1    # Charge and multiplicity
C  0.680067 1.417258 -9.015929
C -0.680504 1.419286 -9.015545
N -1.085635 1.420284 -7.697221
C  0.000108 1.423560 -6.915820
C -2.477365 1.469690 -7.229242
N  1.085222 1.420284 -7.697221
H  1.385146 1.409430 -9.833368
H -1.385302 1.419096 -9.833214
H -0.000009 1.425307 -5.834731
C  2.478117 1.403392 -7.232123
H  2.490592 1.430737 -6.141870
H  2.967028 0.489946 -7.579299
H  3.001428 2.278875 -7.623595
H -2.857359 2.491761 -7.309201
H -3.082679 0.799606 -7.842306
H -2.518128 1.142706 -6.189294
--
# monomer B
0 1     # Charge and multiplicity
C   -3.66844126402057      7.80375217008252      0.00190004133558
C   -4.84759871934653      7.13124183134024     -0.00046653359696
C   -4.89495929917518      5.69633040353158     -0.00103944469517
C   -3.65374067877320      4.98073034095895      0.00662099703436
C   -2.40942512149445      7.11398103667468      0.00209438359570
C   -2.42547734410473      5.68112195090346     -0.00491050527438
C   -1.19474401643570      7.78614419430947      0.00356656413763
C   0.03795902893699      7.09942164575698      0.00139585983271
C   0.03033258741920      5.66948955970466     -0.00408752508301
C   -1.20098450790502      4.96927034791531      0.00488220885047
C   1.27795782581485      7.77285944319479      0.00277170839332
C   2.48535808472416      7.08769688523756      0.00049722048857
C   2.48612868491717      5.65477081024076     -0.00644052849921
C   1.25408291964399      4.95607811366431      0.00518741308898
C   3.75171459140595      7.76391215098033      0.00062407186893
C   4.92356605618520      7.07878077698995     -0.00143240883900
C   4.95560727132542      5.64344746336949     -0.00159282164606
C   3.70680153420475      4.94121020833308      0.00349873852374
H   -3.65852113775815      8.89082741913536      0.00358502958574
H   -1.18921332975660      8.87412108735996      0.00753844057883
H   1.28429423888630      8.86083343548850      0.00693053253426
H   3.75354208679975      8.85103527897216      0.00214659618464
H   5.86995870320703      7.61379483465560     -0.00235777588134
H   -5.78823170750226      7.67630221293400     -0.00202638095293
C   -6.09197395869619      4.99326001364347     -0.00291168518608
C   -6.12866148031747      3.58258016879823     -0.00171050815740
C   -3.66457974004527      3.56418217974434     -0.00463560277484
C   -4.89429820469869      2.86108077590057      0.00453338221034
C   -2.43733499489796      2.84761165708481      0.00719617576166
C   -1.20922785759670      3.54788693497833     -0.00648285103018
C   1.24714157216223      3.53468075142962     -0.00729145743546
C   0.01517603956900      2.83311183930540      0.00439272578912
C   2.46764517244071      2.82128997725533      0.00449278391269
C   3.70254947457969      3.52466015442405     -0.00899517692985
C   6.14498038638375      4.92757236613191     -0.00282626685777
C   6.16658835886151      3.51658447594213     -0.00065971342101
C   4.92460995845939      2.80840792535402      0.00587903281610
H   7.08990550964105      5.46688776622306     -0.00658814770723
H   -7.03104175110130      5.54268795285765     -0.00714490013730
C   -7.33969804112295      2.85841153457957     -0.00333767559888
C   -7.36488195805880      1.47032337158330     -0.00157213747140
C   -4.90350460894690      1.44442681216000     -0.00628840166334
C   -6.13225715261081      0.73993935705394      0.00600164231964
C   -3.67687480051673      0.72669714267312      0.00433931473643
C   -2.44565658606518      1.42964113326212     -0.00597039546461
C   -1.22360068130162      0.71532450163492      0.00545886906656
C   0.00763786931376      1.41738314923765      0.00392452278437
C   1.23121980774686      0.70211669058719     -0.01490206287210
C   2.46082110053113      1.40329203612573      0.00460244601878
C   3.68443025419614      0.68719842821222      0.00377365974158
C   4.91870890153864      1.39173456118907     -0.00862816189375
C   7.36980207796101      2.77948220318441     -0.00242013321349
C   7.38016266612146      1.39121750785509     -0.00087345036788
C   6.13979953912259      0.67411862320065      0.00545489144369
H   -8.27919079934664      3.40711804112415     -0.00763522772059
H   8.31511347147953      3.31811809662368     -0.00663070901292
C   -8.59175593758115      0.72483255304480     -0.00123170985383
C   -8.59902460370342     -0.63263980622873      0.00089141472904
C   -6.13981313911873     -0.67413663715361     -0.00609792660607
C   -7.38018411213749     -1.39126618958160      0.00131813493501
C   -4.91868448025621     -1.39175501803000      0.00624257154343
C   -3.68443829568458     -0.68723731573599     -0.00478966852105
C   -2.46081704024768     -1.40334517882457      0.00575341766833
C   -1.23116201232071     -0.70217386488055     -0.00636696112346
C   -0.00756962538737     -1.41741884941102      0.00108956317991
C   1.22364771588843     -0.71527537726392      0.01109518512883
C   2.44567064933149     -1.42964328900682     -0.00065482763106
C   3.67686670284649     -0.72670743155550     -0.00479541202602
C   6.13224884641929     -0.73997883984993     -0.00632338623858
C   4.90351914550401     -1.44445752054090      0.00751768830159
C   8.59901484869081      0.63260386666793     -0.00101133422380
C   8.59174548810050     -0.72485086719319      0.00072504603735
C   7.36486276438985     -1.47033266560598      0.00049486934466
H   -9.52830597181814      1.27684744919284     -0.00270163681798
H   9.54141097460619      1.17457248844457     -0.00206336648518
C   -7.36983790976868     -2.77954514593389      0.00312634335708
C   -4.92459910905015     -2.80843725734101     -0.00460528907921
C   -6.16662249566744     -3.51665219282533      0.00169655107992
C   -3.70251035970491     -3.52468154912026      0.00571878010666
C   -2.46764698511392     -2.82132596280400     -0.00632585824990
C   -0.01513347410770     -2.83314164539971     -0.00604426974092
C   -1.24712184122656     -3.53473217556300      0.00551968366725
C   1.20924506964357     -3.54791467864352      0.00805871345849
C   2.43733602215464     -2.84764173817541     -0.00608104485234
C   4.89430234377080     -2.86112296828604     -0.00526030478103
C   3.66461525504104     -3.56421984553201      0.00761911515957
C   6.12863901474565     -3.58258405771778      0.00096495711699
C   7.33967266469532     -2.85841330737039      0.00248018319869
H   -9.54144911125902     -1.17456346666430      0.00226083090216
H   9.52826186807155     -1.27691907390448      0.00197485379837
H   -8.31516504384864     -3.31814985321231      0.00729857188773
H   8.27915514249207     -3.40714078989363      0.00681973918158
C   -6.14499418870218     -4.92764727278338      0.00302254913999
C   -3.70678334799751     -4.94126171411716     -0.00679841894792
C   -4.95559005800169     -5.64349397349412      0.00116871569699
C   -2.48612132622665     -5.65478557440947      0.00614125209662
C   -1.25405833548005     -4.95612205000132     -0.00503435388927
C   1.20101257386816     -4.96928038819302     -0.00385322963129
C   -0.03033667441341     -5.66952030313900      0.00398997003238
C   3.65375010132847     -4.98074377541453     -0.00309522988330
C   2.42549269587528     -5.68117463552727      0.00628170066869
C   6.09196561781097     -4.99325796338655      0.00325918379042
C   4.89497644461045     -5.69634842095790      0.00202298796027
H   -7.08989238804069     -5.46699984223871      0.00742531082125
H   7.03105520920009     -5.54265853633254      0.00683896355417
C   -4.92354532219813     -7.07882109967734      0.00061394679214
C   -2.48534208823777     -7.08772807792913     -0.00189594564379
C   -3.75168589177895     -7.76394715763627     -0.00170126671874
C   -0.03794895698805     -7.09946487446944     -0.00168022049625
C   -1.27795610040136     -7.77290438466689     -0.00366491325785
C   2.40944432072629     -7.11402201200282     -0.00081701968533
C   1.19474993715296     -7.78618536556242     -0.00296931056689
C   4.84762105249800     -7.13126211057943      0.00168979497423
C   3.66847160587561     -7.80378799294376     -0.00065863938960
H   -5.86994035041618     -7.61383059804164      0.00215798365757
H   5.78824962538815     -7.67633218931421      0.00281691445618
H   -3.75352693944918     -8.85107156923607     -0.00353718114765
H   -1.28430440589466     -8.86087539249706     -0.00809229711623
H   1.18922157469537     -8.87416062058945     -0.00706194725726
H   3.65854661482387     -8.89086063405326     -0.00231318081200

    units angstrom      # Angstroms are the default
    no_reorient         # Geometry fixed, default
    symmetry c1         # C1 symmetry, default
}

set {
    scf_type DF         # Density fitting, faster than exact integrals
    freeze_core True    # Freeze core electrons
    basis jun-cc-pVDZ   # Jun-cc-pVDZ basis set, recommended for sSAPT0 in https://doi.org/10.1063/1.4867135
}

energy('ssapt0')        # Compute sSAPT0 energy, includes also SAPT0
--------------------------------------------------------------------------

  //              Dimer HF             //
    Molecular point group: c1
  Charge       = 1
  Multiplicity = 1
  Basis Set: JUN-CC-PVDZ
    Blend: JUN-CC-PVDZ
  Basis Set: (JUN-CC-PVDZ AUX)
    Blend: JUN-CC-PVDZ-JKFIT
  @DF-RHF Final Energy: -3953.64509530524356
    Total Energy =                      -3953.6450953052444675
 Dipole X            :         -0.0023164            0.0004804           -0.0018360
 Dipole Y            :         -6.7889812            8.7122315            1.9232503
 Dipole Z            :         33.3009841          -45.4847583          -12.1837742
 Magnitude           :                                                   12.3346362
  //            Monomer A HF           //
    Molecular point group: c1
  Multiplicity = 1
  Basis Set: JUN-CC-PVDZ
    Blend: JUN-CC-PVDZ
  Basis Set: (JUN-CC-PVDZ AUX)
    Blend: JUN-CC-PVDZ-JKFIT
  @DF-RHF Final Energy:  -303.29721090244408
    Total Energy =                       -303.2972109024440783
  //            Monomer B HF           //
    Molecular point group: c1

    Geometry (in Angstrom), charge = 0, multiplicity = 1:

       Center              X                  Y                   Z               Mass
    ------------   -----------------  -----------------  -----------------  -----------------
      Gh(C)           0.680062820275     1.308604348936    -8.421245028230    12.000000000000
      Gh(C)          -0.680508179725     1.310632348936    -8.420861028230    12.000000000000
      Gh(N)          -1.085639179725     1.311630348936    -7.102537028230    14.003074004430
      Gh(C)           0.000103820275     1.314906348936    -6.321136028230    12.000000000000
      Gh(C)          -2.477369179725     1.361036348936    -6.634558028230    12.000000000000
      Gh(N)           1.085217820275     1.311630348936    -7.102537028230    14.003074004430
      Gh(H)           1.385141820275     1.300776348936    -9.238684028230     1.007825032230
      Gh(H)          -1.385306179725     1.310442348936    -9.238530028230     1.007825032230
      Gh(H)          -0.000013179725     1.316653348936    -5.240047028230     1.007825032230
      Gh(C)           2.478112820275     1.294738348936    -6.637439028230    12.000000000000
      Gh(H)           2.490587820275     1.322083348936    -5.547186028230     1.007825032230
      Gh(H)           2.967023820275     0.381292348936    -6.984615028230     1.007825032230
      Gh(H)           3.001423820275     2.170221348936    -7.028911028230     1.007825032230
      Gh(H)          -2.857363179725     2.383107348936    -6.714517028230     1.007825032230
      Gh(H)          -3.082683179725     0.690952348936    -7.247622028230     1.007825032230
      Gh(H)          -2.518132179725     1.034052348936    -5.594610028230     1.007825032230
         C           -3.668445443746     7.695098519018     0.596584013106    12.000000000000
         C           -4.847602899072     7.022588180276     0.594217438173    12.000000000000
         C           -4.894963478901     5.587676752467     0.593644527075    12.000000000000
         C           -3.653744858499     4.872076689895     0.601304968805    12.000000000000
         C           -2.409429301220     7.005327385610     0.596778355366    12.000000000000
         C           -2.425481523830     5.572468299839     0.589773466496    12.000000000000
         C           -1.194748196161     7.677490543245     0.598250535908    12.000000000000
         C            0.037954849212     6.990767994693     0.596079831603    12.000000000000
         C            0.030328407694     5.560835908640     0.590596446687    12.000000000000
         C           -1.200988687630     4.860616696851     0.599566180621    12.000000000000
         C            1.277953646089     7.664205792130     0.597455680164    12.000000000000
         C            2.485353904999     6.979043234173     0.595181192259    12.000000000000
         C            2.486124505192     5.546117159176     0.588243443271    12.000000000000
         C            1.254078739919     4.847424462600     0.599871384859    12.000000000000
         C            3.751710411681     7.655258499916     0.595308043639    12.000000000000
         C            4.923561876460     6.970127125926     0.593251562931    12.000000000000
         C            4.955603091600     5.534793812305     0.593091150124    12.000000000000
         C            3.706797354479     4.832556557269     0.598182710294    12.000000000000
         H           -3.658525317484     8.782173768071     0.598269001356     1.007825032230
         H           -1.189217509482     8.765467436296     0.602222412349     1.007825032230
         H            1.284290059161     8.752179784424     0.601614504305     1.007825032230
         H            3.753537907074     8.742381627908     0.596830567955     1.007825032230
         H            5.869954523482     7.505141183591     0.592326195889     1.007825032230
         H           -5.788235887228     7.567648561870     0.592657590817     1.007825032230
         C           -6.091978138422     4.884606362579     0.591772286584    12.000000000000
         C           -6.128665660043     3.473926517734     0.592973463613    12.000000000000
         C           -3.664583919771     3.455528528680     0.590048368995    12.000000000000
         C           -4.894302384424     2.752427124836     0.599217353981    12.000000000000
         C           -2.437339174623     2.738958006020     0.601880147532    12.000000000000
         C           -1.209232037322     3.439233283914     0.588201120740    12.000000000000
         C            1.247137392437     3.426027100365     0.587392514335    12.000000000000
         C            0.015171859844     2.724458188241     0.599076697559    12.000000000000
         C            2.467640992715     2.712636326191     0.599176755683    12.000000000000
         C            3.702545294854     3.416006503360     0.585688794840    12.000000000000
         C            6.144976206658     4.818918715067     0.591857704913    12.000000000000
         C            6.166584179136     3.407930824878     0.594024258349    12.000000000000
         C            4.924605778734     2.699754274290     0.600563004586    12.000000000000
         H            7.089901329916     5.358234115159     0.588095824063     1.007825032230
         H           -7.031045930827     5.434034301793     0.587539071633     1.007825032230
         C           -7.339702220848     2.749757883515     0.591346296171    12.000000000000
         C           -7.364886137784     1.361669720519     0.593111834299    12.000000000000
         C           -4.903508788672     1.335773161096     0.588395570107    12.000000000000
         C           -6.132261332336     0.631285705989     0.600685614090    12.000000000000
         C           -3.676878980242     0.618043491609     0.599023286507    12.000000000000
         C           -2.445660765791     1.320987482198     0.588713576306    12.000000000000
         C           -1.223604861027     0.606670850570     0.600142840837    12.000000000000
         C            0.007633689588     1.308729498173     0.598608494555    12.000000000000
         C            1.231215628021     0.593463039523     0.579781908898    12.000000000000
         C            2.460816920806     1.294638385061     0.599286417789    12.000000000000
         C            3.684426074471     0.578544777148     0.598457631512    12.000000000000
         C            4.918704721813     1.283080910125     0.586055809877    12.000000000000
         C            7.369797898236     2.670828552120     0.592263838557    12.000000000000
         C            7.380158486396     1.282563856791     0.593810521402    12.000000000000
         C            6.139795359397     0.565464972136     0.600138863214    12.000000000000
         H           -8.279194979072     3.298464390060     0.587048744050     1.007825032230
         H            8.315109291754     3.209464445559     0.588053262757     1.007825032230
         C           -8.591760117307     0.616178901980     0.593452261916    12.000000000000
         C           -8.599028783429    -0.741293457293     0.595575386499    12.000000000000
         C           -6.139817318844    -0.782790288218     0.588586045164    12.000000000000
         C           -7.380188291863    -1.499919840646     0.596002106705    12.000000000000
         C           -4.918688659982    -1.500408669094     0.600926543314    12.000000000000
         C           -3.684442475410    -0.795890966800     0.589894303249    12.000000000000
         C           -2.460821219973    -1.511998829889     0.600437389439    12.000000000000
         C           -1.231166192046    -0.810827515945     0.588317010647    12.000000000000
         C           -0.007573805113    -1.526072500475     0.595773534950    12.000000000000
         C            1.223643536163    -0.823929028328     0.605779156899    12.000000000000
         C            2.445666469606    -1.538296940071     0.594029144139    12.000000000000
         C            3.676862523121    -0.835361082620     0.589888559744    12.000000000000
         C            6.132244666694    -0.848632490914     0.588360585532    12.000000000000
         C            4.903514965779    -1.553111171605     0.602201660072    12.000000000000
         C            8.599010668965     0.523950215603     0.593672637546    12.000000000000
         C            8.591741308375    -0.833504518258     0.595409017808    12.000000000000
         C            7.364858584664    -1.578986316670     0.595178841115    12.000000000000
         H           -9.528310151544     1.168193798128     0.591982334952     1.007825032230
         H            9.541406794881     1.065918837380     0.592620605285     1.007825032230
         C           -7.369842089494    -2.888198796998     0.597810315127    12.000000000000
         C           -4.924603288776    -2.917090908405     0.590078682691    12.000000000000
         C           -6.166626675393    -3.625305843890     0.596380522850    12.000000000000
         C           -3.702514539430    -3.633335200185     0.600402751877    12.000000000000
         C           -2.467651164839    -2.929979613868     0.588358113520    12.000000000000
         C           -0.015137653833    -2.941795296464     0.588639702029    12.000000000000
         C           -1.247126020952    -3.643385826627     0.600203655438    12.000000000000
         C            1.209240889918    -3.656568329708     0.602742685229    12.000000000000
         C            2.437331842429    -2.956295389240     0.588602926918    12.000000000000
         C            4.894298164045    -2.969776619350     0.589423666989    12.000000000000
         C            3.664611075316    -3.672873496596     0.602303086930    12.000000000000
         C            6.128634835020    -3.691237708782     0.595648928887    12.000000000000
         C            7.339668484970    -2.967066958435     0.597164154969    12.000000000000
         H           -9.541453290984    -1.283217117729     0.596944802672     1.007825032230
         H            9.528257688346    -1.385572724969     0.596658825569     1.007825032230
         H           -8.315169223574    -3.426803504277     0.601982543658     1.007825032230
         H            8.279150962767    -3.515794440958     0.601503710952     1.007825032230
         C           -6.144998368428    -5.036300923848     0.597706520910    12.000000000000
         C           -3.706787527723    -5.049915365182     0.587885552822    12.000000000000
         C           -4.955594237727    -5.752147624559     0.595852687467    12.000000000000
         C           -2.486125505952    -5.763439225474     0.600825223867    12.000000000000
         C           -1.254062515205    -5.064775701066     0.589649617881    12.000000000000
         C            1.201008394143    -5.077934039257     0.590830742139    12.000000000000
         C           -0.030340854139    -5.778173954203     0.598673941803    12.000000000000
         C            3.653745921603    -5.089397426479     0.591588741887    12.000000000000
         C            2.425488516150    -5.789828286592     0.600965672439    12.000000000000
         C            6.091961438086    -5.101911614451     0.597943155561    12.000000000000
         C            4.894972264885    -5.805002072022     0.596706959731    12.000000000000
         H           -7.089896567766    -5.575653493303     0.602109282592     1.007825032230
         H            7.031051029475    -5.651312187397     0.601522935324     1.007825032230
         C           -4.923549501924    -7.187474750742     0.595297918562    12.000000000000
         C           -2.485346267963    -7.196381728994     0.592788026126    12.000000000000
         C           -3.751690071504    -7.872600808701     0.592982705052    12.000000000000
         C           -0.037953136713    -7.208118525534     0.593003751274    12.000000000000
         C           -1.277960280127    -7.881558035731     0.591019058512    12.000000000000
         C            2.409440141001    -7.222675663067     0.593866952085    12.000000000000
         C            1.194745757428    -7.894839016627     0.591714661203    12.000000000000
         C            4.847616872773    -7.239915761644     0.596373766745    12.000000000000
         C            3.668467426150    -7.912441644008     0.594025332381    12.000000000000
         H           -5.869944530142    -7.722484249106     0.596841955428     1.007825032230
         H            5.788245445663    -7.784985840379     0.597500886226     1.007825032230
         H           -3.753531119175    -8.959725220301     0.591146790623     1.007825032230
         H           -1.284308585620    -8.969529043562     0.586591674654     1.007825032230
         H            1.189217394970    -8.982814271654     0.587622024513     1.007825032230
         H            3.658542435098    -8.999514285118     0.592370790958     1.007825032230

  Charge       = 0
  Multiplicity = 1
  Basis Set: JUN-CC-PVDZ
    Blend: JUN-CC-PVDZ
  Basis Set: (JUN-CC-PVDZ AUX)
    Blend: JUN-CC-PVDZ-JKFIT

    Orbital Energies [Eh]
    ---------------------

    Doubly Occupied:

       1A    -11.264049     2A    -11.263736     3A    -11.263733
       4A    -11.263393     5A    -11.263390     6A    -11.263355
       7A    -11.263198     8A    -11.263172     9A    -11.263169
      10A    -11.263012    11A    -11.262853    12A    -11.262848
      13A    -11.262370    14A    -11.262367    15A    -11.262293
      16A    -11.262292    17A    -11.262242    18A    -11.262207
      19A    -11.262162    20A    -11.262124    21A    -11.262122
      22A    -11.261968    23A    -11.261963    24A    -11.261845
      25A    -11.261830    26A    -11.261816    27A    -11.261812
      28A    -11.261765    29A    -11.261757    30A    -11.261684
      31A    -11.261658    32A    -11.261655    33A    -11.261629
      34A    -11.261627    35A    -11.261606    36A    -11.261558
      37A    -11.261420    38A    -11.261409    39A    -11.261402
      40A    -11.261395    41A    -11.261390    42A    -11.261382
      43A    -11.261378    44A    -11.261363    45A    -11.261358
      46A    -11.261336    47A    -11.261332    48A    -11.261327
      49A    -11.261174    50A    -11.261143    51A    -11.261140
      52A    -11.261060    53A    -11.261059    54A    -11.260988
      55A    -11.260021    56A    -11.260007    57A    -11.260004
      58A    -11.259976    59A    -11.259974    60A    -11.259957
      61A    -11.259398    62A    -11.259373    63A    -11.259371
      64A    -11.259318    65A    -11.259316    66A    -11.259287
      67A    -11.259025    68A    -11.259007    69A    -11.259005
      70A    -11.258977    71A    -11.258976    72A    -11.258964
      73A    -11.254593    74A    -11.254593    75A    -11.254591
      76A    -11.254589    77A    -11.254583    78A    -11.254581
      79A    -11.253745    80A    -11.253743    81A    -11.253741
      82A    -11.253739    83A    -11.253737    84A    -11.253730
      85A    -11.253660    86A    -11.253659    87A    -11.253656
      88A    -11.253655    89A    -11.253653    90A    -11.253646
      91A    -11.253121    92A    -11.253121    93A    -11.253119
      94A    -11.253117    95A    -11.253110    96A    -11.253109
      97A     -1.254143    98A     -1.239148    99A     -1.239147
     100A     -1.220590   101A     -1.220586   102A     -1.215617
     103A     -1.201151   104A     -1.195721   105A     -1.188307
     106A     -1.188306   107A     -1.173871   108A     -1.173868
     109A     -1.155780   110A     -1.155776   111A     -1.152886
     112A     -1.144824   113A     -1.144821   114A     -1.128703
     115A     -1.114862   116A     -1.113266   117A     -1.112647
     118A     -1.112633   119A     -1.111714   120A     -1.088565
     121A     -1.088550   122A     -1.077062   123A     -1.077060
     124A     -1.067758   125A     -1.067729   126A     -1.065129
     127A     -1.046924   128A     -1.046916   129A     -1.040612
     130A     -1.038834   131A     -1.038834   132A     -1.025397
     133A     -1.021569   134A     -1.021518   135A     -1.007295
     136A     -1.006939   137A     -1.003914   138A     -1.000639
     139A     -1.000591   140A     -0.991170   141A     -0.971128
     142A     -0.971079   143A     -0.955995   144A     -0.955939
     145A     -0.905768   146A     -0.905726   147A     -0.905642
     148A     -0.905601   149A     -0.904524   150A     -0.892538
     151A     -0.892479   152A     -0.890523   153A     -0.890466
     154A     -0.889597   155A     -0.872324   156A     -0.869138
     157A     -0.851653   158A     -0.848018   159A     -0.847996
     160A     -0.845754   161A     -0.843158   162A     -0.834688
     163A     -0.834675   164A     -0.828216   165A     -0.828213
     166A     -0.784678   167A     -0.784667   168A     -0.783805
     169A     -0.783779   170A     -0.782424   171A     -0.782404
     172A     -0.782188   173A     -0.767113   174A     -0.760960
     175A     -0.750736   176A     -0.733589   177A     -0.727195
     178A     -0.727181   179A     -0.725220   180A     -0.724662
     181A     -0.724643   182A     -0.718664   183A     -0.713926
     184A     -0.713920   185A     -0.699698   186A     -0.699686
     187A     -0.686297   188A     -0.686063   189A     -0.686061
     190A     -0.682286   191A     -0.682276   192A     -0.678921
     193A     -0.653751   194A     -0.650999   195A     -0.650969
     196A     -0.649973   197A     -0.649958   198A     -0.649671
     199A     -0.641093   200A     -0.641066   201A     -0.640196
     202A     -0.639260   203A     -0.636165   204A     -0.636139
     205A     -0.629266   206A     -0.617671   207A     -0.615405
     208A     -0.615385   209A     -0.608917   210A     -0.608911
     211A     -0.599185   212A     -0.599146   213A     -0.598875
     214A     -0.598749   215A     -0.598723   216A     -0.598202
     217A     -0.595172   218A     -0.595159   219A     -0.594844
     220A     -0.594406   221A     -0.592092   222A     -0.592089
     223A     -0.587562   224A     -0.577879   225A     -0.577869
     226A     -0.575735   227A     -0.575731   228A     -0.573492
     229A     -0.569571   230A     -0.568300   231A     -0.568276
     232A     -0.566881   233A     -0.566871   234A     -0.560998
     235A     -0.558859   236A     -0.558840   237A     -0.558515
     238A     -0.554492   239A     -0.550629   240A     -0.547557
     241A     -0.544340   242A     -0.535038   243A     -0.535002
     244A     -0.533655   245A     -0.533633   246A     -0.528182
     247A     -0.528167   248A     -0.527959   249A     -0.517320
     250A     -0.517286   251A     -0.515424   252A     -0.515419
     253A     -0.509744   254A     -0.509728   255A     -0.498139
     256A     -0.496571   257A     -0.496545   258A     -0.493842
     259A     -0.493834   260A     -0.489476   261A     -0.481553
     262A     -0.477487   263A     -0.477484   264A     -0.474105
     265A     -0.469574   266A     -0.466651   267A     -0.466647
     268A     -0.458876   269A     -0.446862   270A     -0.446802
     271A     -0.441100   272A     -0.440826   273A     -0.440801
     274A     -0.434756   275A     -0.433972   276A     -0.407448
     277A     -0.407424   278A     -0.386485   279A     -0.386437
     280A     -0.385797   281A     -0.385796   282A     -0.383829
     283A     -0.354399   284A     -0.354382   285A     -0.350737
     286A     -0.338168   287A     -0.335668   288A     -0.335600
     289A     -0.332779   290A     -0.332773   291A     -0.307163
     292A     -0.302026   293A     -0.301964   294A     -0.300912
     295A     -0.286242   296A     -0.256527   297A     -0.253577
     298A     -0.253525   299A     -0.204335   300A     -0.204247

  @DF-RHF Final Energy: -3650.33767927242934

   => Energetics <=

    Nuclear Repulsion Energy =          15611.4211649754306563
    One-Electron Energy =              -36072.0781968388109817
    Two-Electron Energy =               16810.3193525909518939
    Total Energy =                      -3650.3376792724302504
 Dipole X            :         -0.0009294            0.0002112           -0.0007182
 Dipole Y            :        123.2131218         -123.2131634           -0.0000416
 Dipole Z            :       -674.2740732          674.2772946            0.0032215
 Magnitude           :                                                    0.0033008

    SAPT Results
  --------------------------------------------------------------------------------------------------------
    Electrostatics                 -7.55083144 [mEh]      -4.73821826 [kcal/mol]     -19.82470520 [kJ/mol]
      Elst10,r                     -7.55083144 [mEh]      -4.73821826 [kcal/mol]     -19.82470520 [kJ/mol]

    Exchange                       -0.00023615 [mEh]      -0.00014819 [kcal/mol]      -0.00062002 [kJ/mol]
      Exch10                       -0.00023615 [mEh]      -0.00014819 [kcal/mol]      -0.00062002 [kJ/mol]
      Exch10(S^2)                  -0.00023615 [mEh]      -0.00014819 [kcal/mol]      -0.00062002 [kJ/mol]

    Induction                      -2.65406278 [mEh]      -1.66544954 [kcal/mol]      -6.96824087 [kJ/mol]
      Ind20,r                      -2.61481897 [mEh]      -1.64082368 [kcal/mol]      -6.86520626 [kJ/mol]
      Exch-Ind20,r                  0.00021594 [mEh]       0.00013550 [kcal/mol]       0.00056694 [kJ/mol]
      delta HF,r (2)               -0.03945975 [mEh]      -0.02476137 [kcal/mol]      -0.10360155 [kJ/mol]

    Dispersion                     -1.09274767 [mEh]      -0.68570951 [kcal/mol]      -2.86900861 [kJ/mol]
      Disp20                       -1.09282116 [mEh]      -0.68575563 [kcal/mol]      -2.86920157 [kJ/mol]
      Exch-Disp20                   0.00007349 [mEh]       0.00004612 [kcal/mol]       0.00019296 [kJ/mol]
      Disp20 (SS)                  -0.54641058 [mEh]      -0.34287782 [kcal/mol]      -1.43460078 [kJ/mol]
      Disp20 (OS)                  -0.54641058 [mEh]      -0.34287782 [kcal/mol]      -1.43460078 [kJ/mol]
      Exch-Disp20 (SS)              0.00005489 [mEh]       0.00003444 [kcal/mol]       0.00014410 [kJ/mol]
      Exch-Disp20 (OS)              0.00001861 [mEh]       0.00001168 [kcal/mol]       0.00004886 [kJ/mol]

  Total HF                        -10.20513037 [mEh]      -6.40381599 [kcal/mol]     -26.79356610 [kJ/mol]
  Total SAPT0                     -11.29787804 [mEh]      -7.08952550 [kcal/mol]     -29.66257470 [kJ/mol]

  Special recipe for scaled SAPT0 (see Manual):
    Electrostatics sSAPT0          -7.55083144 [mEh]      -4.73821826 [kcal/mol]     -19.82470520 [kJ/mol]
    Exchange sSAPT0                -0.00023615 [mEh]      -0.00014819 [kcal/mol]      -0.00062002 [kJ/mol]
    Induction sSAPT0               -2.65406278 [mEh]      -1.66544954 [kcal/mol]      -6.96824087 [kJ/mol]
    Dispersion sSAPT0              -1.09274767 [mEh]      -0.68570951 [kcal/mol]      -2.86900861 [kJ/mol]
  Total sSAPT0                    -11.29787804 [mEh]      -7.08952550 [kcal/mol]     -29.66257470 [kJ/mol]
  --------------------------------------------------------------------------------------------------------

*** Psi4 exiting successfully. Buy a developer a beer!
