                               Psi4 1.9 release

  ==> Input File <==

--------------------------------------------------------------------------
memory 32 GB # how much memory is available ! Depends on the nodes/cores !

molecule dimer {
# monomer A
-1 1    # Charge and multiplicity
B -1.977592e-04  2.742729e-04 3.200034
F  1.123153e-16  1.430594e-17 4.612819
F  1.147860e+00  6.757812e-01 2.728893
F  1.191806e-02 -1.332011e+00 2.729095
F -1.159666e+00  6.560735e-01 2.729174
--
# monomer B
0 1     # Charge and multiplicity
C   1.22531237526482      0.70753866091955      0.00613762728373
C   1.22532433589282     -0.70753852257020     -0.00619318228664
C   -0.00000567409046      1.41496628609039     -0.00672680580738
C   2.45644923379077      1.41832825917820      0.00902448468363
C   0.00001130712078     -1.41497612663474      0.00347275151708
C   -1.22530046906674      0.70754574598412      0.00838914760619
C   2.45643823516184     -1.41832293188077     -0.00843833914343
C   -0.00000085313587      2.83680140328112     -0.00913035594137
C   3.68182717731192      0.70931832800114     -0.00808954934571
C   2.45512052870677      2.83422403348893     -0.00819210630633
C   3.68182158506039     -0.70933346742900      0.00798293467272
C   -1.22531311884624     -0.70752714354401     -0.00512042085974
C   1.22670006104402      3.54346985599427      0.00816696660346
C   0.00000526469929     -2.83678176723568      0.00832091913869
C   -2.45643555300670      1.41831729028492      0.00842454345199
C   2.45512389762097     -2.83422965658853      0.00783102630520
C   -1.22671388474763      3.54346943575023      0.00827029982280
C   4.91451777504333      1.42717324448953     -0.00160886631602
C   3.69315067131765      3.54279566454522     -0.00155906667985
C   -2.45643712022637     -1.41831290883911     -0.00846337726810
C   1.22670532178455     -3.54347386990643     -0.00780316414624
C   -2.45512491866593      2.83421703463423     -0.00818572995999
C   4.91452486062398     -1.42718653794377      0.00136387641845
C   1.22142509354026      4.97013443726031      0.00150231067809
C   4.89300870916237      2.82518837202648     -0.00039219795739
C   -1.22669652864725     -3.54347062507680     -0.00753595973677
C   -3.68181849668397      0.70932533873199     -0.00807686886569
C   3.69314758099218     -3.54280096939050      0.00148176697923
C   -1.22143177215231      4.97012866986289      0.00168580605083
C   6.13477145276790      0.68054831910577     -0.00083909176631
C   3.65678936045204      4.97295361556775     -0.00065042889723
C   -2.45512642789169     -2.83421472106065      0.00758666850712
C   -3.68181869921921     -0.70932533146830      0.00810055625144
C   4.89301309775526     -2.82519973363176      0.00021895393805
C   -0.00000059327114      5.65044773803267      0.00045449734393
C   6.13477559217374     -0.68055448207492      0.00042622874941
C   2.47813196269732      5.65357712333155      0.00063835075260
C   1.22142288457925     -4.97012668293268     -0.00129718634452
C   -3.69316190412301      3.54279732619245     -0.00139355922051
C   -1.22142804110313     -4.97011793159564     -0.00140994817719
C   -4.91452132810043      1.42717581899491     -0.00153192130862
C   3.65678749952045     -4.97295485423912      0.00080007163680
C   -2.47813805026426      5.65357479452875      0.00092287576113
C   -3.69314125872231     -3.54278984697859      0.00136564082345
C   -4.91451200321153     -1.42718062802730      0.00139857359209
C   -0.00000552908399     -5.65043791501335      0.00005899322272
C   -4.89302000425900      2.82518897091939     -0.00040227981744
C   2.47812647313991     -5.65357317188818     -0.00029052915548
C   -3.65679823041642      4.97295655404175     -0.00047374852278
C   -4.89299899901461     -2.82519139505969      0.00006491824035
C   -2.47812801824129     -5.65356579800621     -0.00056571680280
C   -6.13477002348955      0.68054913825639     -0.00086464346868
C   -3.65678835334731     -4.97294365097028      0.00058578382008
C   -6.13476456307132     -0.68055354348201      0.00040575295444
H   5.83528897565761      3.36927626695423      0.00396712770529
H   7.07385965258860      1.22821762089947     -0.00037744837300
H   4.60066374401555      5.51238117445323     -0.00014522814529
H   5.83528386714679     -3.36930568472863     -0.00423551337640
H   -0.00001167146422      6.73853104613662     -0.00389474766392
H   7.07386165167227     -1.22822657074368     -0.00008250934481
H   2.47331421164041      6.74068466339473      0.00017162982210
H   4.60066897122302     -5.51237575717576      0.00039007446835
H   -2.47331820069565      6.74068209160650      0.00047297644710
H   -0.00000978838621     -6.73852780445195      0.00458867820736
H   -5.83530143450167      3.36927132229595      0.00410314985360
H   2.47330840367253     -6.74068500242887      0.00027980126949
H   -4.60067436136587      5.51237839860371      0.00002010017831
H   -5.83527902699321     -3.36928859177951     -0.00451481925734
H   -2.47329986759855     -6.74067870613986     -0.00016951527498
H   -7.07385728692578      1.22822084484047     -0.00046143985387
H   -4.60067330624313     -5.51236229778631      0.00021776644566
H   -7.07385645456741     -1.22822025997701     -0.00017736581114

    units angstrom      # Angstroms are the default
    no_reorient         # Geometry fixed, default
    symmetry c1         # C1 symmetry, default
}

set {
    scf_type DF         # Density fitting, faster than exact integrals
    freeze_core True    # Freeze core electrons
    basis jun-cc-pVDZ   # Jun-cc-pVDZ basis set, recommended for sSAPT0 in https://doi.org/10.1063/1.4867135
}

energy('ssapt0')        # Compute sSAPT0 energy, includes also SAPT0
--------------------------------------------------------------------------

  //              Dimer HF             //
    Molecular point group: c1
  Charge       = -1
  Multiplicity = 1
  Basis Set: JUN-CC-PVDZ
    Blend: JUN-CC-PVDZ
  Basis Set: (JUN-CC-PVDZ AUX)
    Blend: JUN-CC-PVDZ-JKFIT
  @DF-RHF Final Energy: -2478.65489442407443
    Total Energy =                      -2478.6548944240748824
 Dipole X            :         -0.0006149            0.0000481           -0.0005668
 Dipole Y            :          0.0011704           -0.0001453            0.0010251
 Dipole Z            :         15.8183620          -19.6169118           -3.7985498
 Magnitude           :                                                    3.7985500
  //            Monomer A HF           //
    Molecular point group: c1
  Multiplicity = 1
  Basis Set: JUN-CC-PVDZ
    Blend: JUN-CC-PVDZ
  Basis Set: (JUN-CC-PVDZ AUX)
    Blend: JUN-CC-PVDZ-JKFIT
  @DF-RHF Final Energy:  -422.77410581897055
    Total Energy =                       -422.7741058189705541
  //            Monomer B HF           //
    Molecular point group: c1

    Geometry (in Angstrom), charge = 0, multiplicity = 1:

       Center              X                  Y                   Z               Mass
    ------------   -----------------  -----------------  -----------------  -----------------
      Gh(B)          -0.000198161052     0.000273808717     2.830373273991    11.009305360000
      Gh(F)          -0.000000401852    -0.000000464183     4.243158273991    18.998403162730
      Gh(F)           1.147859598148     0.675780735817     2.359232273991    18.998403162730
      Gh(F)           0.011917658148    -1.332011464183     2.359434273991    18.998403162730
      Gh(F)          -1.159666401852     0.656073035817     2.359513273991    18.998403162730
         C            1.225311973413     0.707538196736    -0.363523098725    12.000000000000
         C            1.225323934041    -0.707538986754    -0.375853908296    12.000000000000
         C           -0.000006075942     1.414965821907    -0.376387531816    12.000000000000
         C            2.456448831939     1.418327794995    -0.360636241325    12.000000000000
         C            0.000010905269    -1.414976590818    -0.366187974492    12.000000000000
         C           -1.225300870919     0.707545281801    -0.361271578403    12.000000000000
         C            2.456437833310    -1.418323396064    -0.378099065152    12.000000000000
         C           -0.000001254988     2.836800939098    -0.378791081950    12.000000000000
         C            3.681826775460     0.709317863818    -0.377750275355    12.000000000000
         C            2.455120126855     2.834223569306    -0.377852832315    12.000000000000
         C            3.681821183209    -0.709333931612    -0.361677791336    12.000000000000
         C           -1.225313520698    -0.707527607727    -0.374781146869    12.000000000000
         C            1.226699659192     3.543469391811    -0.361493759405    12.000000000000
         C            0.000004862847    -2.836782231419    -0.361339806870    12.000000000000
         C           -2.456435954859     1.418316826102    -0.361236182557    12.000000000000
         C            2.455123495769    -2.834230120772    -0.361829699704    12.000000000000
         C           -1.226714286599     3.543468971567    -0.361390426186    12.000000000000
         C            4.914517373191     1.427172780306    -0.371269592325    12.000000000000
         C            3.693150269466     3.542795200362    -0.371219792689    12.000000000000
         C           -2.456437522078    -1.418313373022    -0.378124103277    12.000000000000
         C            1.226704919933    -3.543474334090    -0.377463890155    12.000000000000
         C           -2.455125320518     2.834216570451    -0.377846455969    12.000000000000
         C            4.914524458772    -1.427187002127    -0.368296849590    12.000000000000
         C            1.221424691688     4.970133973077    -0.368158415331    12.000000000000
         C            4.893008307311     2.825187907843    -0.370052923966    12.000000000000
         C           -1.226696930499    -3.543471089260    -0.377196685746    12.000000000000
         C           -3.681818898536     0.709324874549    -0.377737594875    12.000000000000
         C            3.693147179140    -3.542801433574    -0.368178959030    12.000000000000
         C           -1.221432174004     4.970128205680    -0.367974919958    12.000000000000
         C            6.134771050916     0.680547854922    -0.370499817775    12.000000000000
         C            3.656788958600     4.972953151384    -0.370311154906    12.000000000000
         C           -2.455126829744    -2.834215185244    -0.362074057502    12.000000000000
         C           -3.681819101071    -0.709325795652    -0.361560169757    12.000000000000
         C            4.893012695903    -2.825200197815    -0.369441772071    12.000000000000
         C           -0.000000995123     5.650447273849    -0.369206228665    12.000000000000
         C            6.134775190322    -0.680554946258    -0.369234497259    12.000000000000
         C            2.478131560845     5.653576659148    -0.369022375256    12.000000000000
         C            1.221422482727    -4.970127147116    -0.370957912353    12.000000000000
         C           -3.693162305975     3.542796862009    -0.371054285229    12.000000000000
         C           -1.221428442955    -4.970118395779    -0.371070674186    12.000000000000
         C           -4.914521729952     1.427175354812    -0.371192647317    12.000000000000
         C            3.656787097669    -4.972955318422    -0.368860654372    12.000000000000
         C           -2.478138452116     5.653574330345    -0.368737850248    12.000000000000
         C           -3.693141660574    -3.542790311162    -0.368295085185    12.000000000000
         C           -4.914512405063    -1.427181092211    -0.368262152417    12.000000000000
         C           -0.000005930936    -5.650438379197    -0.369601732786    12.000000000000
         C           -4.893020406111     2.825188506736    -0.370063005826    12.000000000000
         C            2.478126071288    -5.653573636072    -0.369951255164    12.000000000000
         C           -3.656798632268     4.972956089858    -0.370134474532    12.000000000000
         C           -4.892999400866    -2.825191859243    -0.369595807769    12.000000000000
         C           -2.478128420093    -5.653566262190    -0.370226442812    12.000000000000
         C           -6.134770425341     0.680548674073    -0.370525369478    12.000000000000
         C           -3.656788755199    -4.972944115154    -0.369074942189    12.000000000000
         C           -6.134764964923    -0.680554007665    -0.369254973054    12.000000000000
         H            5.835288573806     3.369275802771    -0.365693598304     1.007825032230
         H            7.073859250737     1.228217156716    -0.370038174382     1.007825032230
         H            4.600663342164     5.512380710270    -0.369805954154     1.007825032230
         H            5.835283465295    -3.369306148912    -0.373896239385     1.007825032230
         H           -0.000012073316     6.738530581953    -0.373555473673     1.007825032230
         H            7.073861249820    -1.228227034927    -0.369743235354     1.007825032230
         H            2.473313809789     6.740684199211    -0.369489096187     1.007825032230
         H            4.600668569371    -5.512376221359    -0.369270651541     1.007825032230
         H           -2.473318602548     6.740681627423    -0.369187749562     1.007825032230
         H           -0.000010190238    -6.738528268635    -0.365072047802     1.007825032230
         H           -5.835301836354     3.369270858113    -0.365557576155     1.007825032230
         H            2.473308001821    -6.740685466612    -0.369380924739     1.007825032230
         H           -4.600674763218     5.512377934420    -0.369640625831     1.007825032230
         H           -5.835279428845    -3.369289055963    -0.374175545266     1.007825032230
         H           -2.473300269450    -6.740679170323    -0.369830241284     1.007825032230
         H           -7.073857688778     1.228220380657    -0.370122165863     1.007825032230
         H           -4.600673708095    -5.512362761970    -0.369442959563     1.007825032230
         H           -7.073856856419    -1.228220724160    -0.369838091820     1.007825032230

  Charge       = 0
  Multiplicity = 1
  Basis Set: JUN-CC-PVDZ
    Blend: JUN-CC-PVDZ
  Basis Set: (JUN-CC-PVDZ AUX)
    Blend: JUN-CC-PVDZ-JKFIT

    Orbital Energies [Eh]
    ---------------------

    Doubly Occupied:

       1A    -11.260674     2A    -11.260223     3A    -11.260223
       4A    -11.259475     5A    -11.259475     6A    -11.259290
       7A    -11.259047     8A    -11.258975     9A    -11.258974
      10A    -11.258639    11A    -11.258636    12A    -11.258522
      13A    -11.258468    14A    -11.258463    15A    -11.258462
      16A    -11.258422    17A    -11.258416    18A    -11.258398
      19A    -11.258398    20A    -11.258396    21A    -11.258393
      22A    -11.258328    23A    -11.258322    24A    -11.258092
      25A    -11.257322    26A    -11.257263    27A    -11.257263
      28A    -11.257133    29A    -11.257133    30A    -11.257052
      31A    -11.256419    32A    -11.256351    33A    -11.256350
      34A    -11.256243    35A    -11.256243    36A    -11.256197
      37A    -11.252271    38A    -11.252270    39A    -11.252269
      40A    -11.252268    41A    -11.252266    42A    -11.252264
      43A    -11.251370    44A    -11.251367    45A    -11.251366
      46A    -11.251360    47A    -11.251360    48A    -11.251356
      49A    -11.250833    50A    -11.250832    51A    -11.250830
      52A    -11.250828    53A    -11.250826    54A    -11.250825
      55A     -1.244003    56A     -1.219774    57A     -1.219772
      58A     -1.189509    59A     -1.189502    60A     -1.180881
      61A     -1.157534    62A     -1.148948    63A     -1.135440
      64A     -1.135434    65A     -1.113168    66A     -1.113164
      67A     -1.082393    68A     -1.082386    69A     -1.078550
      70A     -1.065960    71A     -1.065956    72A     -1.039371
      73A     -1.024225    74A     -1.021703    75A     -1.021660
      76A     -1.017708    77A     -1.012780    78A     -0.986980
      79A     -0.986934    80A     -0.961853    81A     -0.961804
      82A     -0.894268    83A     -0.894241    84A     -0.887872
      85A     -0.886125    86A     -0.886067    87A     -0.881350
      88A     -0.881302    89A     -0.861876    90A     -0.837401
      91A     -0.818176    92A     -0.816560    93A     -0.812091
      94A     -0.812081    95A     -0.794667    96A     -0.794657
      97A     -0.746572    98A     -0.744815    99A     -0.733359
     100A     -0.733350   101A     -0.732157   102A     -0.732133
     103A     -0.716453   104A     -0.698948   105A     -0.698937
     106A     -0.693544   107A     -0.693528   108A     -0.661205
     109A     -0.653046   110A     -0.651098   111A     -0.650230
     112A     -0.650224   113A     -0.639335   114A     -0.639333
     115A     -0.629669   116A     -0.627476   117A     -0.627460
     118A     -0.606440   119A     -0.605801   120A     -0.601616
     121A     -0.599702   122A     -0.599671   123A     -0.593601
     124A     -0.591147   125A     -0.591136   126A     -0.585266
     127A     -0.576398   128A     -0.576392   129A     -0.567306
     130A     -0.567291   131A     -0.565905   132A     -0.565886
     133A     -0.558666   134A     -0.554815   135A     -0.554808
     136A     -0.538569   137A     -0.538568   138A     -0.538202
     139A     -0.538197   140A     -0.529688   141A     -0.528170
     142A     -0.522839   143A     -0.522833   144A     -0.500480
     145A     -0.495590   146A     -0.493207   147A     -0.487832
     148A     -0.485031   149A     -0.481717   150A     -0.481709
     151A     -0.470343   152A     -0.470325   153A     -0.450957
     154A     -0.450878   155A     -0.439059   156A     -0.439049
     157A     -0.404729   158A     -0.404707   159A     -0.403359
     160A     -0.375406   161A     -0.375403   162A     -0.349118
     163A     -0.337612   164A     -0.336538   165A     -0.336481
     166A     -0.311046   167A     -0.298108   168A     -0.284325
     169A     -0.284271   170A     -0.224882   171A     -0.224816

  @DF-RHF Final Energy: -2055.89420176622389

   => Energetics <=

    Nuclear Repulsion Energy =           6452.5568002797772351
    One-Electron Energy =              -15636.4913173000823008
    Two-Electron Energy =                7128.0403152540811789
    Total Energy =                      -2055.8942017662238868
 Dipole X            :          0.0000096            0.0000419            0.0000515
 Dipole Y            :          0.0000689           -0.0000426            0.0000263
 Dipole Z            :        238.9102818         -238.9081187            0.0021631
 Magnitude           :                                                    0.0021638

    SAPT Results
  --------------------------------------------------------------------------------------------------------
    Electrostatics                 -0.45041479 [mEh]      -0.28263955 [kcal/mol]      -1.18256387 [kJ/mol]
      Elst10,r                     -0.45041479 [mEh]      -0.28263955 [kcal/mol]      -1.18256387 [kJ/mol]

    Exchange                       35.33478551 [mEh]      22.17291266 [kcal/mol]      92.77146659 [kJ/mol]
      Exch10                       35.33478551 [mEh]      22.17291266 [kcal/mol]      92.77146659 [kJ/mol]
      Exch10(S^2)                  35.19272516 [mEh]      22.08376844 [kcal/mol]      92.39848717 [kJ/mol]

    Induction                     -21.47120960 [mEh]     -13.47338744 [kcal/mol]     -56.37265305 [kJ/mol]
      Ind20,r                     -32.09923794 [mEh]     -20.14257591 [kcal/mol]     -84.27653761 [kJ/mol]
      Exch-Ind20,r                 13.41584971 [mEh]       8.41857279 [kcal/mol]      35.22330857 [kJ/mol]
      delta HF,r (2)               -2.78782137 [mEh]      -1.74938432 [kcal/mol]      -7.31942400 [kJ/mol]

    Dispersion                    -17.56890312 [mEh]     -11.02465315 [kcal/mol]     -46.12714879 [kJ/mol]
      Disp20                      -21.58039549 [mEh]     -13.54190262 [kcal/mol]     -56.65932054 [kJ/mol]
      Exch-Disp20                   4.01149236 [mEh]       2.51724946 [kcal/mol]      10.53217175 [kJ/mol]
      Disp20 (SS)                 -10.79019774 [mEh]      -6.77095131 [kcal/mol]     -28.32966027 [kJ/mol]
      Disp20 (OS)                 -10.79019774 [mEh]      -6.77095131 [kcal/mol]     -28.32966027 [kJ/mol]
      Exch-Disp20 (SS)              2.26483157 [mEh]       1.42120327 [kcal/mol]       5.94631446 [kJ/mol]
      Exch-Disp20 (OS)              1.74666080 [mEh]       1.09604620 [kcal/mol]       4.58585729 [kJ/mol]

  Total HF                         13.41316112 [mEh]       8.41688568 [kcal/mol]      35.21624967 [kJ/mol]
  Total SAPT0                      -4.15574200 [mEh]      -2.60776748 [kcal/mol]     -10.91089913 [kJ/mol]

  Special recipe for scaled SAPT0 (see Manual):
    Electrostatics sSAPT0          -0.45041479 [mEh]      -0.28263955 [kcal/mol]      -1.18256387 [kJ/mol]
    Exchange sSAPT0                35.33478551 [mEh]      22.17291266 [kcal/mol]      92.77146659 [kJ/mol]
    Induction sSAPT0              -21.30808805 [mEh]     -13.37102712 [kcal/mol]     -55.94437746 [kJ/mol]
    Dispersion sSAPT0             -17.52012791 [mEh]     -10.99404625 [kcal/mol]     -45.99908950 [kJ/mol]
  Total sSAPT0                     -3.94384524 [mEh]      -2.47480025 [kcal/mol]     -10.35456424 [kJ/mol]
  --------------------------------------------------------------------------------------------------------

*** Psi4 exiting successfully. Buy a developer a beer!
