                               Psi4 1.9 release

  ==> Input File <==

--------------------------------------------------------------------------
memory 32 GB # how much memory is available ! Depends on the nodes/cores !

molecule dimer {
# monomer A
-1 1    # Charge and multiplicity
B -1.977592e-04  2.742729e-04 7.000034
F  1.123153e-16  1.430594e-17 8.412819
F  1.147860e+00  6.757812e-01 6.528893
F  1.191806e-02 -1.332011e+00 6.529095
F -1.159666e+00  6.560735e-01 6.529174
--
# monomer B
0 1     # Charge and multiplicity
C   1.22531237526482      0.70753866091955      0.00613762728373
C   1.22532433589282     -0.70753852257020     -0.00619318228664
C   -0.00000567409046      1.41496628609039     -0.00672680580738
C   2.45644923379077      1.41832825917820      0.00902448468363
C   0.00001130712078     -1.41497612663474      0.00347275151708
C   -1.22530046906674      0.70754574598412      0.00838914760619
C   2.45643823516184     -1.41832293188077     -0.00843833914343
C   -0.00000085313587      2.83680140328112     -0.00913035594137
C   3.68182717731192      0.70931832800114     -0.00808954934571
C   2.45512052870677      2.83422403348893     -0.00819210630633
C   3.68182158506039     -0.70933346742900      0.00798293467272
C   -1.22531311884624     -0.70752714354401     -0.00512042085974
C   1.22670006104402      3.54346985599427      0.00816696660346
C   0.00000526469929     -2.83678176723568      0.00832091913869
C   -2.45643555300670      1.41831729028492      0.00842454345199
C   2.45512389762097     -2.83422965658853      0.00783102630520
C   -1.22671388474763      3.54346943575023      0.00827029982280
C   4.91451777504333      1.42717324448953     -0.00160886631602
C   3.69315067131765      3.54279566454522     -0.00155906667985
C   -2.45643712022637     -1.41831290883911     -0.00846337726810
C   1.22670532178455     -3.54347386990643     -0.00780316414624
C   -2.45512491866593      2.83421703463423     -0.00818572995999
C   4.91452486062398     -1.42718653794377      0.00136387641845
C   1.22142509354026      4.97013443726031      0.00150231067809
C   4.89300870916237      2.82518837202648     -0.00039219795739
C   -1.22669652864725     -3.54347062507680     -0.00753595973677
C   -3.68181849668397      0.70932533873199     -0.00807686886569
C   3.69314758099218     -3.54280096939050      0.00148176697923
C   -1.22143177215231      4.97012866986289      0.00168580605083
C   6.13477145276790      0.68054831910577     -0.00083909176631
C   3.65678936045204      4.97295361556775     -0.00065042889723
C   -2.45512642789169     -2.83421472106065      0.00758666850712
C   -3.68181869921921     -0.70932533146830      0.00810055625144
C   4.89301309775526     -2.82519973363176      0.00021895393805
C   -0.00000059327114      5.65044773803267      0.00045449734393
C   6.13477559217374     -0.68055448207492      0.00042622874941
C   2.47813196269732      5.65357712333155      0.00063835075260
C   1.22142288457925     -4.97012668293268     -0.00129718634452
C   -3.69316190412301      3.54279732619245     -0.00139355922051
C   -1.22142804110313     -4.97011793159564     -0.00140994817719
C   -4.91452132810043      1.42717581899491     -0.00153192130862
C   3.65678749952045     -4.97295485423912      0.00080007163680
C   -2.47813805026426      5.65357479452875      0.00092287576113
C   -3.69314125872231     -3.54278984697859      0.00136564082345
C   -4.91451200321153     -1.42718062802730      0.00139857359209
C   -0.00000552908399     -5.65043791501335      0.00005899322272
C   -4.89302000425900      2.82518897091939     -0.00040227981744
C   2.47812647313991     -5.65357317188818     -0.00029052915548
C   -3.65679823041642      4.97295655404175     -0.00047374852278
C   -4.89299899901461     -2.82519139505969      0.00006491824035
C   -2.47812801824129     -5.65356579800621     -0.00056571680280
C   -6.13477002348955      0.68054913825639     -0.00086464346868
C   -3.65678835334731     -4.97294365097028      0.00058578382008
C   -6.13476456307132     -0.68055354348201      0.00040575295444
H   5.83528897565761      3.36927626695423      0.00396712770529
H   7.07385965258860      1.22821762089947     -0.00037744837300
H   4.60066374401555      5.51238117445323     -0.00014522814529
H   5.83528386714679     -3.36930568472863     -0.00423551337640
H   -0.00001167146422      6.73853104613662     -0.00389474766392
H   7.07386165167227     -1.22822657074368     -0.00008250934481
H   2.47331421164041      6.74068466339473      0.00017162982210
H   4.60066897122302     -5.51237575717576      0.00039007446835
H   -2.47331820069565      6.74068209160650      0.00047297644710
H   -0.00000978838621     -6.73852780445195      0.00458867820736
H   -5.83530143450167      3.36927132229595      0.00410314985360
H   2.47330840367253     -6.74068500242887      0.00027980126949
H   -4.60067436136587      5.51237839860371      0.00002010017831
H   -5.83527902699321     -3.36928859177951     -0.00451481925734
H   -2.47329986759855     -6.74067870613986     -0.00016951527498
H   -7.07385728692578      1.22822084484047     -0.00046143985387
H   -4.60067330624313     -5.51236229778631      0.00021776644566
H   -7.07385645456741     -1.22822025997701     -0.00017736581114

    units angstrom      # Angstroms are the default
    no_reorient         # Geometry fixed, default
    symmetry c1         # C1 symmetry, default
}

set {
    scf_type DF         # Density fitting, faster than exact integrals
    freeze_core True    # Freeze core electrons
    basis jun-cc-pVDZ   # Jun-cc-pVDZ basis set, recommended for sSAPT0 in https://doi.org/10.1063/1.4867135
}

energy('ssapt0')        # Compute sSAPT0 energy, includes also SAPT0
--------------------------------------------------------------------------

  //              Dimer HF             //
    Molecular point group: c1
  Charge       = -1
  Multiplicity = 1
  Basis Set: JUN-CC-PVDZ
    Blend: JUN-CC-PVDZ
  Basis Set: (JUN-CC-PVDZ AUX)
    Blend: JUN-CC-PVDZ-JKFIT
  @DF-RHF Final Energy: -2478.65793088657847
    Total Energy =                      -2478.6579308865784697
 Dipole X            :         -0.0005607            0.0000481           -0.0005126
 Dipole Y            :          0.0010913           -0.0001453            0.0009460
 Dipole Z            :         31.9741819          -42.9121792          -10.9379972
 Magnitude           :                                                   10.9379973
  //            Monomer A HF           //
    Molecular point group: c1
  Multiplicity = 1
  Basis Set: JUN-CC-PVDZ
    Blend: JUN-CC-PVDZ
  Basis Set: (JUN-CC-PVDZ AUX)
    Blend: JUN-CC-PVDZ-JKFIT
  @DF-RHF Final Energy:  -422.77143927316899
    Total Energy =                       -422.7714392731689941
  //            Monomer B HF           //
    Molecular point group: c1

    Geometry (in Angstrom), charge = 0, multiplicity = 1:

       Center              X                  Y                   Z               Mass
    ------------   -----------------  -----------------  -----------------  -----------------
      Gh(B)          -0.000198161052     0.000273808717     6.191398536060    11.009305360000
      Gh(F)          -0.000000401852    -0.000000464183     7.604183536060    18.998403162730
      Gh(F)           1.147859598148     0.675780735817     5.720257536060    18.998403162730
      Gh(F)           0.011917658148    -1.332011464183     5.720459536060    18.998403162730
      Gh(F)          -1.159666401852     0.656073035817     5.720538536060    18.998403162730
         C            1.225311973413     0.707538196736    -0.802497836656    12.000000000000
         C            1.225323934041    -0.707538986754    -0.814828646226    12.000000000000
         C           -0.000006075942     1.414965821907    -0.815362269747    12.000000000000
         C            2.456448831939     1.418327794995    -0.799610979256    12.000000000000
         C            0.000010905269    -1.414976590818    -0.805162712423    12.000000000000
         C           -1.225300870919     0.707545281801    -0.800246316334    12.000000000000
         C            2.456437833310    -1.418323396064    -0.817073803083    12.000000000000
         C           -0.000001254988     2.836800939098    -0.817765819881    12.000000000000
         C            3.681826775460     0.709317863818    -0.816725013285    12.000000000000
         C            2.455120126855     2.834223569306    -0.816827570246    12.000000000000
         C            3.681821183209    -0.709333931612    -0.800652529267    12.000000000000
         C           -1.225313520698    -0.707527607727    -0.813755884799    12.000000000000
         C            1.226699659192     3.543469391811    -0.800468497336    12.000000000000
         C            0.000004862847    -2.836782231419    -0.800314544801    12.000000000000
         C           -2.456435954859     1.418316826102    -0.800210920488    12.000000000000
         C            2.455123495769    -2.834230120772    -0.800804437634    12.000000000000
         C           -1.226714286599     3.543468971567    -0.800365164117    12.000000000000
         C            4.914517373191     1.427172780306    -0.810244330256    12.000000000000
         C            3.693150269466     3.542795200362    -0.810194530620    12.000000000000
         C           -2.456437522078    -1.418313373022    -0.817098841208    12.000000000000
         C            1.226704919933    -3.543474334090    -0.816438628086    12.000000000000
         C           -2.455125320518     2.834216570451    -0.816821193900    12.000000000000
         C            4.914524458772    -1.427187002127    -0.807271587521    12.000000000000
         C            1.221424691688     4.970133973077    -0.807133153262    12.000000000000
         C            4.893008307311     2.825187907843    -0.809027661897    12.000000000000
         C           -1.226696930499    -3.543471089260    -0.816171423676    12.000000000000
         C           -3.681818898536     0.709324874549    -0.816712332805    12.000000000000
         C            3.693147179140    -3.542801433574    -0.807153696960    12.000000000000
         C           -1.221432174004     4.970128205680    -0.806949657889    12.000000000000
         C            6.134771050916     0.680547854922    -0.809474555706    12.000000000000
         C            3.656788958600     4.972953151384    -0.809285892837    12.000000000000
         C           -2.455126829744    -2.834215185244    -0.801048795433    12.000000000000
         C           -3.681819101071    -0.709325795652    -0.800534907688    12.000000000000
         C            4.893012695903    -2.825200197815    -0.808416510002    12.000000000000
         C           -0.000000995123     5.650447273849    -0.808180966596    12.000000000000
         C            6.134775190322    -0.680554946258    -0.808209235190    12.000000000000
         C            2.478131560845     5.653576659148    -0.807997113187    12.000000000000
         C            1.221422482727    -4.970127147116    -0.809932650284    12.000000000000
         C           -3.693162305975     3.542796862009    -0.810029023160    12.000000000000
         C           -1.221428442955    -4.970118395779    -0.810045412117    12.000000000000
         C           -4.914521729952     1.427175354812    -0.810167385248    12.000000000000
         C            3.656787097669    -4.972955318422    -0.807835392303    12.000000000000
         C           -2.478138452116     5.653574330345    -0.807712588179    12.000000000000
         C           -3.693141660574    -3.542790311162    -0.807269823116    12.000000000000
         C           -4.914512405063    -1.427181092211    -0.807236890348    12.000000000000
         C           -0.000005930936    -5.650438379197    -0.808576470717    12.000000000000
         C           -4.893020406111     2.825188506736    -0.809037743757    12.000000000000
         C            2.478126071288    -5.653573636072    -0.808925993095    12.000000000000
         C           -3.656798632268     4.972956089858    -0.809109212462    12.000000000000
         C           -4.892999400866    -2.825191859243    -0.808570545699    12.000000000000
         C           -2.478128420093    -5.653566262190    -0.809201180742    12.000000000000
         C           -6.134770425341     0.680548674073    -0.809500107408    12.000000000000
         C           -3.656788755199    -4.972944115154    -0.808049680120    12.000000000000
         C           -6.134764964923    -0.680554007665    -0.808229710985    12.000000000000
         H            5.835288573806     3.369275802771    -0.804668336234     1.007825032230
         H            7.073859250737     1.228217156716    -0.809012912313     1.007825032230
         H            4.600663342164     5.512380710270    -0.808780692085     1.007825032230
         H            5.835283465295    -3.369306148912    -0.812870977316     1.007825032230
         H           -0.000012073316     6.738530581953    -0.812530211604     1.007825032230
         H            7.073861249820    -1.228227034927    -0.808717973285     1.007825032230
         H            2.473313809789     6.740684199211    -0.808463834118     1.007825032230
         H            4.600668569371    -5.512376221359    -0.808245389471     1.007825032230
         H           -2.473318602548     6.740681627423    -0.808162487493     1.007825032230
         H           -0.000010190238    -6.738528268635    -0.804046785732     1.007825032230
         H           -5.835301836354     3.369270858113    -0.804532314086     1.007825032230
         H            2.473308001821    -6.740685466612    -0.808355662670     1.007825032230
         H           -4.600674763218     5.512377934420    -0.808615363761     1.007825032230
         H           -5.835279428845    -3.369289055963    -0.813150283197     1.007825032230
         H           -2.473300269450    -6.740679170323    -0.808804979215     1.007825032230
         H           -7.073857688778     1.228220380657    -0.809096903794     1.007825032230
         H           -4.600673708095    -5.512362761970    -0.808417697494     1.007825032230
         H           -7.073856856419    -1.228220724160    -0.808812829751     1.007825032230

  Charge       = 0
  Multiplicity = 1
  Basis Set: JUN-CC-PVDZ
    Blend: JUN-CC-PVDZ
  Basis Set: (JUN-CC-PVDZ AUX)
    Blend: JUN-CC-PVDZ-JKFIT

    Orbital Energies [Eh]
    ---------------------

    Doubly Occupied:

       1A    -11.260676     2A    -11.260233     3A    -11.260231
       4A    -11.259521     5A    -11.259521     6A    -11.259351
       7A    -11.259141     8A    -11.259064     9A    -11.259063
      10A    -11.258738    11A    -11.258734    12A    -11.258665
      13A    -11.258603    14A    -11.258598    15A    -11.258595
      16A    -11.258566    17A    -11.258560    18A    -11.258544
      19A    -11.258531    20A    -11.258526    21A    -11.258520
      22A    -11.258422    23A    -11.258419    24A    -11.258121
      25A    -11.257460    26A    -11.257398    27A    -11.257397
      28A    -11.257263    29A    -11.257262    30A    -11.257178
      31A    -11.256555    32A    -11.256485    33A    -11.256484
      34A    -11.256375    35A    -11.256374    36A    -11.256327
      37A    -11.252401    38A    -11.252400    39A    -11.252399
      40A    -11.252397    41A    -11.252395    42A    -11.252393
      43A    -11.251535    44A    -11.251532    45A    -11.251531
      46A    -11.251526    47A    -11.251525    48A    -11.251521
      49A    -11.250963    50A    -11.250962    51A    -11.250960
      52A    -11.250958    53A    -11.250956    54A    -11.250955
      55A     -1.244297    56A     -1.220016    57A     -1.220015
      58A     -1.189724    59A     -1.189717    60A     -1.181167
      61A     -1.157724    62A     -1.149156    63A     -1.135706
      64A     -1.135700    65A     -1.113357    66A     -1.113353
      67A     -1.082630    68A     -1.082623    69A     -1.078813
      70A     -1.066141    71A     -1.066137    72A     -1.039580
      73A     -1.024491    74A     -1.021994    75A     -1.021951
      76A     -1.017890    77A     -1.012951    78A     -0.987222
      79A     -0.987176    80A     -0.962051    81A     -0.962001
      82A     -0.894470    83A     -0.894443    84A     -0.888166
      85A     -0.886413    86A     -0.886355    87A     -0.881601
      88A     -0.881554    89A     -0.862075    90A     -0.837553
      91A     -0.818392    92A     -0.816833    93A     -0.812341
      94A     -0.812331    95A     -0.794856    96A     -0.794845
      97A     -0.746840    98A     -0.745066    99A     -0.733634
     100A     -0.733625   101A     -0.732355   102A     -0.732331
     103A     -0.716701   104A     -0.699151   105A     -0.699140
     106A     -0.693777   107A     -0.693762   108A     -0.661401
     109A     -0.653334   110A     -0.651380   111A     -0.650419
     112A     -0.650413   113A     -0.639531   114A     -0.639528
     115A     -0.629915   116A     -0.627726   117A     -0.627710
     118A     -0.606468   119A     -0.605936   120A     -0.601867
     121A     -0.599921   122A     -0.599890   123A     -0.593825
     124A     -0.591455   125A     -0.591444   126A     -0.585421
     127A     -0.576420   128A     -0.576414   129A     -0.567480
     130A     -0.567466   131A     -0.566167   132A     -0.566147
     133A     -0.558942   134A     -0.555025   135A     -0.555018
     136A     -0.538762   137A     -0.538760   138A     -0.538290
     139A     -0.538284   140A     -0.529897   141A     -0.528208
     142A     -0.523052   143A     -0.523046   144A     -0.500670
     145A     -0.495720   146A     -0.493409   147A     -0.487949
     148A     -0.485268   149A     -0.481949   150A     -0.481941
     151A     -0.470438   152A     -0.470420   153A     -0.451253
     154A     -0.451174   155A     -0.439190   156A     -0.439181
     157A     -0.404870   158A     -0.404847   159A     -0.403492
     160A     -0.375545   161A     -0.375542   162A     -0.349249
     163A     -0.337717   164A     -0.336684   165A     -0.336626
     166A     -0.311226   167A     -0.298212   168A     -0.284482
     169A     -0.284428   170A     -0.225050   171A     -0.224984

  @DF-RHF Final Energy: -2055.89167506973126

   => Energetics <=

    Nuclear Repulsion Energy =           6452.5568002797772351
    One-Electron Energy =              -15636.4259445555944694
    Two-Electron Energy =                7127.9774692060855159
    Total Energy =                      -2055.8916750697317184
 Dipole X            :          0.0000506            0.0000419            0.0000925
 Dipole Y            :          0.0000263           -0.0000426           -0.0000163
 Dipole Z            :        522.6103115         -522.6114932           -0.0011818
 Magnitude           :                                                    0.0011855

    SAPT Results
  --------------------------------------------------------------------------------------------------------
    Electrostatics                  7.46064635 [mEh]       4.68162626 [kcal/mol]      19.58792428 [kJ/mol]
      Elst10,r                      7.46064635 [mEh]       4.68162626 [kcal/mol]      19.58792428 [kJ/mol]

    Exchange                       -0.00018899 [mEh]      -0.00011859 [kcal/mol]      -0.00049619 [kJ/mol]
      Exch10                       -0.00018899 [mEh]      -0.00011859 [kcal/mol]      -0.00049619 [kJ/mol]
      Exch10(S^2)                  -0.00018899 [mEh]      -0.00011859 [kcal/mol]      -0.00049619 [kJ/mol]

    Induction                      -2.27700104 [mEh]      -1.42883972 [kcal/mol]      -5.97826540 [kJ/mol]
      Ind20,r                      -2.29136811 [mEh]      -1.43785520 [kcal/mol]      -6.01598614 [kJ/mol]
      Exch-Ind20,r                  0.00006705 [mEh]       0.00004207 [kcal/mol]       0.00017603 [kJ/mol]
      delta HF,r (2)                0.01430003 [mEh]       0.00897340 [kcal/mol]       0.03754471 [kJ/mol]

    Dispersion                     -0.37593332 [mEh]      -0.23590172 [kcal/mol]      -0.98701279 [kJ/mol]
      Disp20                       -0.37599850 [mEh]      -0.23594262 [kcal/mol]      -0.98718393 [kJ/mol]
      Exch-Disp20                   0.00006519 [mEh]       0.00004090 [kcal/mol]       0.00017114 [kJ/mol]
      Disp20 (SS)                  -0.18799925 [mEh]      -0.11797131 [kcal/mol]      -0.49359197 [kJ/mol]
      Disp20 (OS)                  -0.18799925 [mEh]      -0.11797131 [kcal/mol]      -0.49359197 [kJ/mol]
      Exch-Disp20 (SS)              0.00005060 [mEh]       0.00003175 [kcal/mol]       0.00013285 [kJ/mol]
      Exch-Disp20 (OS)              0.00001458 [mEh]       0.00000915 [kcal/mol]       0.00003829 [kJ/mol]

  Total HF                          5.18345632 [mEh]       3.25266795 [kcal/mol]      13.60916270 [kJ/mol]
  Total SAPT0                       4.80752300 [mEh]       3.01676623 [kcal/mol]      12.62214991 [kJ/mol]

  Special recipe for scaled SAPT0 (see Manual):
    Electrostatics sSAPT0           7.46064635 [mEh]       4.68162626 [kcal/mol]      19.58792428 [kJ/mol]
    Exchange sSAPT0                -0.00018899 [mEh]      -0.00011859 [kcal/mol]      -0.00049619 [kJ/mol]
    Induction sSAPT0               -2.27700104 [mEh]      -1.42883972 [kcal/mol]      -5.97826540 [kJ/mol]
    Dispersion sSAPT0              -0.37593332 [mEh]      -0.23590172 [kcal/mol]      -0.98701279 [kJ/mol]
  Total sSAPT0                      4.80752300 [mEh]       3.01676623 [kcal/mol]      12.62214991 [kJ/mol]
  --------------------------------------------------------------------------------------------------------

*** Psi4 exiting successfully. Buy a developer a beer!
