                               Psi4 1.9 release

  ==> Input File <==

--------------------------------------------------------------------------
memory 64 GB # how much memory is available ! Depends on the nodes/cores !

molecule dimer {
# monomer A
+1 1    # Charge and multiplicity
C  0.680067 1.417258 -7.215929
C -0.680504 1.419286 -7.215545
N -1.085635 1.420284 -5.897221
C  0.000108 1.423560 -5.115820
C -2.477365 1.469690 -5.429242
N  1.085222 1.420284 -5.897221
H  1.385146 1.409430 -8.033368
H -1.385302 1.419096 -8.033214
H -0.000009 1.425307 -4.034731
C  2.478117 1.403392 -5.432123
H  2.490592 1.430737 -4.341870
H  2.967028 0.489946 -5.779299
H  3.001428 2.278875 -5.823595
H -2.857359 2.491761 -5.509201
H -3.082679 0.799606 -6.042306
H -2.518128 1.142706 -4.389294
--
# monomer B
0 1     # Charge and multiplicity
C   -3.66844126402057      7.80375217008252      0.00190004133558
C   -4.84759871934653      7.13124183134024     -0.00046653359696
C   -4.89495929917518      5.69633040353158     -0.00103944469517
C   -3.65374067877320      4.98073034095895      0.00662099703436
C   -2.40942512149445      7.11398103667468      0.00209438359570
C   -2.42547734410473      5.68112195090346     -0.00491050527438
C   -1.19474401643570      7.78614419430947      0.00356656413763
C   0.03795902893699      7.09942164575698      0.00139585983271
C   0.03033258741920      5.66948955970466     -0.00408752508301
C   -1.20098450790502      4.96927034791531      0.00488220885047
C   1.27795782581485      7.77285944319479      0.00277170839332
C   2.48535808472416      7.08769688523756      0.00049722048857
C   2.48612868491717      5.65477081024076     -0.00644052849921
C   1.25408291964399      4.95607811366431      0.00518741308898
C   3.75171459140595      7.76391215098033      0.00062407186893
C   4.92356605618520      7.07878077698995     -0.00143240883900
C   4.95560727132542      5.64344746336949     -0.00159282164606
C   3.70680153420475      4.94121020833308      0.00349873852374
H   -3.65852113775815      8.89082741913536      0.00358502958574
H   -1.18921332975660      8.87412108735996      0.00753844057883
H   1.28429423888630      8.86083343548850      0.00693053253426
H   3.75354208679975      8.85103527897216      0.00214659618464
H   5.86995870320703      7.61379483465560     -0.00235777588134
H   -5.78823170750226      7.67630221293400     -0.00202638095293
C   -6.09197395869619      4.99326001364347     -0.00291168518608
C   -6.12866148031747      3.58258016879823     -0.00171050815740
C   -3.66457974004527      3.56418217974434     -0.00463560277484
C   -4.89429820469869      2.86108077590057      0.00453338221034
C   -2.43733499489796      2.84761165708481      0.00719617576166
C   -1.20922785759670      3.54788693497833     -0.00648285103018
C   1.24714157216223      3.53468075142962     -0.00729145743546
C   0.01517603956900      2.83311183930540      0.00439272578912
C   2.46764517244071      2.82128997725533      0.00449278391269
C   3.70254947457969      3.52466015442405     -0.00899517692985
C   6.14498038638375      4.92757236613191     -0.00282626685777
C   6.16658835886151      3.51658447594213     -0.00065971342101
C   4.92460995845939      2.80840792535402      0.00587903281610
H   7.08990550964105      5.46688776622306     -0.00658814770723
H   -7.03104175110130      5.54268795285765     -0.00714490013730
C   -7.33969804112295      2.85841153457957     -0.00333767559888
C   -7.36488195805880      1.47032337158330     -0.00157213747140
C   -4.90350460894690      1.44442681216000     -0.00628840166334
C   -6.13225715261081      0.73993935705394      0.00600164231964
C   -3.67687480051673      0.72669714267312      0.00433931473643
C   -2.44565658606518      1.42964113326212     -0.00597039546461
C   -1.22360068130162      0.71532450163492      0.00545886906656
C   0.00763786931376      1.41738314923765      0.00392452278437
C   1.23121980774686      0.70211669058719     -0.01490206287210
C   2.46082110053113      1.40329203612573      0.00460244601878
C   3.68443025419614      0.68719842821222      0.00377365974158
C   4.91870890153864      1.39173456118907     -0.00862816189375
C   7.36980207796101      2.77948220318441     -0.00242013321349
C   7.38016266612146      1.39121750785509     -0.00087345036788
C   6.13979953912259      0.67411862320065      0.00545489144369
H   -8.27919079934664      3.40711804112415     -0.00763522772059
H   8.31511347147953      3.31811809662368     -0.00663070901292
C   -8.59175593758115      0.72483255304480     -0.00123170985383
C   -8.59902460370342     -0.63263980622873      0.00089141472904
C   -6.13981313911873     -0.67413663715361     -0.00609792660607
C   -7.38018411213749     -1.39126618958160      0.00131813493501
C   -4.91868448025621     -1.39175501803000      0.00624257154343
C   -3.68443829568458     -0.68723731573599     -0.00478966852105
C   -2.46081704024768     -1.40334517882457      0.00575341766833
C   -1.23116201232071     -0.70217386488055     -0.00636696112346
C   -0.00756962538737     -1.41741884941102      0.00108956317991
C   1.22364771588843     -0.71527537726392      0.01109518512883
C   2.44567064933149     -1.42964328900682     -0.00065482763106
C   3.67686670284649     -0.72670743155550     -0.00479541202602
C   6.13224884641929     -0.73997883984993     -0.00632338623858
C   4.90351914550401     -1.44445752054090      0.00751768830159
C   8.59901484869081      0.63260386666793     -0.00101133422380
C   8.59174548810050     -0.72485086719319      0.00072504603735
C   7.36486276438985     -1.47033266560598      0.00049486934466
H   -9.52830597181814      1.27684744919284     -0.00270163681798
H   9.54141097460619      1.17457248844457     -0.00206336648518
C   -7.36983790976868     -2.77954514593389      0.00312634335708
C   -4.92459910905015     -2.80843725734101     -0.00460528907921
C   -6.16662249566744     -3.51665219282533      0.00169655107992
C   -3.70251035970491     -3.52468154912026      0.00571878010666
C   -2.46764698511392     -2.82132596280400     -0.00632585824990
C   -0.01513347410770     -2.83314164539971     -0.00604426974092
C   -1.24712184122656     -3.53473217556300      0.00551968366725
C   1.20924506964357     -3.54791467864352      0.00805871345849
C   2.43733602215464     -2.84764173817541     -0.00608104485234
C   4.89430234377080     -2.86112296828604     -0.00526030478103
C   3.66461525504104     -3.56421984553201      0.00761911515957
C   6.12863901474565     -3.58258405771778      0.00096495711699
C   7.33967266469532     -2.85841330737039      0.00248018319869
H   -9.54144911125902     -1.17456346666430      0.00226083090216
H   9.52826186807155     -1.27691907390448      0.00197485379837
H   -8.31516504384864     -3.31814985321231      0.00729857188773
H   8.27915514249207     -3.40714078989363      0.00681973918158
C   -6.14499418870218     -4.92764727278338      0.00302254913999
C   -3.70678334799751     -4.94126171411716     -0.00679841894792
C   -4.95559005800169     -5.64349397349412      0.00116871569699
C   -2.48612132622665     -5.65478557440947      0.00614125209662
C   -1.25405833548005     -4.95612205000132     -0.00503435388927
C   1.20101257386816     -4.96928038819302     -0.00385322963129
C   -0.03033667441341     -5.66952030313900      0.00398997003238
C   3.65375010132847     -4.98074377541453     -0.00309522988330
C   2.42549269587528     -5.68117463552727      0.00628170066869
C   6.09196561781097     -4.99325796338655      0.00325918379042
C   4.89497644461045     -5.69634842095790      0.00202298796027
H   -7.08989238804069     -5.46699984223871      0.00742531082125
H   7.03105520920009     -5.54265853633254      0.00683896355417
C   -4.92354532219813     -7.07882109967734      0.00061394679214
C   -2.48534208823777     -7.08772807792913     -0.00189594564379
C   -3.75168589177895     -7.76394715763627     -0.00170126671874
C   -0.03794895698805     -7.09946487446944     -0.00168022049625
C   -1.27795610040136     -7.77290438466689     -0.00366491325785
C   2.40944432072629     -7.11402201200282     -0.00081701968533
C   1.19474993715296     -7.78618536556242     -0.00296931056689
C   4.84762105249800     -7.13126211057943      0.00168979497423
C   3.66847160587561     -7.80378799294376     -0.00065863938960
H   -5.86994035041618     -7.61383059804164      0.00215798365757
H   5.78824962538815     -7.67633218931421      0.00281691445618
H   -3.75352693944918     -8.85107156923607     -0.00353718114765
H   -1.28430440589466     -8.86087539249706     -0.00809229711623
H   1.18922157469537     -8.87416062058945     -0.00706194725726
H   3.65854661482387     -8.89086063405326     -0.00231318081200

    units angstrom      # Angstroms are the default
    no_reorient         # Geometry fixed, default
    symmetry c1         # C1 symmetry, default
}

set {
    scf_type DF         # Density fitting, faster than exact integrals
    freeze_core True    # Freeze core electrons
    basis jun-cc-pVDZ   # Jun-cc-pVDZ basis set, recommended for sSAPT0 in https://doi.org/10.1063/1.4867135
}

energy('ssapt0')        # Compute sSAPT0 energy, includes also SAPT0
--------------------------------------------------------------------------

  //              Dimer HF             //
    Molecular point group: c1
  Charge       = 1
  Multiplicity = 1
  Basis Set: JUN-CC-PVDZ
    Blend: JUN-CC-PVDZ
  Basis Set: (JUN-CC-PVDZ AUX)
    Blend: JUN-CC-PVDZ-JKFIT
  @DF-RHF Final Energy: -3953.65249687390906
    Total Energy =                      -3953.6524968739104224
 Dipole X            :         -0.0028590            0.0004804           -0.0023786
 Dipole Y            :         -7.0159833            8.7122315            1.6962482
 Dipole Z            :         25.8323889          -34.5530153           -8.7206264
 Magnitude           :                                                    8.8840637
  //            Monomer A HF           //
    Molecular point group: c1
  Multiplicity = 1
  Basis Set: JUN-CC-PVDZ
    Blend: JUN-CC-PVDZ
  Basis Set: (JUN-CC-PVDZ AUX)
    Blend: JUN-CC-PVDZ-JKFIT
  @DF-RHF Final Energy:  -303.29746111574286
    Total Energy =                       -303.2974611157428626
  //            Monomer B HF           //
    Molecular point group: c1

    Geometry (in Angstrom), charge = 0, multiplicity = 1:

       Center              X                  Y                   Z               Mass
    ------------   -----------------  -----------------  -----------------  -----------------
      Gh(C)           0.680062820275     1.308604348936    -6.758481124280    12.000000000000
      Gh(C)          -0.680508179725     1.310632348936    -6.758097124280    12.000000000000
      Gh(N)          -1.085639179725     1.311630348936    -5.439773124280    14.003074004430
      Gh(C)           0.000103820275     1.314906348936    -4.658372124280    12.000000000000
      Gh(C)          -2.477369179725     1.361036348936    -4.971794124280    12.000000000000
      Gh(N)           1.085217820275     1.311630348936    -5.439773124280    14.003074004430
      Gh(H)           1.385141820275     1.300776348936    -7.575920124280     1.007825032230
      Gh(H)          -1.385306179725     1.310442348936    -7.575766124280     1.007825032230
      Gh(H)          -0.000013179725     1.316653348936    -3.577283124280     1.007825032230
      Gh(C)           2.478112820275     1.294738348936    -4.974675124280    12.000000000000
      Gh(H)           2.490587820275     1.322083348936    -3.884422124280     1.007825032230
      Gh(H)           2.967023820275     0.381292348936    -5.321851124280     1.007825032230
      Gh(H)           3.001423820275     2.170221348936    -5.366147124280     1.007825032230
      Gh(H)          -2.857363179725     2.383107348936    -5.051753124280     1.007825032230
      Gh(H)          -3.082683179725     0.690952348936    -5.584858124280     1.007825032230
      Gh(H)          -2.518132179725     1.034052348936    -3.931846124280     1.007825032230
         C           -3.668445443746     7.695098519018     0.459347917055    12.000000000000
         C           -4.847602899072     7.022588180276     0.456981342123    12.000000000000
         C           -4.894963478901     5.587676752467     0.456408431024    12.000000000000
         C           -3.653744858499     4.872076689895     0.464068872754    12.000000000000
         C           -2.409429301220     7.005327385610     0.459542259315    12.000000000000
         C           -2.425481523830     5.572468299839     0.452537370445    12.000000000000
         C           -1.194748196161     7.677490543245     0.461014439857    12.000000000000
         C            0.037954849212     6.990767994693     0.458843735552    12.000000000000
         C            0.030328407694     5.560835908640     0.453360350637    12.000000000000
         C           -1.200988687630     4.860616696851     0.462330084570    12.000000000000
         C            1.277953646089     7.664205792130     0.460219584113    12.000000000000
         C            2.485353904999     6.979043234173     0.457945096208    12.000000000000
         C            2.486124505192     5.546117159176     0.451007347220    12.000000000000
         C            1.254078739919     4.847424462600     0.462635288809    12.000000000000
         C            3.751710411681     7.655258499916     0.458071947589    12.000000000000
         C            4.923561876460     6.970127125926     0.456015466881    12.000000000000
         C            4.955603091600     5.534793812305     0.455855054074    12.000000000000
         C            3.706797354479     4.832556557269     0.460946614243    12.000000000000
         H           -3.658525317484     8.782173768071     0.461032905305     1.007825032230
         H           -1.189217509482     8.765467436296     0.464986316298     1.007825032230
         H            1.284290059161     8.752179784424     0.464378408254     1.007825032230
         H            3.753537907074     8.742381627908     0.459594471904     1.007825032230
         H            5.869954523482     7.505141183591     0.455090099838     1.007825032230
         H           -5.788235887228     7.567648561870     0.455421494767     1.007825032230
         C           -6.091978138422     4.884606362579     0.454536190534    12.000000000000
         C           -6.128665660043     3.473926517734     0.455737367562    12.000000000000
         C           -3.664583919771     3.455528528680     0.452812272945    12.000000000000
         C           -4.894302384424     2.752427124836     0.461981257930    12.000000000000
         C           -2.437339174623     2.738958006020     0.464644051481    12.000000000000
         C           -1.209232037322     3.439233283914     0.450965024689    12.000000000000
         C            1.247137392437     3.426027100365     0.450156418284    12.000000000000
         C            0.015171859844     2.724458188241     0.461840601509    12.000000000000
         C            2.467640992715     2.712636326191     0.461940659632    12.000000000000
         C            3.702545294854     3.416006503360     0.448452698790    12.000000000000
         C            6.144976206658     4.818918715067     0.454621608862    12.000000000000
         C            6.166584179136     3.407930824878     0.456788162299    12.000000000000
         C            4.924605778734     2.699754274290     0.463326908536    12.000000000000
         H            7.089901329916     5.358234115159     0.450859728012     1.007825032230
         H           -7.031045930827     5.434034301793     0.450302975582     1.007825032230
         C           -7.339702220848     2.749757883515     0.454110200121    12.000000000000
         C           -7.364886137784     1.361669720519     0.455875738248    12.000000000000
         C           -4.903508788672     1.335773161096     0.451159474056    12.000000000000
         C           -6.132261332336     0.631285705989     0.463449518039    12.000000000000
         C           -3.676878980242     0.618043491609     0.461787190456    12.000000000000
         C           -2.445660765791     1.320987482198     0.451477480255    12.000000000000
         C           -1.223604861027     0.606670850570     0.462906744786    12.000000000000
         C            0.007633689588     1.308729498173     0.461372398504    12.000000000000
         C            1.231215628021     0.593463039523     0.442545812848    12.000000000000
         C            2.460816920806     1.294638385061     0.462050321738    12.000000000000
         C            3.684426074471     0.578544777148     0.461221535461    12.000000000000
         C            4.918704721813     1.283080910125     0.448819713826    12.000000000000
         C            7.369797898236     2.670828552120     0.455027742506    12.000000000000
         C            7.380158486396     1.282563856791     0.456574425352    12.000000000000
         C            6.139795359397     0.565464972136     0.462902767163    12.000000000000
         H           -8.279194979072     3.298464390060     0.449812647999     1.007825032230
         H            8.315109291754     3.209464445559     0.450817166707     1.007825032230
         C           -8.591760117307     0.616178901980     0.456216165866    12.000000000000
         C           -8.599028783429    -0.741293457293     0.458339290449    12.000000000000
         C           -6.139817318844    -0.782790288218     0.451349949114    12.000000000000
         C           -7.380188291863    -1.499919840646     0.458766010655    12.000000000000
         C           -4.918688659982    -1.500408669094     0.463690447263    12.000000000000
         C           -3.684442475410    -0.795890966800     0.452658207199    12.000000000000
         C           -2.460821219973    -1.511998829889     0.463201293388    12.000000000000
         C           -1.231166192046    -0.810827515945     0.451080914596    12.000000000000
         C           -0.007573805113    -1.526072500475     0.458537438900    12.000000000000
         C            1.223643536163    -0.823929028328     0.468543060848    12.000000000000
         C            2.445666469606    -1.538296940071     0.456793048089    12.000000000000
         C            3.676862523121    -0.835361082620     0.452652463694    12.000000000000
         C            6.132244666694    -0.848632490914     0.451124489481    12.000000000000
         C            4.903514965779    -1.553111171605     0.464965564021    12.000000000000
         C            8.599010668965     0.523950215603     0.456436541496    12.000000000000
         C            8.591741308375    -0.833504518258     0.458172921757    12.000000000000
         C            7.364858584664    -1.578986316670     0.457942745064    12.000000000000
         H           -9.528310151544     1.168193798128     0.454746238902     1.007825032230
         H            9.541406794881     1.065918837380     0.455384509234     1.007825032230
         C           -7.369842089494    -2.888198796998     0.460574219077    12.000000000000
         C           -4.924603288776    -2.917090908405     0.452842586640    12.000000000000
         C           -6.166626675393    -3.625305843890     0.459144426800    12.000000000000
         C           -3.702514539430    -3.633335200185     0.463166655826    12.000000000000
         C           -2.467651164839    -2.929979613868     0.451122017470    12.000000000000
         C           -0.015137653833    -2.941795296464     0.451403605979    12.000000000000
         C           -1.247126020952    -3.643385826627     0.462967559387    12.000000000000
         C            1.209240889918    -3.656568329708     0.465506589178    12.000000000000
         C            2.437331842429    -2.956295389240     0.451366830867    12.000000000000
         C            4.894298164045    -2.969776619350     0.452187570939    12.000000000000
         C            3.664611075316    -3.672873496596     0.465066990879    12.000000000000
         C            6.128634835020    -3.691237708782     0.458412832837    12.000000000000
         C            7.339668484970    -2.967066958435     0.459928058918    12.000000000000
         H           -9.541453290984    -1.283217117729     0.459708706622     1.007825032230
         H            9.528257688346    -1.385572724969     0.459422729518     1.007825032230
         H           -8.315169223574    -3.426803504277     0.464746447607     1.007825032230
         H            8.279150962767    -3.515794440958     0.464267614901     1.007825032230
         C           -6.144998368428    -5.036300923848     0.460470424860    12.000000000000
         C           -3.706787527723    -5.049915365182     0.450649456772    12.000000000000
         C           -4.955594237727    -5.752147624559     0.458616591417    12.000000000000
         C           -2.486125505952    -5.763439225474     0.463589127816    12.000000000000
         C           -1.254062515205    -5.064775701066     0.452413521830    12.000000000000
         C            1.201008394143    -5.077934039257     0.453594646088    12.000000000000
         C           -0.030340854139    -5.778173954203     0.461437845752    12.000000000000
         C            3.653745921603    -5.089397426479     0.454352645836    12.000000000000
         C            2.425488516150    -5.789828286592     0.463729576388    12.000000000000
         C            6.091961438086    -5.101911614451     0.460707059510    12.000000000000
         C            4.894972264885    -5.805002072022     0.459470863680    12.000000000000
         H           -7.089896567766    -5.575653493303     0.464873186541     1.007825032230
         H            7.031051029475    -5.651312187397     0.464286839274     1.007825032230
         C           -4.923549501924    -7.187474750742     0.458061822512    12.000000000000
         C           -2.485346267963    -7.196381728994     0.455551930076    12.000000000000
         C           -3.751690071504    -7.872600808701     0.455746609001    12.000000000000
         C           -0.037953136713    -7.208118525534     0.455767655223    12.000000000000
         C           -1.277960280127    -7.881558035731     0.453782962462    12.000000000000
         C            2.409440141001    -7.222675663067     0.456630856034    12.000000000000
         C            1.194745757428    -7.894839016627     0.454478565153    12.000000000000
         C            4.847616872773    -7.239915761644     0.459137670694    12.000000000000
         C            3.668467426150    -7.912441644008     0.456789236330    12.000000000000
         H           -5.869944530142    -7.722484249106     0.459605859377     1.007825032230
         H            5.788245445663    -7.784985840379     0.460264790176     1.007825032230
         H           -3.753531119175    -8.959725220301     0.453910694572     1.007825032230
         H           -1.284308585620    -8.969529043562     0.449355578603     1.007825032230
         H            1.189217394970    -8.982814271654     0.450385928462     1.007825032230
         H            3.658542435098    -8.999514285118     0.455134694908     1.007825032230

  Charge       = 0
  Multiplicity = 1
  Basis Set: JUN-CC-PVDZ
    Blend: JUN-CC-PVDZ
  Basis Set: (JUN-CC-PVDZ AUX)
    Blend: JUN-CC-PVDZ-JKFIT

    Orbital Energies [Eh]
    ---------------------

    Doubly Occupied:

       1A    -11.263997     2A    -11.263684     3A    -11.263665
       4A    -11.263328     5A    -11.263322     6A    -11.263289
       7A    -11.263131     8A    -11.263118     9A    -11.263097
      10A    -11.262940    11A    -11.262785    12A    -11.262780
      13A    -11.262303    14A    -11.262297    15A    -11.262237
      16A    -11.262224    17A    -11.262173    18A    -11.262143
      19A    -11.262098    20A    -11.262062    21A    -11.262057
      22A    -11.261916    23A    -11.261899    24A    -11.261787
      25A    -11.261775    26A    -11.261757    27A    -11.261751
      28A    -11.261708    29A    -11.261696    30A    -11.261625
      31A    -11.261595    32A    -11.261593    33A    -11.261567
      34A    -11.261564    35A    -11.261543    36A    -11.261502
      37A    -11.261367    38A    -11.261358    39A    -11.261349
      40A    -11.261341    41A    -11.261334    42A    -11.261326
      43A    -11.261321    44A    -11.261305    45A    -11.261301
      46A    -11.261283    47A    -11.261272    48A    -11.261266
      49A    -11.261108    50A    -11.261075    51A    -11.261071
      52A    -11.260994    53A    -11.260987    54A    -11.260920
      55A    -11.259965    56A    -11.259943    57A    -11.259939
      58A    -11.259916    59A    -11.259908    60A    -11.259889
      61A    -11.259338    62A    -11.259307    63A    -11.259306
      64A    -11.259256    65A    -11.259251    66A    -11.259220
      67A    -11.258967    68A    -11.258944    69A    -11.258939
      70A    -11.258917    71A    -11.258909    72A    -11.258893
      73A    -11.254556    74A    -11.254552    75A    -11.254546
      76A    -11.254545    77A    -11.254537    78A    -11.254536
      79A    -11.253698    80A    -11.253690    81A    -11.253686
      82A    -11.253681    83A    -11.253678    84A    -11.253671
      85A    -11.253613    86A    -11.253606    87A    -11.253601
      88A    -11.253596    89A    -11.253593    90A    -11.253586
      91A    -11.253083    92A    -11.253080    93A    -11.253074
      94A    -11.253073    95A    -11.253065    96A    -11.253064
      97A     -1.254014    98A     -1.239055    99A     -1.239045
     100A     -1.220510   101A     -1.220503   102A     -1.215503
     103A     -1.201080   104A     -1.195645   105A     -1.188203
     106A     -1.188196   107A     -1.173801   108A     -1.173799
     109A     -1.155682   110A     -1.155678   111A     -1.152776
     112A     -1.144757   113A     -1.144754   114A     -1.128615
     115A     -1.114766   116A     -1.113198   117A     -1.112543
     118A     -1.112525   119A     -1.111651   120A     -1.088477
     121A     -1.088461   122A     -1.076996   123A     -1.076994
     124A     -1.067665   125A     -1.067634   126A     -1.065026
     127A     -1.046843   128A     -1.046835   129A     -1.040525
     130A     -1.038769   131A     -1.038768   132A     -1.025294
     133A     -1.021451   134A     -1.021396   135A     -1.007218
     136A     -1.006852   137A     -1.003835   138A     -1.000543
     139A     -1.000491   140A     -0.991107   141A     -0.971036
     142A     -0.970987   143A     -0.955922   144A     -0.955865
     145A     -0.905651   146A     -0.905612   147A     -0.905580
     148A     -0.905539   149A     -0.904398   150A     -0.892424
     151A     -0.892366   152A     -0.890416   153A     -0.890361
     154A     -0.889501   155A     -0.872253   156A     -0.869084
     157A     -0.851577   158A     -0.847916   159A     -0.847897
     160A     -0.845649   161A     -0.843063   162A     -0.834604
     163A     -0.834593   164A     -0.828151   165A     -0.828146
     166A     -0.784592   167A     -0.784583   168A     -0.783709
     169A     -0.783687   170A     -0.782333   171A     -0.782312
     172A     -0.782083   173A     -0.767028   174A     -0.760848
     175A     -0.750628   176A     -0.733519   177A     -0.727113
     178A     -0.727093   179A     -0.725127   180A     -0.724580
     181A     -0.724557   182A     -0.718550   183A     -0.713823
     184A     -0.713817   185A     -0.699617   186A     -0.699601
     187A     -0.686182   188A     -0.685990   189A     -0.685986
     190A     -0.682207   191A     -0.682197   192A     -0.678825
     193A     -0.653667   194A     -0.650913   195A     -0.650882
     196A     -0.649863   197A     -0.649853   198A     -0.649598
     199A     -0.640986   200A     -0.640954   201A     -0.640119
     202A     -0.639191   203A     -0.636069   204A     -0.636040
     205A     -0.629179   206A     -0.617748   207A     -0.615335
     208A     -0.615313   209A     -0.608836   210A     -0.608830
     211A     -0.599151   212A     -0.599133   213A     -0.598785
     214A     -0.598647   215A     -0.598630   216A     -0.598093
     217A     -0.595099   218A     -0.595086   219A     -0.594760
     220A     -0.594288   221A     -0.591999   222A     -0.591995
     223A     -0.587446   224A     -0.577821   225A     -0.577808
     226A     -0.575706   227A     -0.575702   228A     -0.573413
     229A     -0.569569   230A     -0.568193   231A     -0.568170
     232A     -0.566792   233A     -0.566783   234A     -0.560939
     235A     -0.558765   236A     -0.558739   237A     -0.558453
     238A     -0.554405   239A     -0.550588   240A     -0.547498
     241A     -0.544299   242A     -0.535009   243A     -0.534977
     244A     -0.533572   245A     -0.533552   246A     -0.528108
     247A     -0.528093   248A     -0.527846   249A     -0.517215
     250A     -0.517183   251A     -0.515378   252A     -0.515373
     253A     -0.509671   254A     -0.509656   255A     -0.498057
     256A     -0.496488   257A     -0.496456   258A     -0.493798
     259A     -0.493788   260A     -0.489439   261A     -0.481480
     262A     -0.477438   263A     -0.477437   264A     -0.474025
     265A     -0.469477   266A     -0.466559   267A     -0.466556
     268A     -0.458826   269A     -0.446739   270A     -0.446681
     271A     -0.441050   272A     -0.440775   273A     -0.440758
     274A     -0.434706   275A     -0.433923   276A     -0.407395
     277A     -0.407370   278A     -0.386425   279A     -0.386380
     280A     -0.385747   281A     -0.385746   282A     -0.383768
     283A     -0.354344   284A     -0.354324   285A     -0.350679
     286A     -0.338108   287A     -0.335610   288A     -0.335526
     289A     -0.332728   290A     -0.332723   291A     -0.307097
     292A     -0.301963   293A     -0.301898   294A     -0.300857
     295A     -0.286187   296A     -0.256481   297A     -0.253515
     298A     -0.253460   299A     -0.204275   300A     -0.204188

  @DF-RHF Final Energy: -3650.33902481864425

   => Energetics <=

    Nuclear Repulsion Energy =          15611.4211649754306563
    One-Electron Energy =              -36072.1244321131671313
    Two-Electron Energy =               16810.3642423190940463
    Total Energy =                      -3650.3390248186442477
 Dipole X            :         -0.0007705            0.0002112           -0.0005593
 Dipole Y            :        123.2156043         -123.2131634            0.0024409
 Dipole Z            :       -518.6638394          518.6741130            0.0102736
 Magnitude           :                                                    0.0105744

    SAPT Results
  --------------------------------------------------------------------------------------------------------
    Electrostatics                 -9.98081747 [mEh]      -6.26305752 [kcal/mol]     -26.20463265 [kJ/mol]
      Elst10,r                     -9.98081747 [mEh]      -6.26305752 [kcal/mol]     -26.20463265 [kJ/mol]

    Exchange                        0.04360955 [mEh]       0.02736541 [kcal/mol]       0.11449686 [kJ/mol]
      Exch10                        0.04360955 [mEh]       0.02736541 [kcal/mol]       0.11449686 [kJ/mol]
      Exch10(S^2)                   0.04360865 [mEh]       0.02736484 [kcal/mol]       0.11449450 [kJ/mol]

    Induction                      -6.07373161 [mEh]      -3.81132412 [kcal/mol]     -15.94658014 [kJ/mol]
      Ind20,r                      -5.87971697 [mEh]      -3.68957810 [kcal/mol]     -15.43719477 [kJ/mol]
      Exch-Ind20,r                  0.01081029 [mEh]       0.00678356 [kcal/mol]       0.02838241 [kJ/mol]
      delta HF,r (2)               -0.20482493 [mEh]      -0.12852958 [kcal/mol]      -0.53776777 [kJ/mol]

    Dispersion                     -3.99358446 [mEh]      -2.50601208 [kcal/mol]     -10.48515456 [kJ/mol]
      Disp20                       -4.00048406 [mEh]      -2.51034165 [kcal/mol]     -10.50326946 [kJ/mol]
      Exch-Disp20                   0.00689960 [mEh]       0.00432956 [kcal/mol]       0.01811490 [kJ/mol]
      Disp20 (SS)                  -2.00024203 [mEh]      -1.25517082 [kcal/mol]      -5.25163473 [kJ/mol]
      Disp20 (OS)                  -2.00024203 [mEh]      -1.25517082 [kcal/mol]      -5.25163473 [kJ/mol]
      Exch-Disp20 (SS)              0.00474664 [mEh]       0.00297856 [kcal/mol]       0.01246230 [kJ/mol]
      Exch-Disp20 (OS)              0.00215296 [mEh]       0.00135100 [kcal/mol]       0.00565260 [kJ/mol]

  Total HF                        -16.01093952 [mEh]     -10.04701623 [kcal/mol]     -42.03671592 [kJ/mol]
  Total SAPT0                     -20.00452398 [mEh]     -12.55302832 [kcal/mol]     -52.52187049 [kJ/mol]

  Special recipe for scaled SAPT0 (see Manual):
    Electrostatics sSAPT0          -9.98081747 [mEh]      -6.26305752 [kcal/mol]     -26.20463265 [kJ/mol]
    Exchange sSAPT0                 0.04360955 [mEh]       0.02736541 [kcal/mol]       0.11449686 [kJ/mol]
    Induction sSAPT0               -6.07373094 [mEh]      -3.81132370 [kcal/mol]     -15.94657837 [kJ/mol]
    Dispersion sSAPT0              -3.99358403 [mEh]      -2.50601182 [kcal/mol]     -10.48515344 [kJ/mol]
  Total sSAPT0                    -20.00452289 [mEh]     -12.55302763 [kcal/mol]     -52.52186760 [kJ/mol]
  --------------------------------------------------------------------------------------------------------

*** Psi4 exiting successfully. Buy a developer a beer!
