                               Psi4 1.9 release

  ==> Input File <==

--------------------------------------------------------------------------
memory 32 GB # how much memory is available ! Depends on the nodes/cores !

molecule dimer {
# monomer A
-1 1    # Charge and multiplicity
B -0.000046  0.000337 3.999994
F -1.153597  0.000048 4.815641
F  1.153661 -0.000581 4.815641
F -0.000019 -1.153637 3.184360
F -0.000019  1.153978 3.184360
--
# monomer B
0 1     # Charge and multiplicity
C   1.22531237526482      0.70753866091955      0.00613762728373
C   1.22532433589282     -0.70753852257020     -0.00619318228664
C   -0.00000567409046      1.41496628609039     -0.00672680580738
C   2.45644923379077      1.41832825917820      0.00902448468363
C   0.00001130712078     -1.41497612663474      0.00347275151708
C   -1.22530046906674      0.70754574598412      0.00838914760619
C   2.45643823516184     -1.41832293188077     -0.00843833914343
C   -0.00000085313587      2.83680140328112     -0.00913035594137
C   3.68182717731192      0.70931832800114     -0.00808954934571
C   2.45512052870677      2.83422403348893     -0.00819210630633
C   3.68182158506039     -0.70933346742900      0.00798293467272
C   -1.22531311884624     -0.70752714354401     -0.00512042085974
C   1.22670006104402      3.54346985599427      0.00816696660346
C   0.00000526469929     -2.83678176723568      0.00832091913869
C   -2.45643555300670      1.41831729028492      0.00842454345199
C   2.45512389762097     -2.83422965658853      0.00783102630520
C   -1.22671388474763      3.54346943575023      0.00827029982280
C   4.91451777504333      1.42717324448953     -0.00160886631602
C   3.69315067131765      3.54279566454522     -0.00155906667985
C   -2.45643712022637     -1.41831290883911     -0.00846337726810
C   1.22670532178455     -3.54347386990643     -0.00780316414624
C   -2.45512491866593      2.83421703463423     -0.00818572995999
C   4.91452486062398     -1.42718653794377      0.00136387641845
C   1.22142509354026      4.97013443726031      0.00150231067809
C   4.89300870916237      2.82518837202648     -0.00039219795739
C   -1.22669652864725     -3.54347062507680     -0.00753595973677
C   -3.68181849668397      0.70932533873199     -0.00807686886569
C   3.69314758099218     -3.54280096939050      0.00148176697923
C   -1.22143177215231      4.97012866986289      0.00168580605083
C   6.13477145276790      0.68054831910577     -0.00083909176631
C   3.65678936045204      4.97295361556775     -0.00065042889723
C   -2.45512642789169     -2.83421472106065      0.00758666850712
C   -3.68181869921921     -0.70932533146830      0.00810055625144
C   4.89301309775526     -2.82519973363176      0.00021895393805
C   -0.00000059327114      5.65044773803267      0.00045449734393
C   6.13477559217374     -0.68055448207492      0.00042622874941
C   2.47813196269732      5.65357712333155      0.00063835075260
C   1.22142288457925     -4.97012668293268     -0.00129718634452
C   -3.69316190412301      3.54279732619245     -0.00139355922051
C   -1.22142804110313     -4.97011793159564     -0.00140994817719
C   -4.91452132810043      1.42717581899491     -0.00153192130862
C   3.65678749952045     -4.97295485423912      0.00080007163680
C   -2.47813805026426      5.65357479452875      0.00092287576113
C   -3.69314125872231     -3.54278984697859      0.00136564082345
C   -4.91451200321153     -1.42718062802730      0.00139857359209
C   -0.00000552908399     -5.65043791501335      0.00005899322272
C   -4.89302000425900      2.82518897091939     -0.00040227981744
C   2.47812647313991     -5.65357317188818     -0.00029052915548
C   -3.65679823041642      4.97295655404175     -0.00047374852278
C   -4.89299899901461     -2.82519139505969      0.00006491824035
C   -2.47812801824129     -5.65356579800621     -0.00056571680280
C   -6.13477002348955      0.68054913825639     -0.00086464346868
C   -3.65678835334731     -4.97294365097028      0.00058578382008
C   -6.13476456307132     -0.68055354348201      0.00040575295444
H   5.83528897565761      3.36927626695423      0.00396712770529
H   7.07385965258860      1.22821762089947     -0.00037744837300
H   4.60066374401555      5.51238117445323     -0.00014522814529
H   5.83528386714679     -3.36930568472863     -0.00423551337640
H   -0.00001167146422      6.73853104613662     -0.00389474766392
H   7.07386165167227     -1.22822657074368     -0.00008250934481
H   2.47331421164041      6.74068466339473      0.00017162982210
H   4.60066897122302     -5.51237575717576      0.00039007446835
H   -2.47331820069565      6.74068209160650      0.00047297644710
H   -0.00000978838621     -6.73852780445195      0.00458867820736
H   -5.83530143450167      3.36927132229595      0.00410314985360
H   2.47330840367253     -6.74068500242887      0.00027980126949
H   -4.60067436136587      5.51237839860371      0.00002010017831
H   -5.83527902699321     -3.36928859177951     -0.00451481925734
H   -2.47329986759855     -6.74067870613986     -0.00016951527498
H   -7.07385728692578      1.22822084484047     -0.00046143985387
H   -4.60067330624313     -5.51236229778631      0.00021776644566
H   -7.07385645456741     -1.22822025997701     -0.00017736581114

    units angstrom      # Angstroms are the default
    no_reorient         # Geometry fixed, default
    symmetry c1         # C1 symmetry, default
}

set {
    scf_type DF         # Density fitting, faster than exact integrals
    freeze_core True    # Freeze core electrons
    basis jun-cc-pVDZ   # Jun-cc-pVDZ basis set, recommended for sSAPT0 in https://doi.org/10.1063/1.4867135
}

energy('ssapt0')        # Compute sSAPT0 energy, includes also SAPT0
--------------------------------------------------------------------------

  //              Dimer HF             //
    Molecular point group: c1
  Charge       = -1
  Multiplicity = 1
  Basis Set: JUN-CC-PVDZ
    Blend: JUN-CC-PVDZ
  Basis Set: (JUN-CC-PVDZ AUX)
    Blend: JUN-CC-PVDZ-JKFIT
  @DF-RHF Final Energy: -2478.66302623663159
    Total Energy =                      -2478.6630262366306852
 Dipole X            :         -0.0002326           -0.0000160           -0.0002486
 Dipole Y            :          0.0011635           -0.0001716            0.0009919
 Dipole Z            :         19.1544136          -24.5211596           -5.3667459
 Magnitude           :                                                    5.3667460
  //            Monomer A HF           //
    Molecular point group: c1
  Multiplicity = 1
  Basis Set: JUN-CC-PVDZ
    Blend: JUN-CC-PVDZ
  Basis Set: (JUN-CC-PVDZ AUX)
    Blend: JUN-CC-PVDZ-JKFIT
  @DF-RHF Final Energy:  -422.77288930346077
    Total Energy =                       -422.7728893034607722
  //            Monomer B HF           //
    Molecular point group: c1

    Geometry (in Angstrom), charge = 0, multiplicity = 1:

       Center              X                  Y                   Z               Mass
    ------------   -----------------  -----------------  -----------------  -----------------
      Gh(B)          -0.000046449334     0.000336519434     3.537917594667    11.009305360000
      Gh(F)          -1.153597449334     0.000047519434     4.353564594667    18.998403162730
      Gh(F)           1.153660550666    -0.000581480566     4.353564594667    18.998403162730
      Gh(F)          -0.000019449334    -1.153637480566     2.722283594667    18.998403162730
      Gh(F)          -0.000019449334     1.153977519434     2.722283594667    18.998403162730
         C            1.225311925931     0.707538180353    -0.455938778049    12.000000000000
         C            1.225323886559    -0.707539003137    -0.468269587620    12.000000000000
         C           -0.000006123424     1.414965805524    -0.468803211140    12.000000000000
         C            2.456448784457     1.418327778612    -0.453051920649    12.000000000000
         C            0.000010857787    -1.414976607201    -0.458603653816    12.000000000000
         C           -1.225300918401     0.707545265418    -0.453687257727    12.000000000000
         C            2.456437785828    -1.418323412447    -0.470514744476    12.000000000000
         C           -0.000001302470     2.836800922715    -0.471206761274    12.000000000000
         C            3.681826727978     0.709317847435    -0.470165954679    12.000000000000
         C            2.455120079373     2.834223552923    -0.470268511639    12.000000000000
         C            3.681821135726    -0.709333947995    -0.454093470660    12.000000000000
         C           -1.225313568180    -0.707527624110    -0.467196826193    12.000000000000
         C            1.226699611710     3.543469375428    -0.453909438729    12.000000000000
         C            0.000004815365    -2.836782247802    -0.453755486194    12.000000000000
         C           -2.456436002341     1.418316809719    -0.453651861881    12.000000000000
         C            2.455123448287    -2.834230137155    -0.454245379028    12.000000000000
         C           -1.226714334082     3.543468955184    -0.453806105510    12.000000000000
         C            4.914517325709     1.427172763923    -0.463685271649    12.000000000000
         C            3.693150221984     3.542795183979    -0.463635472013    12.000000000000
         C           -2.456437569560    -1.418313389406    -0.470539782601    12.000000000000
         C            1.226704872451    -3.543474350473    -0.469879569479    12.000000000000
         C           -2.455125368000     2.834216554068    -0.470262135293    12.000000000000
         C            4.914524411290    -1.427187018510    -0.460712528914    12.000000000000
         C            1.221424644206     4.970133956694    -0.460574094655    12.000000000000
         C            4.893008259828     2.825187891460    -0.462468603290    12.000000000000
         C           -1.226696977981    -3.543471105643    -0.469612365070    12.000000000000
         C           -3.681818946018     0.709324858166    -0.470153274199    12.000000000000
         C            3.693147131658    -3.542801449957    -0.460594638354    12.000000000000
         C           -1.221432221486     4.970128189296    -0.460390599282    12.000000000000
         C            6.134771003434     0.680547838539    -0.462915497099    12.000000000000
         C            3.656788911118     4.972953135001    -0.462726834230    12.000000000000
         C           -2.455126877226    -2.834215201627    -0.454489736826    12.000000000000
         C           -3.681819148553    -0.709325812035    -0.453975849081    12.000000000000
         C            4.893012648421    -2.825200214198    -0.461857451395    12.000000000000
         C           -0.000001042605     5.650447257466    -0.461621907989    12.000000000000
         C            6.134775142840    -0.680554962641    -0.461650176583    12.000000000000
         C            2.478131513363     5.653576642765    -0.461438054580    12.000000000000
         C            1.221422435245    -4.970127163499    -0.463373591677    12.000000000000
         C           -3.693162353457     3.542796845626    -0.463469964553    12.000000000000
         C           -1.221428490437    -4.970118412162    -0.463486353510    12.000000000000
         C           -4.914521777434     1.427175338429    -0.463608326641    12.000000000000
         C            3.656787050187    -4.972955334806    -0.461276333696    12.000000000000
         C           -2.478138499598     5.653574313962    -0.461153529572    12.000000000000
         C           -3.693141708056    -3.542790327545    -0.460710764509    12.000000000000
         C           -4.914512452545    -1.427181108594    -0.460677831741    12.000000000000
         C           -0.000005978418    -5.650438395580    -0.462017412110    12.000000000000
         C           -4.893020453593     2.825188490353    -0.462478685150    12.000000000000
         C            2.478126023806    -5.653573652455    -0.462366934488    12.000000000000
         C           -3.656798679750     4.972956073475    -0.462550153856    12.000000000000
         C           -4.892999448349    -2.825191875626    -0.462011487093    12.000000000000
         C           -2.478128467575    -5.653566278573    -0.462642122136    12.000000000000
         C           -6.134770472823     0.680548657690    -0.462941048802    12.000000000000
         C           -3.656788802681    -4.972944131537    -0.461490621513    12.000000000000
         C           -6.134765012405    -0.680554024048    -0.461670652378    12.000000000000
         H            5.835288526324     3.369275786388    -0.458109277628     1.007825032230
         H            7.073859203255     1.228217140333    -0.462453853706     1.007825032230
         H            4.600663294682     5.512380693887    -0.462221633478     1.007825032230
         H            5.835283417813    -3.369306165295    -0.466311918709     1.007825032230
         H           -0.000012120798     6.738530565570    -0.465971152997     1.007825032230
         H            7.073861202338    -1.228227051310    -0.462158914678     1.007825032230
         H            2.473313762307     6.740684182828    -0.461904775511     1.007825032230
         H            4.600668521889    -5.512376237742    -0.461686330865     1.007825032230
         H           -2.473318650030     6.740681611040    -0.461603428886     1.007825032230
         H           -0.000010237720    -6.738528285018    -0.457487727126     1.007825032230
         H           -5.835301883836     3.369270841730    -0.457973255479     1.007825032230
         H            2.473307954339    -6.740685482995    -0.461796604063     1.007825032230
         H           -4.600674810700     5.512377918037    -0.462056305155     1.007825032230
         H           -5.835279476327    -3.369289072346    -0.466591224590     1.007825032230
         H           -2.473300316932    -6.740679186706    -0.462245920608     1.007825032230
         H           -7.073857736260     1.228220364274    -0.462537845187     1.007825032230
         H           -4.600673755577    -5.512362778353    -0.461858638887     1.007825032230
         H           -7.073856903901    -1.228220740543    -0.462253771144     1.007825032230

  Charge       = 0
  Multiplicity = 1
  Basis Set: JUN-CC-PVDZ
    Blend: JUN-CC-PVDZ
  Basis Set: (JUN-CC-PVDZ AUX)
    Blend: JUN-CC-PVDZ-JKFIT

    Orbital Energies [Eh]
    ---------------------

    Doubly Occupied:

       1A    -11.260691     2A    -11.260273     3A    -11.260207
       4A    -11.259529     5A    -11.259454     6A    -11.259307
       7A    -11.259068     8A    -11.259021     9A    -11.258960
      10A    -11.258676    11A    -11.258647    12A    -11.258550
      13A    -11.258493    14A    -11.258489    15A    -11.258487
      16A    -11.258452    17A    -11.258449    18A    -11.258435
      19A    -11.258427    20A    -11.258427    21A    -11.258406
      22A    -11.258367    23A    -11.258333    24A    -11.258108
      25A    -11.257350    26A    -11.257300    27A    -11.257280
      28A    -11.257171    29A    -11.257144    30A    -11.257075
      31A    -11.256446    32A    -11.256384    33A    -11.256370
      34A    -11.256285    35A    -11.256250    36A    -11.256218
      37A    -11.252300    38A    -11.252299    39A    -11.252294
      40A    -11.252293    41A    -11.252291    42A    -11.252290
      43A    -11.251407    44A    -11.251405    45A    -11.251402
      46A    -11.251398    47A    -11.251393    48A    -11.251388
      49A    -11.250862    50A    -11.250861    51A    -11.250855
      52A    -11.250854    53A    -11.250852    54A    -11.250851
      55A     -1.244064    56A     -1.219835    57A     -1.219821
      58A     -1.189556    59A     -1.189552    60A     -1.180941
      61A     -1.157577    62A     -1.148995    63A     -1.135496
      64A     -1.135493    65A     -1.113211    66A     -1.113204
      67A     -1.082443    68A     -1.082438    69A     -1.078605
      70A     -1.065998    71A     -1.065997    72A     -1.039417
      73A     -1.024285    74A     -1.021760    75A     -1.021727
      76A     -1.017748    77A     -1.012816    78A     -0.987031
      79A     -0.986989    80A     -0.961897    81A     -0.961846
      82A     -0.894309    83A     -0.894282    84A     -0.887931
      85A     -0.886191    86A     -0.886121    87A     -0.881401
      88A     -0.881362    89A     -0.861918    90A     -0.837433
      91A     -0.818224    92A     -0.816618    93A     -0.812144
      94A     -0.812134    95A     -0.794705    96A     -0.794698
      97A     -0.746628    98A     -0.744868    99A     -0.733420
     100A     -0.733402   101A     -0.732198   102A     -0.732177
     103A     -0.716503   104A     -0.698985   105A     -0.698983
     106A     -0.693590   107A     -0.693584   108A     -0.661248
     109A     -0.653104   110A     -0.651156   111A     -0.650268
     112A     -0.650265   113A     -0.639379   114A     -0.639372
     115A     -0.629720   116A     -0.627536   117A     -0.627508
     118A     -0.606475   119A     -0.605829   120A     -0.601669
     121A     -0.599740   122A     -0.599725   123A     -0.593650
     124A     -0.591209   125A     -0.591204   126A     -0.585298
     127A     -0.576452   128A     -0.576364   129A     -0.567342
     130A     -0.567329   131A     -0.565961   132A     -0.565938
     133A     -0.558723   134A     -0.554858   135A     -0.554852
     136A     -0.538611   137A     -0.538608   138A     -0.538210
     139A     -0.538207   140A     -0.529733   141A     -0.528186
     142A     -0.522882   143A     -0.522880   144A     -0.500521
     145A     -0.495621   146A     -0.493250   147A     -0.487855
     148A     -0.485082   149A     -0.481768   150A     -0.481758
     151A     -0.470377   152A     -0.470336   153A     -0.451021
     154A     -0.450937   155A     -0.439091   156A     -0.439074
     157A     -0.404764   158A     -0.404734   159A     -0.403401
     160A     -0.375433   161A     -0.375429   162A     -0.349149
     163A     -0.337636   164A     -0.336589   165A     -0.336524
     166A     -0.311091   167A     -0.298128   168A     -0.284362
     169A     -0.284317   170A     -0.224934   171A     -0.224860

  @DF-RHF Final Energy: -2055.89362776326971

   => Energetics <=

    Nuclear Repulsion Energy =           6452.5568002797781446
    One-Electron Energy =              -15636.4769764353422943
    Two-Electron Energy =                7128.0265483922939893
    Total Energy =                      -2055.8936277632692509
 Dipole X            :          0.0000675            0.0000112            0.0000787
 Dipole Y            :          0.0003586           -0.0000531            0.0003055
 Dipole Z            :        298.6349185         -298.6351094           -0.0001909
 Magnitude           :                                                    0.0003687

    SAPT Results
  --------------------------------------------------------------------------------------------------------
    Electrostatics                 11.25375143 [mEh]       7.06183564 [kcal/mol]      29.54672031 [kJ/mol]
      Elst10,r                     11.25375143 [mEh]       7.06183564 [kcal/mol]      29.54672031 [kJ/mol]

    Exchange                        4.77187548 [mEh]       2.99439707 [kcal/mol]      12.52855735 [kJ/mol]
      Exch10                        4.77187548 [mEh]       2.99439707 [kcal/mol]      12.52855735 [kJ/mol]
      Exch10(S^2)                   4.76926730 [mEh]       2.99276041 [kcal/mol]      12.52170957 [kJ/mol]

    Induction                     -12.53479681 [mEh]      -7.86570375 [kcal/mol]     -32.91010449 [kJ/mol]
      Ind20,r                     -13.56470324 [mEh]      -8.51197980 [kcal/mol]     -35.61412346 [kJ/mol]
      Exch-Ind20,r                  1.32412804 [mEh]       0.83090289 [kcal/mol]       3.47649770 [kJ/mol]
      delta HF,r (2)               -0.29422161 [mEh]      -0.18462685 [kcal/mol]      -0.77247873 [kJ/mol]

    Dispersion                     -7.02780034 [mEh]      -4.41001129 [kcal/mol]     -18.45148725 [kJ/mol]
      Disp20                       -7.74272782 [mEh]      -4.85863506 [kcal/mol]     -20.32852909 [kJ/mol]
      Exch-Disp20                   0.71492748 [mEh]       0.44862377 [kcal/mol]       1.87704185 [kJ/mol]
      Disp20 (SS)                  -3.87136391 [mEh]      -2.42931753 [kcal/mol]     -10.16426455 [kJ/mol]
      Disp20 (OS)                  -3.87136391 [mEh]      -2.42931753 [kcal/mol]     -10.16426455 [kJ/mol]
      Exch-Disp20 (SS)              0.42410640 [mEh]       0.26613078 [kcal/mol]       1.11349120 [kJ/mol]
      Exch-Disp20 (OS)              0.29082108 [mEh]       0.18249298 [kcal/mol]       0.76355065 [kJ/mol]

  Total HF                          3.49083010 [mEh]       2.19052896 [kcal/mol]       9.16517316 [kJ/mol]
  Total SAPT0                      -3.53697024 [mEh]      -2.21948233 [kcal/mol]      -9.28631409 [kJ/mol]

  Special recipe for scaled SAPT0 (see Manual):
    Electrostatics sSAPT0          11.25375143 [mEh]       7.06183564 [kcal/mol]      29.54672031 [kJ/mol]
    Exchange sSAPT0                 4.77187548 [mEh]       2.99439707 [kcal/mol]      12.52855735 [kJ/mol]
    Induction sSAPT0              -12.53262324 [mEh]      -7.86433981 [kcal/mol]     -32.90439778 [kJ/mol]
    Dispersion sSAPT0              -7.02662678 [mEh]      -4.40927487 [kcal/mol]     -18.44840606 [kJ/mol]
  Total sSAPT0                     -3.53362310 [mEh]      -2.21738197 [kcal/mol]      -9.27752618 [kJ/mol]
  --------------------------------------------------------------------------------------------------------

*** Psi4 exiting successfully. Buy a developer a beer!
