                               Psi4 1.9 release

  ==> Input File <==

--------------------------------------------------------------------------
memory 32 GB # how much memory is available ! Depends on the nodes/cores !

molecule dimer {
# monomer A
+1 1    # Charge and multiplicity
C  0.680067 -0.008042 -7.215929
C -0.680504 -0.006014 -7.215545
N -1.085635 -0.005016 -5.897221
C  0.000108 -0.001740 -5.115820
C -2.477365  0.044390 -5.429242
N  1.085222 -0.005016 -5.897221
H  1.385146 -0.015870 -8.033368
H -1.385302 -0.006204 -8.033214
H -0.000009  0.000007 -4.034731
C  2.478117 -0.021908 -5.432123
H  2.490592  0.005437 -4.341870
H  2.967028 -0.935354 -5.779299
H  3.001428  0.853575 -5.823595
H -2.857359  1.066461 -5.509201
H -3.082679 -0.625694 -6.042306
H -2.518128 -0.282594 -4.389294
--
# monomer B
0 1     # Charge and multiplicity
C   1.22531237526482      0.70753866091955      0.00613762728373
C   1.22532433589282     -0.70753852257020     -0.00619318228664
C   -0.00000567409046      1.41496628609039     -0.00672680580738
C   2.45644923379077      1.41832825917820      0.00902448468363
C   0.00001130712078     -1.41497612663474      0.00347275151708
C   -1.22530046906674      0.70754574598412      0.00838914760619
C   2.45643823516184     -1.41832293188077     -0.00843833914343
C   -0.00000085313587      2.83680140328112     -0.00913035594137
C   3.68182717731192      0.70931832800114     -0.00808954934571
C   2.45512052870677      2.83422403348893     -0.00819210630633
C   3.68182158506039     -0.70933346742900      0.00798293467272
C   -1.22531311884624     -0.70752714354401     -0.00512042085974
C   1.22670006104402      3.54346985599427      0.00816696660346
C   0.00000526469929     -2.83678176723568      0.00832091913869
C   -2.45643555300670      1.41831729028492      0.00842454345199
C   2.45512389762097     -2.83422965658853      0.00783102630520
C   -1.22671388474763      3.54346943575023      0.00827029982280
C   4.91451777504333      1.42717324448953     -0.00160886631602
C   3.69315067131765      3.54279566454522     -0.00155906667985
C   -2.45643712022637     -1.41831290883911     -0.00846337726810
C   1.22670532178455     -3.54347386990643     -0.00780316414624
C   -2.45512491866593      2.83421703463423     -0.00818572995999
C   4.91452486062398     -1.42718653794377      0.00136387641845
C   1.22142509354026      4.97013443726031      0.00150231067809
C   4.89300870916237      2.82518837202648     -0.00039219795739
C   -1.22669652864725     -3.54347062507680     -0.00753595973677
C   -3.68181849668397      0.70932533873199     -0.00807686886569
C   3.69314758099218     -3.54280096939050      0.00148176697923
C   -1.22143177215231      4.97012866986289      0.00168580605083
C   6.13477145276790      0.68054831910577     -0.00083909176631
C   3.65678936045204      4.97295361556775     -0.00065042889723
C   -2.45512642789169     -2.83421472106065      0.00758666850712
C   -3.68181869921921     -0.70932533146830      0.00810055625144
C   4.89301309775526     -2.82519973363176      0.00021895393805
C   -0.00000059327114      5.65044773803267      0.00045449734393
C   6.13477559217374     -0.68055448207492      0.00042622874941
C   2.47813196269732      5.65357712333155      0.00063835075260
C   1.22142288457925     -4.97012668293268     -0.00129718634452
C   -3.69316190412301      3.54279732619245     -0.00139355922051
C   -1.22142804110313     -4.97011793159564     -0.00140994817719
C   -4.91452132810043      1.42717581899491     -0.00153192130862
C   3.65678749952045     -4.97295485423912      0.00080007163680
C   -2.47813805026426      5.65357479452875      0.00092287576113
C   -3.69314125872231     -3.54278984697859      0.00136564082345
C   -4.91451200321153     -1.42718062802730      0.00139857359209
C   -0.00000552908399     -5.65043791501335      0.00005899322272
C   -4.89302000425900      2.82518897091939     -0.00040227981744
C   2.47812647313991     -5.65357317188818     -0.00029052915548
C   -3.65679823041642      4.97295655404175     -0.00047374852278
C   -4.89299899901461     -2.82519139505969      0.00006491824035
C   -2.47812801824129     -5.65356579800621     -0.00056571680280
C   -6.13477002348955      0.68054913825639     -0.00086464346868
C   -3.65678835334731     -4.97294365097028      0.00058578382008
C   -6.13476456307132     -0.68055354348201      0.00040575295444
H   5.83528897565761      3.36927626695423      0.00396712770529
H   7.07385965258860      1.22821762089947     -0.00037744837300
H   4.60066374401555      5.51238117445323     -0.00014522814529
H   5.83528386714679     -3.36930568472863     -0.00423551337640
H   -0.00001167146422      6.73853104613662     -0.00389474766392
H   7.07386165167227     -1.22822657074368     -0.00008250934481
H   2.47331421164041      6.74068466339473      0.00017162982210
H   4.60066897122302     -5.51237575717576      0.00039007446835
H   -2.47331820069565      6.74068209160650      0.00047297644710
H   -0.00000978838621     -6.73852780445195      0.00458867820736
H   -5.83530143450167      3.36927132229595      0.00410314985360
H   2.47330840367253     -6.74068500242887      0.00027980126949
H   -4.60067436136587      5.51237839860371      0.00002010017831
H   -5.83527902699321     -3.36928859177951     -0.00451481925734
H   -2.47329986759855     -6.74067870613986     -0.00016951527498
H   -7.07385728692578      1.22822084484047     -0.00046143985387
H   -4.60067330624313     -5.51236229778631      0.00021776644566
H   -7.07385645456741     -1.22822025997701     -0.00017736581114

    units angstrom      # Angstroms are the default
    no_reorient         # Geometry fixed, default
    symmetry c1         # C1 symmetry, default
}

set {
    scf_type DF         # Density fitting, faster than exact integrals
    freeze_core True    # Freeze core electrons
    basis jun-cc-pVDZ   # Jun-cc-pVDZ basis set, recommended for sSAPT0 in https://doi.org/10.1063/1.4867135
}

energy('ssapt0')        # Compute sSAPT0 energy, includes also SAPT0
--------------------------------------------------------------------------

  //              Dimer HF             //
    Molecular point group: c1
  Charge       = 1
  Multiplicity = 1
  Basis Set: JUN-CC-PVDZ
    Blend: JUN-CC-PVDZ
  Basis Set: (JUN-CC-PVDZ AUX)
    Blend: JUN-CC-PVDZ-JKFIT
  @DF-RHF Final Energy: -2359.20458347759131
    Total Energy =                      -2359.2045834775908588
 Dipole X            :         -0.0014532            0.0006313           -0.0008219
 Dipole Y            :         -0.0487348            0.0560211            0.0072863
 Dipole Z            :         21.0607352          -29.3892626           -8.3285274
 Magnitude           :                                                    8.3285306
  //            Monomer A HF           //
    Molecular point group: c1
  Multiplicity = 1
  Basis Set: JUN-CC-PVDZ
    Blend: JUN-CC-PVDZ
  Basis Set: (JUN-CC-PVDZ AUX)
    Blend: JUN-CC-PVDZ-JKFIT
  @DF-RHF Final Energy:  -303.29743317269600
    Total Energy =                       -303.2974331726960031
  //            Monomer B HF           //
    Molecular point group: c1

    Geometry (in Angstrom), charge = 0, multiplicity = 1:

       Center              X                  Y                   Z               Mass
    ------------   -----------------  -----------------  -----------------  -----------------
      Gh(C)           0.680066520158    -0.008042372515    -6.452768084598    12.000000000000
      Gh(C)          -0.680504479842    -0.006014372515    -6.452384084598    12.000000000000
      Gh(N)          -1.085635479842    -0.005016372515    -5.134060084598    14.003074004430
      Gh(C)           0.000107520158    -0.001740372515    -4.352659084598    12.000000000000
      Gh(C)          -2.477365479842     0.044389627485    -4.666081084598    12.000000000000
      Gh(N)           1.085221520158    -0.005016372515    -5.134060084598    14.003074004430
      Gh(H)           1.385145520158    -0.015870372515    -7.270207084598     1.007825032230
      Gh(H)          -1.385302479842    -0.006204372515    -7.270053084598     1.007825032230
      Gh(H)          -0.000009479842     0.000006627485    -3.271570084598     1.007825032230
      Gh(C)           2.478116520158    -0.021908372515    -4.668962084598    12.000000000000
      Gh(H)           2.490591520158     0.005436627485    -3.578709084598     1.007825032230
      Gh(H)           2.967027520158    -0.935354372515    -5.016138084598     1.007825032230
      Gh(H)           3.001427520158     0.853574627485    -5.060434084598     1.007825032230
      Gh(H)          -2.857359479842     1.066460627485    -4.746040084598     1.007825032230
      Gh(H)          -3.082679479842    -0.625694372515    -5.279145084598     1.007825032230
      Gh(H)          -2.518128479842    -0.282594372515    -3.626133084598     1.007825032230
         C            1.225311895423     0.707538288405     0.769298542685    12.000000000000
         C            1.225323856051    -0.707538895085     0.756967733115    12.000000000000
         C           -0.000006153932     1.414965913575     0.756434109594    12.000000000000
         C            2.456448753949     1.418327886663     0.772185400085    12.000000000000
         C            0.000010827279    -1.414976499150     0.766633666919    12.000000000000
         C           -1.225300948908     0.707545373469     0.771550063008    12.000000000000
         C            2.456437755320    -1.418323304396     0.754722576258    12.000000000000
         C           -0.000001332978     2.836801030766     0.754030559460    12.000000000000
         C            3.681826697470     0.709317955486     0.755071366056    12.000000000000
         C            2.455120048865     2.834223660974     0.754968809095    12.000000000000
         C            3.681821105219    -0.709333839944     0.771143850074    12.000000000000
         C           -1.225313598688    -0.707527516059     0.758040494542    12.000000000000
         C            1.226699581202     3.543469483479     0.771327882005    12.000000000000
         C            0.000004784858    -2.836782139751     0.771481834540    12.000000000000
         C           -2.456436032848     1.418316917770     0.771585458854    12.000000000000
         C            2.455123417779    -2.834230029103     0.770991941707    12.000000000000
         C           -1.226714364589     3.543469063235     0.771431215225    12.000000000000
         C            4.914517295202     1.427172871975     0.761552049086    12.000000000000
         C            3.693150191476     3.542795292030     0.761601848722    12.000000000000
         C           -2.456437600068    -1.418313281354     0.754697538134    12.000000000000
         C            1.226704841943    -3.543474242421     0.755357751255    12.000000000000
         C           -2.455125398508     2.834216662119     0.754975185442    12.000000000000
         C            4.914524380782    -1.427186910459     0.764524791820    12.000000000000
         C            1.221424613699     4.970134064745     0.764663226080    12.000000000000
         C            4.893008229321     2.825187999512     0.762768717444    12.000000000000
         C           -1.226697008489    -3.543470997592     0.755624955665    12.000000000000
         C           -3.681818976526     0.709324966217     0.755084046536    12.000000000000
         C            3.693147101150    -3.542801341905     0.764642682381    12.000000000000
         C           -1.221432251994     4.970128297348     0.764846721453    12.000000000000
         C            6.134770972926     0.680547946591     0.762321823635    12.000000000000
         C            3.656788880610     4.972953243053     0.762510486504    12.000000000000
         C           -2.455126907733    -2.834215093576     0.770747583909    12.000000000000
         C           -3.681819179061    -0.709325703983     0.771261471653    12.000000000000
         C            4.893012617914    -2.825200106147     0.763379869340    12.000000000000
         C           -0.000001073113     5.650447365518     0.763615412746    12.000000000000
         C            6.134775112332    -0.680554854590     0.763587144151    12.000000000000
         C            2.478131482856     5.653576750817     0.763799266154    12.000000000000
         C            1.221422404738    -4.970127055448     0.761863729057    12.000000000000
         C           -3.693162383965     3.542796953677     0.761767356181    12.000000000000
         C           -1.221428520945    -4.970118304111     0.761750967225    12.000000000000
         C           -4.914521807942     1.427175446480     0.761628994093    12.000000000000
         C            3.656787019679    -4.972955226754     0.763960987039    12.000000000000
         C           -2.478138530106     5.653574422014     0.764083791163    12.000000000000
         C           -3.693141738564    -3.542790219494     0.764526556225    12.000000000000
         C           -4.914512483053    -1.427181000542     0.764559488994    12.000000000000
         C           -0.000006008926    -5.650438287528     0.763219908624    12.000000000000
         C           -4.893020484101     2.825188598404     0.762758635584    12.000000000000
         C            2.478125993298    -5.653573544403     0.762870386246    12.000000000000
         C           -3.656798710258     4.972956181527     0.762687166879    12.000000000000
         C           -4.892999478856    -2.825191767575     0.763225833642    12.000000000000
         C           -2.478128498083    -5.653566170521     0.762595198599    12.000000000000
         C           -6.134770503331     0.680548765741     0.762296271933    12.000000000000
         C           -3.656788833189    -4.972944023485     0.763746699222    12.000000000000
         C           -6.134765042913    -0.680553915997     0.763566668356    12.000000000000
         H            5.835288495816     3.369275894439     0.767128043107     1.007825032230
         H            7.073859172747     1.228217248385     0.762783467029     1.007825032230
         H            4.600663264174     5.512380801938     0.763015687256     1.007825032230
         H            5.835283387305    -3.369306057244     0.758925402025     1.007825032230
         H           -0.000012151306     6.738530673622     0.759266167738     1.007825032230
         H            7.073861171831    -1.228226943259     0.763078406057     1.007825032230
         H            2.473313731799     6.740684290880     0.763332545224     1.007825032230
         H            4.600668491381    -5.512376129691     0.763550989870     1.007825032230
         H           -2.473318680537     6.740681719092     0.763633891849     1.007825032230
         H           -0.000010268228    -6.738528176967     0.767749593609     1.007825032230
         H           -5.835301914343     3.369270949781     0.767264065255     1.007825032230
         H            2.473307923831    -6.740685374944     0.763440716671     1.007825032230
         H           -4.600674841208     5.512378026089     0.763181015580     1.007825032230
         H           -5.835279506835    -3.369288964294     0.758646096144     1.007825032230
         H           -2.473300347440    -6.740679078655     0.762991400127     1.007825032230
         H           -7.073857766768     1.228220472326     0.762699475548     1.007825032230
         H           -4.600673786085    -5.512362670301     0.763378681847     1.007825032230
         H           -7.073856934409    -1.228220632492     0.762983549591     1.007825032230

  Charge       = 0
  Multiplicity = 1
  Basis Set: JUN-CC-PVDZ
    Blend: JUN-CC-PVDZ
  Basis Set: (JUN-CC-PVDZ AUX)
    Blend: JUN-CC-PVDZ-JKFIT

    Orbital Energies [Eh]
    ---------------------

    Doubly Occupied:

       1A    -11.260603     2A    -11.260160     3A    -11.260155
       4A    -11.259437     5A    -11.259434     6A    -11.259261
       7A    -11.259046     8A    -11.258970     9A    -11.258969
      10A    -11.258648    11A    -11.258642    12A    -11.258568
      13A    -11.258507    14A    -11.258501    15A    -11.258500
      16A    -11.258470    17A    -11.258462    18A    -11.258446
      19A    -11.258436    20A    -11.258429    21A    -11.258423
      22A    -11.258335    23A    -11.258329    24A    -11.258043
      25A    -11.257362    26A    -11.257302    27A    -11.257297
      28A    -11.257167    29A    -11.257161    30A    -11.257079
      31A    -11.256457    32A    -11.256390    33A    -11.256381
      34A    -11.256279    35A    -11.256272    36A    -11.256228
      37A    -11.252319    38A    -11.252319    39A    -11.252316
      40A    -11.252316    41A    -11.252306    42A    -11.252304
      43A    -11.251436    44A    -11.251435    45A    -11.251431
      46A    -11.251427    47A    -11.251424    48A    -11.251421
      49A    -11.250881    50A    -11.250880    51A    -11.250877
      52A    -11.250877    53A    -11.250867    54A    -11.250866
      55A     -1.244127    56A     -1.219875    57A     -1.219861
      58A     -1.189594    59A     -1.189580    60A     -1.181011
      61A     -1.157604    62A     -1.149026    63A     -1.135556
      64A     -1.135540    65A     -1.113236    66A     -1.113233
      67A     -1.082483    68A     -1.082476    69A     -1.078662
      70A     -1.066025    71A     -1.066018    72A     -1.039444
      73A     -1.024330    74A     -1.021833    75A     -1.021780
      76A     -1.017769    77A     -1.012838    78A     -0.987075
      79A     -0.987023    80A     -0.961926    81A     -0.961874
      82A     -0.894337    83A     -0.894312    84A     -0.887994
      85A     -0.886241    86A     -0.886191    87A     -0.881447
      88A     -0.881401    89A     -0.861944    90A     -0.837448
      91A     -0.818254    92A     -0.816670    93A     -0.812185
      94A     -0.812182    95A     -0.794734    96A     -0.794721
      97A     -0.746679    98A     -0.744911    99A     -0.733469
     100A     -0.733468   101A     -0.732226   102A     -0.732202
     103A     -0.716550   104A     -0.699024   105A     -0.699002
     106A     -0.693640   107A     -0.693610   108A     -0.661275
     109A     -0.653171   110A     -0.651213   111A     -0.650297
     112A     -0.650290   113A     -0.639407   114A     -0.639392
     115A     -0.629765   116A     -0.627573   117A     -0.627560
     118A     -0.606498   119A     -0.605843   120A     -0.601709
     121A     -0.599791   122A     -0.599740   123A     -0.593679
     124A     -0.591284   125A     -0.591262   126A     -0.585316
     127A     -0.576443   128A     -0.576362   129A     -0.567366
     130A     -0.567347   131A     -0.566010   132A     -0.565995
     133A     -0.558779   134A     -0.554891   135A     -0.554890
     136A     -0.538636   137A     -0.538634   138A     -0.538238
     139A     -0.538216   140A     -0.529760   141A     -0.528211
     142A     -0.522924   143A     -0.522902   144A     -0.500546
     145A     -0.495652   146A     -0.493278   147A     -0.487868
     148A     -0.485117   149A     -0.481801   150A     -0.481798
     151A     -0.470368   152A     -0.470352   153A     -0.451074
     154A     -0.451002   155A     -0.439105   156A     -0.439098
     157A     -0.404792   158A     -0.404753   159A     -0.403432
     160A     -0.375462   161A     -0.375455   162A     -0.349166
     163A     -0.337614   164A     -0.336582   165A     -0.336548
     166A     -0.311132   167A     -0.298137   168A     -0.284376
     169A     -0.284330   170A     -0.224954   171A     -0.224893

  @DF-RHF Final Energy: -2055.89293754410255

   => Energetics <=

    Nuclear Repulsion Energy =           6452.5568002797781446
    One-Electron Energy =              -15636.4677444723820372
    Two-Electron Energy =                7128.0180066485027055
    Total Energy =                      -2055.8929375441020966
 Dipole X            :          0.0001280           -0.0000085            0.0001195
 Dipole Y            :         -0.0000652            0.0000167           -0.0000485
 Dipole Z            :       -493.2103431          493.2190280            0.0086849
 Magnitude           :                                                    0.0086859

    SAPT Results
  --------------------------------------------------------------------------------------------------------
    Electrostatics                 -9.63384595 [mEh]      -6.04532960 [kcal/mol]     -25.29365905 [kJ/mol]
      Elst10,r                     -9.63384595 [mEh]      -6.04532960 [kcal/mol]     -25.29365905 [kJ/mol]

    Exchange                        0.03700814 [mEh]       0.02322296 [kcal/mol]       0.09716486 [kJ/mol]
      Exch10                        0.03700814 [mEh]       0.02322296 [kcal/mol]       0.09716486 [kJ/mol]
      Exch10(S^2)                   0.03700742 [mEh]       0.02322251 [kcal/mol]       0.09716297 [kJ/mol]

    Induction                      -4.61592298 [mEh]      -2.89653540 [kcal/mol]     -12.11910413 [kJ/mol]
      Ind20,r                      -4.44558421 [mEh]      -2.78964621 [kcal/mol]     -11.67187973 [kJ/mol]
      Exch-Ind20,r                  0.00813049 [mEh]       0.00510196 [kcal/mol]       0.02134659 [kJ/mol]
      delta HF,r (2)               -0.17846926 [mEh]      -0.11199115 [kcal/mol]      -0.46857099 [kJ/mol]

    Dispersion                     -3.51584563 [mEh]      -2.20622644 [kcal/mol]      -9.23085142 [kJ/mol]
      Disp20                       -3.52202301 [mEh]      -2.21010281 [kcal/mol]      -9.24707015 [kJ/mol]
      Exch-Disp20                   0.00617739 [mEh]       0.00387637 [kcal/mol]       0.01621873 [kJ/mol]
      Disp20 (SS)                  -1.76101151 [mEh]      -1.10505140 [kcal/mol]      -4.62353507 [kJ/mol]
      Disp20 (OS)                  -1.76101151 [mEh]      -1.10505140 [kcal/mol]      -4.62353507 [kJ/mol]
      Exch-Disp20 (SS)              0.00424734 [mEh]       0.00266525 [kcal/mol]       0.01115139 [kJ/mol]
      Exch-Disp20 (OS)              0.00193005 [mEh]       0.00121112 [kcal/mol]       0.00506734 [kJ/mol]

  Total HF                        -14.21276079 [mEh]      -8.91864205 [kcal/mol]     -37.31559832 [kJ/mol]
  Total SAPT0                     -17.72860642 [mEh]     -11.12486848 [kcal/mol]     -46.54644974 [kJ/mol]

  Special recipe for scaled SAPT0 (see Manual):
    Electrostatics sSAPT0          -9.63384595 [mEh]      -6.04532960 [kcal/mol]     -25.29365905 [kJ/mol]
    Exchange sSAPT0                 0.03700814 [mEh]       0.02322296 [kcal/mol]       0.09716486 [kJ/mol]
    Induction sSAPT0               -4.61592251 [mEh]      -2.89653511 [kcal/mol]     -12.11910288 [kJ/mol]
    Dispersion sSAPT0              -3.51584527 [mEh]      -2.20622621 [kcal/mol]      -9.23085047 [kJ/mol]
  Total sSAPT0                    -17.72860558 [mEh]     -11.12486796 [kcal/mol]     -46.54644755 [kJ/mol]
  --------------------------------------------------------------------------------------------------------

*** Psi4 exiting successfully. Buy a developer a beer!
