                               Psi4 1.9 release

  ==> Input File <==

--------------------------------------------------------------------------
memory 32 GB # how much memory is available ! Depends on the nodes/cores !

molecule dimer {
# monomer A
-1 1    # Charge and multiplicity
B -1.977592e-04  2.742729e-04 -3.599966
F  1.123153e-16  1.430594e-17 -2.187181
F  1.147860e+00  6.757812e-01 -4.071107
F  1.191806e-02 -1.332011e+00 -4.070905
F -1.159666e+00  6.560735e-01 -4.070826
--
# monomer B
0 1     # Charge and multiplicity
C   1.22531237526482      0.70753866091955      0.00613762728373
C   1.22532433589282     -0.70753852257020     -0.00619318228664
C   -0.00000567409046      1.41496628609039     -0.00672680580738
C   2.45644923379077      1.41832825917820      0.00902448468363
C   0.00001130712078     -1.41497612663474      0.00347275151708
C   -1.22530046906674      0.70754574598412      0.00838914760619
C   2.45643823516184     -1.41832293188077     -0.00843833914343
C   -0.00000085313587      2.83680140328112     -0.00913035594137
C   3.68182717731192      0.70931832800114     -0.00808954934571
C   2.45512052870677      2.83422403348893     -0.00819210630633
C   3.68182158506039     -0.70933346742900      0.00798293467272
C   -1.22531311884624     -0.70752714354401     -0.00512042085974
C   1.22670006104402      3.54346985599427      0.00816696660346
C   0.00000526469929     -2.83678176723568      0.00832091913869
C   -2.45643555300670      1.41831729028492      0.00842454345199
C   2.45512389762097     -2.83422965658853      0.00783102630520
C   -1.22671388474763      3.54346943575023      0.00827029982280
C   4.91451777504333      1.42717324448953     -0.00160886631602
C   3.69315067131765      3.54279566454522     -0.00155906667985
C   -2.45643712022637     -1.41831290883911     -0.00846337726810
C   1.22670532178455     -3.54347386990643     -0.00780316414624
C   -2.45512491866593      2.83421703463423     -0.00818572995999
C   4.91452486062398     -1.42718653794377      0.00136387641845
C   1.22142509354026      4.97013443726031      0.00150231067809
C   4.89300870916237      2.82518837202648     -0.00039219795739
C   -1.22669652864725     -3.54347062507680     -0.00753595973677
C   -3.68181849668397      0.70932533873199     -0.00807686886569
C   3.69314758099218     -3.54280096939050      0.00148176697923
C   -1.22143177215231      4.97012866986289      0.00168580605083
C   6.13477145276790      0.68054831910577     -0.00083909176631
C   3.65678936045204      4.97295361556775     -0.00065042889723
C   -2.45512642789169     -2.83421472106065      0.00758666850712
C   -3.68181869921921     -0.70932533146830      0.00810055625144
C   4.89301309775526     -2.82519973363176      0.00021895393805
C   -0.00000059327114      5.65044773803267      0.00045449734393
C   6.13477559217374     -0.68055448207492      0.00042622874941
C   2.47813196269732      5.65357712333155      0.00063835075260
C   1.22142288457925     -4.97012668293268     -0.00129718634452
C   -3.69316190412301      3.54279732619245     -0.00139355922051
C   -1.22142804110313     -4.97011793159564     -0.00140994817719
C   -4.91452132810043      1.42717581899491     -0.00153192130862
C   3.65678749952045     -4.97295485423912      0.00080007163680
C   -2.47813805026426      5.65357479452875      0.00092287576113
C   -3.69314125872231     -3.54278984697859      0.00136564082345
C   -4.91451200321153     -1.42718062802730      0.00139857359209
C   -0.00000552908399     -5.65043791501335      0.00005899322272
C   -4.89302000425900      2.82518897091939     -0.00040227981744
C   2.47812647313991     -5.65357317188818     -0.00029052915548
C   -3.65679823041642      4.97295655404175     -0.00047374852278
C   -4.89299899901461     -2.82519139505969      0.00006491824035
C   -2.47812801824129     -5.65356579800621     -0.00056571680280
C   -6.13477002348955      0.68054913825639     -0.00086464346868
C   -3.65678835334731     -4.97294365097028      0.00058578382008
C   -6.13476456307132     -0.68055354348201      0.00040575295444
H   5.83528897565761      3.36927626695423      0.00396712770529
H   7.07385965258860      1.22821762089947     -0.00037744837300
H   4.60066374401555      5.51238117445323     -0.00014522814529
H   5.83528386714679     -3.36930568472863     -0.00423551337640
H   -0.00001167146422      6.73853104613662     -0.00389474766392
H   7.07386165167227     -1.22822657074368     -0.00008250934481
H   2.47331421164041      6.74068466339473      0.00017162982210
H   4.60066897122302     -5.51237575717576      0.00039007446835
H   -2.47331820069565      6.74068209160650      0.00047297644710
H   -0.00000978838621     -6.73852780445195      0.00458867820736
H   -5.83530143450167      3.36927132229595      0.00410314985360
H   2.47330840367253     -6.74068500242887      0.00027980126949
H   -4.60067436136587      5.51237839860371      0.00002010017831
H   -5.83527902699321     -3.36928859177951     -0.00451481925734
H   -2.47329986759855     -6.74067870613986     -0.00016951527498
H   -7.07385728692578      1.22822084484047     -0.00046143985387
H   -4.60067330624313     -5.51236229778631      0.00021776644566
H   -7.07385645456741     -1.22822025997701     -0.00017736581114

    units angstrom      # Angstroms are the default
    no_reorient         # Geometry fixed, default
    symmetry c1         # C1 symmetry, default
}

set {
    scf_type DF         # Density fitting, faster than exact integrals
    freeze_core True    # Freeze core electrons
    basis jun-cc-pVDZ   # Jun-cc-pVDZ basis set, recommended for sSAPT0 in https://doi.org/10.1063/1.4867135
}

energy('ssapt0')        # Compute sSAPT0 energy, includes also SAPT0
--------------------------------------------------------------------------

  //              Dimer HF             //
    Molecular point group: c1
  Charge       = -1
  Multiplicity = 1
  Basis Set: JUN-CC-PVDZ
    Blend: JUN-CC-PVDZ
  Basis Set: (JUN-CC-PVDZ AUX)
    Blend: JUN-CC-PVDZ-JKFIT
  @DF-RHF Final Energy: -2478.64568261685872
    Total Energy =                      -2478.6456826168596308
 Dipole X            :         -0.0004395            0.0000481           -0.0003915
 Dipole Y            :          0.0008515           -0.0001453            0.0007062
 Dipole Z            :        -17.4945089           22.0693562            4.5748473
 Magnitude           :                                                    4.5748474
  //            Monomer A HF           //
    Molecular point group: c1
  Multiplicity = 1
  Basis Set: JUN-CC-PVDZ
    Blend: JUN-CC-PVDZ
  Basis Set: (JUN-CC-PVDZ AUX)
    Blend: JUN-CC-PVDZ-JKFIT
  @DF-RHF Final Energy:  -422.77355042579319
    Total Energy =                       -422.7735504257931893
  //            Monomer B HF           //
    Molecular point group: c1

    Geometry (in Angstrom), charge = 0, multiplicity = 1:

       Center              X                  Y                   Z               Mass
    ------------   -----------------  -----------------  -----------------  -----------------
      Gh(B)          -0.000198161052     0.000273808717    -3.184092984448    11.009305360000
      Gh(F)          -0.000000401852    -0.000000464183    -1.771307984448    18.998403162730
      Gh(F)           1.147859598148     0.675780735817    -3.655233984448    18.998403162730
      Gh(F)           0.011917658148    -1.332011464183    -3.655031984448    18.998403162730
      Gh(F)          -1.159666401852     0.656073035817    -3.654952984448    18.998403162730
         C            1.225311973413     0.707538196736     0.422010642835    12.000000000000
         C            1.225323934041    -0.707538986754     0.409679833265    12.000000000000
         C           -0.000006075942     1.414965821907     0.409146209744    12.000000000000
         C            2.456448831939     1.418327794995     0.424897500235    12.000000000000
         C            0.000010905269    -1.414976590818     0.419345767069    12.000000000000
         C           -1.225300870919     0.707545281801     0.424262163158    12.000000000000
         C            2.456437833310    -1.418323396064     0.407434676408    12.000000000000
         C           -0.000001254988     2.836800939098     0.406742659610    12.000000000000
         C            3.681826775460     0.709317863818     0.407783466206    12.000000000000
         C            2.455120126855     2.834223569306     0.407680909245    12.000000000000
         C            3.681821183209    -0.709333931612     0.423855950224    12.000000000000
         C           -1.225313520698    -0.707527607727     0.410752594692    12.000000000000
         C            1.226699659192     3.543469391811     0.424039982155    12.000000000000
         C            0.000004862847    -2.836782231419     0.424193934690    12.000000000000
         C           -2.456435954859     1.418316826102     0.424297559004    12.000000000000
         C            2.455123495769    -2.834230120772     0.423704041857    12.000000000000
         C           -1.226714286599     3.543468971567     0.424143315374    12.000000000000
         C            4.914517373191     1.427172780306     0.414264149236    12.000000000000
         C            3.693150269466     3.542795200362     0.414313948872    12.000000000000
         C           -2.456437522078    -1.418313373022     0.407409638283    12.000000000000
         C            1.226704919933    -3.543474334090     0.408069851405    12.000000000000
         C           -2.455125320518     2.834216570451     0.407687285592    12.000000000000
         C            4.914524458772    -1.427187002127     0.417236891970    12.000000000000
         C            1.221424691688     4.970133973077     0.417375326230    12.000000000000
         C            4.893008307311     2.825187907843     0.415480817594    12.000000000000
         C           -1.226696930499    -3.543471089260     0.408337055815    12.000000000000
         C           -3.681818898536     0.709324874549     0.407796146686    12.000000000000
         C            3.693147179140    -3.542801433574     0.417354782531    12.000000000000
         C           -1.221432174004     4.970128205680     0.417558821602    12.000000000000
         C            6.134771050916     0.680547854922     0.415033923785    12.000000000000
         C            3.656788958600     4.972953151384     0.415222586654    12.000000000000
         C           -2.455126829744    -2.834215185244     0.423459684059    12.000000000000
         C           -3.681819101071    -0.709325795652     0.423973571803    12.000000000000
         C            4.893012695903    -2.825200197815     0.416091969490    12.000000000000
         C           -0.000000995123     5.650447273849     0.416327512895    12.000000000000
         C            6.134775190322    -0.680554946258     0.416299244301    12.000000000000
         C            2.478131560845     5.653576659148     0.416511366304    12.000000000000
         C            1.221422482727    -4.970127147116     0.414575829207    12.000000000000
         C           -3.693162305975     3.542796862009     0.414479456331    12.000000000000
         C           -1.221428442955    -4.970118395779     0.414463067374    12.000000000000
         C           -4.914521729952     1.427175354812     0.414341094243    12.000000000000
         C            3.656787097669    -4.972955318422     0.416673087188    12.000000000000
         C           -2.478138452116     5.653574330345     0.416795891313    12.000000000000
         C           -3.693141660574    -3.542790311162     0.417238656375    12.000000000000
         C           -4.914512405063    -1.427181092211     0.417271589144    12.000000000000
         C           -0.000005930936    -5.650438379197     0.415932008774    12.000000000000
         C           -4.893020406111     2.825188506736     0.415470735734    12.000000000000
         C            2.478126071288    -5.653573636072     0.415582486396    12.000000000000
         C           -3.656798632268     4.972956089858     0.415399267029    12.000000000000
         C           -4.892999400866    -2.825191859243     0.415937933792    12.000000000000
         C           -2.478128420093    -5.653566262190     0.415307298749    12.000000000000
         C           -6.134770425341     0.680548674073     0.415008372083    12.000000000000
         C           -3.656788755199    -4.972944115154     0.416458799372    12.000000000000
         C           -6.134764964923    -0.680554007665     0.416278768506    12.000000000000
         H            5.835288573806     3.369275802771     0.419840143257     1.007825032230
         H            7.073859250737     1.228217156716     0.415495567179     1.007825032230
         H            4.600663342164     5.512380710270     0.415727787406     1.007825032230
         H            5.835283465295    -3.369306148912     0.411637502175     1.007825032230
         H           -0.000012073316     6.738530581953     0.411978267888     1.007825032230
         H            7.073861249820    -1.228227034927     0.415790506207     1.007825032230
         H            2.473313809789     6.740684199211     0.416044645374     1.007825032230
         H            4.600668569371    -5.512376221359     0.416263090020     1.007825032230
         H           -2.473318602548     6.740681627423     0.416345991999     1.007825032230
         H           -0.000010190238    -6.738528268635     0.420461693759     1.007825032230
         H           -5.835301836354     3.369270858113     0.419976165405     1.007825032230
         H            2.473308001821    -6.740685466612     0.416152816821     1.007825032230
         H           -4.600674763218     5.512377934420     0.415893115730     1.007825032230
         H           -5.835279428845    -3.369289055963     0.411358196294     1.007825032230
         H           -2.473300269450    -6.740679170323     0.415703500277     1.007825032230
         H           -7.073857688778     1.228220380657     0.415411575698     1.007825032230
         H           -4.600673708095    -5.512362761970     0.416090781997     1.007825032230
         H           -7.073856856419    -1.228220724160     0.415695649740     1.007825032230

  Charge       = 0
  Multiplicity = 1
  Basis Set: JUN-CC-PVDZ
    Blend: JUN-CC-PVDZ
  Basis Set: (JUN-CC-PVDZ AUX)
    Blend: JUN-CC-PVDZ-JKFIT

    Orbital Energies [Eh]
    ---------------------

    Doubly Occupied:

       1A    -11.260756     2A    -11.260297     3A    -11.260293
       4A    -11.259498     5A    -11.259497     6A    -11.259283
       7A    -11.259025     8A    -11.258958     9A    -11.258956
      10A    -11.258665    11A    -11.258661    12A    -11.258530
      13A    -11.258484    14A    -11.258478    15A    -11.258471
      16A    -11.258436    17A    -11.258430    18A    -11.258413
      19A    -11.258408    20A    -11.258404    21A    -11.258398
      22A    -11.258348    23A    -11.258344    24A    -11.258141
      25A    -11.257306    26A    -11.257246    27A    -11.257245
      28A    -11.257112    29A    -11.257112    30A    -11.257029
      31A    -11.256397    32A    -11.256327    33A    -11.256327
      34A    -11.256219    35A    -11.256219    36A    -11.256173
      37A    -11.252294    38A    -11.252294    39A    -11.252292
      40A    -11.252291    41A    -11.252288    42A    -11.252287
      43A    -11.251398    44A    -11.251396    45A    -11.251396
      46A    -11.251386    47A    -11.251385    48A    -11.251382
      49A    -11.250856    50A    -11.250855    51A    -11.250853
      52A    -11.250851    53A    -11.250849    54A    -11.250848
      55A     -1.244054    56A     -1.219805    57A     -1.219804
      58A     -1.189541    59A     -1.189534    60A     -1.180961
      61A     -1.157568    62A     -1.148980    63A     -1.135483
      64A     -1.135476    65A     -1.113201    66A     -1.113196
      67A     -1.082418    68A     -1.082410    69A     -1.078618
      70A     -1.065992    71A     -1.065988    72A     -1.039398
      73A     -1.024252    74A     -1.021767    75A     -1.021724
      76A     -1.017739    77A     -1.012810    78A     -0.987012
      79A     -0.986966    80A     -0.961890    81A     -0.961840
      82A     -0.894295    83A     -0.894268    84A     -0.887942
      85A     -0.886168    86A     -0.886110    87A     -0.881397
      88A     -0.881349    89A     -0.861900    90A     -0.837427
      91A     -0.818210    92A     -0.816592    93A     -0.812140
      94A     -0.812131    95A     -0.794695    96A     -0.794685
      97A     -0.746627    98A     -0.744847    99A     -0.733408
     100A     -0.733399   101A     -0.732189   102A     -0.732166
     103A     -0.716509   104A     -0.698976   105A     -0.698965
     106A     -0.693588   107A     -0.693573   108A     -0.661234
     109A     -0.653089   110A     -0.651133   111A     -0.650267
     112A     -0.650261   113A     -0.639366   114A     -0.639364
     115A     -0.629722   116A     -0.627523   117A     -0.627508
     118A     -0.606502   119A     -0.605827   120A     -0.601653
     121A     -0.599736   122A     -0.599705   123A     -0.593637
     124A     -0.591210   125A     -0.591200   126A     -0.585293
     127A     -0.576375   128A     -0.576369   129A     -0.567337
     130A     -0.567323   131A     -0.565949   132A     -0.565930
     133A     -0.558711   134A     -0.554852   135A     -0.554845
     136A     -0.538603   137A     -0.538601   138A     -0.538177
     139A     -0.538171   140A     -0.529724   141A     -0.528215
     142A     -0.522874   143A     -0.522868   144A     -0.500510
     145A     -0.495603   146A     -0.493240   147A     -0.487840
     148A     -0.485070   149A     -0.481759   150A     -0.481751
     151A     -0.470384   152A     -0.470366   153A     -0.451007
     154A     -0.450929   155A     -0.439077   156A     -0.439068
     157A     -0.404725   158A     -0.404702   159A     -0.403377
     160A     -0.375440   161A     -0.375437   162A     -0.349119
     163A     -0.337554   164A     -0.336604   165A     -0.336546
     166A     -0.311077   167A     -0.298127   168A     -0.284325
     169A     -0.284271   170A     -0.224911   171A     -0.224846

  @DF-RHF Final Energy: -2055.89365858312021

   => Energetics <=

    Nuclear Repulsion Energy =           6452.5568002797772351
    One-Electron Energy =              -15636.4810934754314076
    Two-Electron Energy =                7128.0306346125344135
    Total Energy =                      -2055.8936585831197590
 Dipole X            :          0.0000245            0.0000419            0.0000664
 Dipole Y            :          0.0000597           -0.0000426            0.0000171
 Dipole Z            :       -268.7697537          268.7716040            0.0018503
 Magnitude           :                                                    0.0018516

    SAPT Results
  --------------------------------------------------------------------------------------------------------
    Electrostatics                 -5.72417599 [mEh]      -3.59197466 [kcal/mol]     -15.02882199 [kJ/mol]
      Elst10,r                     -5.72417599 [mEh]      -3.59197466 [kcal/mol]     -15.02882199 [kJ/mol]

    Exchange                       46.84789544 [mEh]      29.39749822 [kcal/mol]     122.99913254 [kJ/mol]
      Exch10                       46.84789544 [mEh]      29.39749822 [kcal/mol]     122.99913254 [kJ/mol]
      Exch10(S^2)                  46.63566880 [mEh]      29.26432399 [kcal/mol]     122.44193157 [kJ/mol]

    Induction                     -19.59732740 [mEh]     -12.29750860 [kcal/mol]     -51.45277599 [kJ/mol]
      Ind20,r                     -32.73549382 [mEh]     -20.54183250 [kcal/mol]     -85.94702717 [kJ/mol]
      Exch-Ind20,r                 15.50498125 [mEh]       9.72952263 [kcal/mol]      40.70832267 [kJ/mol]
      delta HF,r (2)               -2.36681483 [mEh]      -1.48519873 [kcal/mol]      -6.21407149 [kJ/mol]

    Dispersion                    -15.03459571 [mEh]      -9.43435124 [kcal/mol]     -39.47332559 [kJ/mol]
      Disp20                      -19.31761029 [mEh]     -12.12198347 [kcal/mol]     -50.71837882 [kJ/mol]
      Exch-Disp20                   4.28301458 [mEh]       2.68763223 [kcal/mol]      11.24505323 [kJ/mol]
      Disp20 (SS)                  -9.65880514 [mEh]      -6.06099173 [kcal/mol]     -25.35918941 [kJ/mol]
      Disp20 (OS)                  -9.65880514 [mEh]      -6.06099173 [kcal/mol]     -25.35918941 [kJ/mol]
      Exch-Disp20 (SS)              2.35194983 [mEh]       1.47587080 [kcal/mol]       6.17504342 [kJ/mol]
      Exch-Disp20 (OS)              1.93106475 [mEh]       1.21176143 [kcal/mol]       5.07000981 [kJ/mol]

  Total HF                         21.52639205 [mEh]      13.50801495 [kcal/mol]      56.51753455 [kJ/mol]
  Total SAPT0                       6.49179635 [mEh]       4.07366371 [kcal/mol]      17.04420897 [kJ/mol]

  Special recipe for scaled SAPT0 (see Manual):
    Electrostatics sSAPT0          -5.72417599 [mEh]      -3.59197466 [kcal/mol]     -15.02882199 [kJ/mol]
    Exchange sSAPT0                46.84789544 [mEh]      29.39749822 [kcal/mol]     122.99913254 [kJ/mol]
    Induction sSAPT0              -19.38468539 [mEh]     -12.16407373 [kcal/mol]     -50.89448449 [kJ/mol]
    Dispersion sSAPT0             -14.97585660 [mEh]      -9.39749189 [kcal/mol]     -39.31910607 [kJ/mol]
  Total sSAPT0                      6.76317746 [mEh]       4.24395793 [kcal/mol]      17.75671998 [kJ/mol]
  --------------------------------------------------------------------------------------------------------

*** Psi4 exiting successfully. Buy a developer a beer!
