                               Psi4 1.9 release

  ==> Input File <==

--------------------------------------------------------------------------
memory 32 GB # how much memory is available ! Depends on the nodes/cores !

molecule dimer {
# monomer A
+1 1    # Charge and multiplicity
C  0.680067 -0.008042 -8.215929
C -0.680504 -0.006014 -8.215545
N -1.085635 -0.005016 -6.897221
C  0.000108 -0.001740 -6.115820
C -2.477365  0.044390 -6.429242
N  1.085222 -0.005016 -6.897221
H  1.385146 -0.015870 -9.033368
H -1.385302 -0.006204 -9.033214
H -0.000009  0.000007 -5.034731
C  2.478117 -0.021908 -6.432123
H  2.490592  0.005437 -5.341870
H  2.967028 -0.935354 -6.779299
H  3.001428  0.853575 -6.823595
H -2.857359  1.066461 -6.509201
H -3.082679 -0.625694 -7.042306
H -2.518128 -0.282594 -5.389294
--
# monomer B
0 1     # Charge and multiplicity
C   1.22531237526482      0.70753866091955      0.00613762728373
C   1.22532433589282     -0.70753852257020     -0.00619318228664
C   -0.00000567409046      1.41496628609039     -0.00672680580738
C   2.45644923379077      1.41832825917820      0.00902448468363
C   0.00001130712078     -1.41497612663474      0.00347275151708
C   -1.22530046906674      0.70754574598412      0.00838914760619
C   2.45643823516184     -1.41832293188077     -0.00843833914343
C   -0.00000085313587      2.83680140328112     -0.00913035594137
C   3.68182717731192      0.70931832800114     -0.00808954934571
C   2.45512052870677      2.83422403348893     -0.00819210630633
C   3.68182158506039     -0.70933346742900      0.00798293467272
C   -1.22531311884624     -0.70752714354401     -0.00512042085974
C   1.22670006104402      3.54346985599427      0.00816696660346
C   0.00000526469929     -2.83678176723568      0.00832091913869
C   -2.45643555300670      1.41831729028492      0.00842454345199
C   2.45512389762097     -2.83422965658853      0.00783102630520
C   -1.22671388474763      3.54346943575023      0.00827029982280
C   4.91451777504333      1.42717324448953     -0.00160886631602
C   3.69315067131765      3.54279566454522     -0.00155906667985
C   -2.45643712022637     -1.41831290883911     -0.00846337726810
C   1.22670532178455     -3.54347386990643     -0.00780316414624
C   -2.45512491866593      2.83421703463423     -0.00818572995999
C   4.91452486062398     -1.42718653794377      0.00136387641845
C   1.22142509354026      4.97013443726031      0.00150231067809
C   4.89300870916237      2.82518837202648     -0.00039219795739
C   -1.22669652864725     -3.54347062507680     -0.00753595973677
C   -3.68181849668397      0.70932533873199     -0.00807686886569
C   3.69314758099218     -3.54280096939050      0.00148176697923
C   -1.22143177215231      4.97012866986289      0.00168580605083
C   6.13477145276790      0.68054831910577     -0.00083909176631
C   3.65678936045204      4.97295361556775     -0.00065042889723
C   -2.45512642789169     -2.83421472106065      0.00758666850712
C   -3.68181869921921     -0.70932533146830      0.00810055625144
C   4.89301309775526     -2.82519973363176      0.00021895393805
C   -0.00000059327114      5.65044773803267      0.00045449734393
C   6.13477559217374     -0.68055448207492      0.00042622874941
C   2.47813196269732      5.65357712333155      0.00063835075260
C   1.22142288457925     -4.97012668293268     -0.00129718634452
C   -3.69316190412301      3.54279732619245     -0.00139355922051
C   -1.22142804110313     -4.97011793159564     -0.00140994817719
C   -4.91452132810043      1.42717581899491     -0.00153192130862
C   3.65678749952045     -4.97295485423912      0.00080007163680
C   -2.47813805026426      5.65357479452875      0.00092287576113
C   -3.69314125872231     -3.54278984697859      0.00136564082345
C   -4.91451200321153     -1.42718062802730      0.00139857359209
C   -0.00000552908399     -5.65043791501335      0.00005899322272
C   -4.89302000425900      2.82518897091939     -0.00040227981744
C   2.47812647313991     -5.65357317188818     -0.00029052915548
C   -3.65679823041642      4.97295655404175     -0.00047374852278
C   -4.89299899901461     -2.82519139505969      0.00006491824035
C   -2.47812801824129     -5.65356579800621     -0.00056571680280
C   -6.13477002348955      0.68054913825639     -0.00086464346868
C   -3.65678835334731     -4.97294365097028      0.00058578382008
C   -6.13476456307132     -0.68055354348201      0.00040575295444
H   5.83528897565761      3.36927626695423      0.00396712770529
H   7.07385965258860      1.22821762089947     -0.00037744837300
H   4.60066374401555      5.51238117445323     -0.00014522814529
H   5.83528386714679     -3.36930568472863     -0.00423551337640
H   -0.00001167146422      6.73853104613662     -0.00389474766392
H   7.07386165167227     -1.22822657074368     -0.00008250934481
H   2.47331421164041      6.74068466339473      0.00017162982210
H   4.60066897122302     -5.51237575717576      0.00039007446835
H   -2.47331820069565      6.74068209160650      0.00047297644710
H   -0.00000978838621     -6.73852780445195      0.00458867820736
H   -5.83530143450167      3.36927132229595      0.00410314985360
H   2.47330840367253     -6.74068500242887      0.00027980126949
H   -4.60067436136587      5.51237839860371      0.00002010017831
H   -5.83527902699321     -3.36928859177951     -0.00451481925734
H   -2.47329986759855     -6.74067870613986     -0.00016951527498
H   -7.07385728692578      1.22822084484047     -0.00046143985387
H   -4.60067330624313     -5.51236229778631      0.00021776644566
H   -7.07385645456741     -1.22822025997701     -0.00017736581114

    units angstrom      # Angstroms are the default
    no_reorient         # Geometry fixed, default
    symmetry c1         # C1 symmetry, default
}

set {
    scf_type DF         # Density fitting, faster than exact integrals
    freeze_core True    # Freeze core electrons
    basis jun-cc-pVDZ   # Jun-cc-pVDZ basis set, recommended for sSAPT0 in https://doi.org/10.1063/1.4867135
}

energy('ssapt0')        # Compute sSAPT0 energy, includes also SAPT0
--------------------------------------------------------------------------

  //              Dimer HF             //
    Molecular point group: c1
  Charge       = 1
  Multiplicity = 1
  Basis Set: JUN-CC-PVDZ
    Blend: JUN-CC-PVDZ
  Basis Set: (JUN-CC-PVDZ AUX)
    Blend: JUN-CC-PVDZ-JKFIT
  @DF-RHF Final Energy: -2359.19997129057674
    Total Energy =                      -2359.1999712905762863
 Dipole X            :         -0.0012834            0.0006313           -0.0006521
 Dipole Y            :         -0.0481673            0.0560211            0.0078538
 Dipole Z            :         24.4222763          -34.6019279          -10.1796516
 Magnitude           :                                                   10.1796547
  //            Monomer A HF           //
    Molecular point group: c1
  Multiplicity = 1
  Basis Set: JUN-CC-PVDZ
    Blend: JUN-CC-PVDZ
  Basis Set: (JUN-CC-PVDZ AUX)
    Blend: JUN-CC-PVDZ-JKFIT
  @DF-RHF Final Energy:  -303.29726555992232
    Total Energy =                       -303.2972655599223231
  //            Monomer B HF           //
    Molecular point group: c1

    Geometry (in Angstrom), charge = 0, multiplicity = 1:

       Center              X                  Y                   Z               Mass
    ------------   -----------------  -----------------  -----------------  -----------------
      Gh(C)           0.680066520158    -0.008042372515    -7.325574220489    12.000000000000
      Gh(C)          -0.680504479842    -0.006014372515    -7.325190220489    12.000000000000
      Gh(N)          -1.085635479842    -0.005016372515    -6.006866220489    14.003074004430
      Gh(C)           0.000107520158    -0.001740372515    -5.225465220489    12.000000000000
      Gh(C)          -2.477365479842     0.044389627485    -5.538887220489    12.000000000000
      Gh(N)           1.085221520158    -0.005016372515    -6.006866220489    14.003074004430
      Gh(H)           1.385145520158    -0.015870372515    -8.143013220489     1.007825032230
      Gh(H)          -1.385302479842    -0.006204372515    -8.142859220489     1.007825032230
      Gh(H)          -0.000009479842     0.000006627485    -4.144376220489     1.007825032230
      Gh(C)           2.478116520158    -0.021908372515    -5.541768220489    12.000000000000
      Gh(H)           2.490591520158     0.005436627485    -4.451515220489     1.007825032230
      Gh(H)           2.967027520158    -0.935354372515    -5.888944220489     1.007825032230
      Gh(H)           3.001427520158     0.853574627485    -5.933240220489     1.007825032230
      Gh(H)          -2.857359479842     1.066460627485    -5.618846220489     1.007825032230
      Gh(H)          -3.082679479842    -0.625694372515    -6.151951220489     1.007825032230
      Gh(H)          -2.518128479842    -0.282594372515    -4.498939220489     1.007825032230
         C            1.225311895423     0.707538288405     0.896492406795    12.000000000000
         C            1.225323856051    -0.707538895085     0.884161597225    12.000000000000
         C           -0.000006153932     1.414965913575     0.883627973704    12.000000000000
         C            2.456448753949     1.418327886663     0.899379264195    12.000000000000
         C            0.000010827279    -1.414976499150     0.893827531028    12.000000000000
         C           -1.225300948908     0.707545373469     0.898743927117    12.000000000000
         C            2.456437755320    -1.418323304396     0.881916440368    12.000000000000
         C           -0.000001332978     2.836801030766     0.881224423570    12.000000000000
         C            3.681826697470     0.709317955486     0.882265230166    12.000000000000
         C            2.455120048865     2.834223660974     0.882162673205    12.000000000000
         C            3.681821105219    -0.709333839944     0.898337714184    12.000000000000
         C           -1.225313598688    -0.707527516059     0.885234358652    12.000000000000
         C            1.226699581202     3.543469483479     0.898521746115    12.000000000000
         C            0.000004784858    -2.836782139751     0.898675698650    12.000000000000
         C           -2.456436032848     1.418316917770     0.898779322963    12.000000000000
         C            2.455123417779    -2.834230029103     0.898185805816    12.000000000000
         C           -1.226714364589     3.543469063235     0.898625079334    12.000000000000
         C            4.914517295202     1.427172871975     0.888745913195    12.000000000000
         C            3.693150191476     3.542795292030     0.888795712831    12.000000000000
         C           -2.456437600068    -1.418313281354     0.881891402243    12.000000000000
         C            1.226704841943    -3.543474242421     0.882551615365    12.000000000000
         C           -2.455125398508     2.834216662119     0.882169049551    12.000000000000
         C            4.914524380782    -1.427186910459     0.891718655930    12.000000000000
         C            1.221424613699     4.970134064745     0.891857090189    12.000000000000
         C            4.893008229321     2.825187999512     0.889962581554    12.000000000000
         C           -1.226697008489    -3.543470997592     0.882818819775    12.000000000000
         C           -3.681818976526     0.709324966217     0.882277910646    12.000000000000
         C            3.693147101150    -3.542801341905     0.891836546491    12.000000000000
         C           -1.221432251994     4.970128297348     0.892040585562    12.000000000000
         C            6.134770972926     0.680547946591     0.889515687745    12.000000000000
         C            3.656788880610     4.972953243053     0.889704350614    12.000000000000
         C           -2.455126907733    -2.834215093576     0.897941448018    12.000000000000
         C           -3.681819179061    -0.709325703983     0.898455335763    12.000000000000
         C            4.893012617914    -2.825200106147     0.890573733449    12.000000000000
         C           -0.000001073113     5.650447365518     0.890809276855    12.000000000000
         C            6.134775112332    -0.680554854590     0.890781008261    12.000000000000
         C            2.478131482856     5.653576750817     0.890993130264    12.000000000000
         C            1.221422404738    -4.970127055448     0.889057593167    12.000000000000
         C           -3.693162383965     3.542796953677     0.888961220291    12.000000000000
         C           -1.221428520945    -4.970118304111     0.888944831334    12.000000000000
         C           -4.914521807942     1.427175446480     0.888822858203    12.000000000000
         C            3.656787019679    -4.972955226754     0.891154851148    12.000000000000
         C           -2.478138530106     5.653574422014     0.891277655272    12.000000000000
         C           -3.693141738564    -3.542790219494     0.891720420335    12.000000000000
         C           -4.914512483053    -1.427181000542     0.891753353103    12.000000000000
         C           -0.000006008926    -5.650438287528     0.890413772734    12.000000000000
         C           -4.893020484101     2.825188598404     0.889952499694    12.000000000000
         C            2.478125993298    -5.653573544403     0.890064250356    12.000000000000
         C           -3.656798710258     4.972956181527     0.889881030989    12.000000000000
         C           -4.892999478856    -2.825191767575     0.890419697752    12.000000000000
         C           -2.478128498083    -5.653566170521     0.889789062708    12.000000000000
         C           -6.134770503331     0.680548765741     0.889490136043    12.000000000000
         C           -3.656788833189    -4.972944023485     0.890940563331    12.000000000000
         C           -6.134765042913    -0.680553915997     0.890760532466    12.000000000000
         H            5.835288495816     3.369275894439     0.894321907217     1.007825032230
         H            7.073859172747     1.228217248385     0.889977331138     1.007825032230
         H            4.600663264174     5.512380801938     0.890209551366     1.007825032230
         H            5.835283387305    -3.369306057244     0.886119266135     1.007825032230
         H           -0.000012151306     6.738530673622     0.886460031847     1.007825032230
         H            7.073861171831    -1.228226943259     0.890272270166     1.007825032230
         H            2.473313731799     6.740684290880     0.890526409333     1.007825032230
         H            4.600668491381    -5.512376129691     0.890744853980     1.007825032230
         H           -2.473318680537     6.740681719092     0.890827755958     1.007825032230
         H           -0.000010268228    -6.738528176967     0.894943457719     1.007825032230
         H           -5.835301914343     3.369270949781     0.894457929365     1.007825032230
         H            2.473307923831    -6.740685374944     0.890634580781     1.007825032230
         H           -4.600674841208     5.512378026089     0.890374879690     1.007825032230
         H           -5.835279506835    -3.369288964294     0.885839960254     1.007825032230
         H           -2.473300347440    -6.740679078655     0.890185264236     1.007825032230
         H           -7.073857766768     1.228220472326     0.889893339657     1.007825032230
         H           -4.600673786085    -5.512362670301     0.890572545957     1.007825032230
         H           -7.073856934409    -1.228220632492     0.890177413700     1.007825032230

  Charge       = 0
  Multiplicity = 1
  Basis Set: JUN-CC-PVDZ
    Blend: JUN-CC-PVDZ
  Basis Set: (JUN-CC-PVDZ AUX)
    Blend: JUN-CC-PVDZ-JKFIT

    Orbital Energies [Eh]
    ---------------------

    Doubly Occupied:

       1A    -11.260640     2A    -11.260197     3A    -11.260195
       4A    -11.259485     5A    -11.259484     6A    -11.259314
       7A    -11.259105     8A    -11.259027     9A    -11.259026
      10A    -11.258702    11A    -11.258699    12A    -11.258630
      13A    -11.258568    14A    -11.258562    15A    -11.258560
      16A    -11.258532    17A    -11.258524    18A    -11.258509
      19A    -11.258496    20A    -11.258490    21A    -11.258485
      22A    -11.258387    23A    -11.258383    24A    -11.258085
      25A    -11.257423    26A    -11.257361    27A    -11.257360
      28A    -11.257225    29A    -11.257225    30A    -11.257140
      31A    -11.256518    32A    -11.256447    33A    -11.256446
      34A    -11.256337    35A    -11.256336    36A    -11.256289
      37A    -11.252372    38A    -11.252372    39A    -11.252370
      40A    -11.252369    41A    -11.252364    42A    -11.252362
      43A    -11.251500    44A    -11.251498    45A    -11.251495
      46A    -11.251491    47A    -11.251489    48A    -11.251485
      49A    -11.250934    50A    -11.250933    51A    -11.250931
      52A    -11.250930    53A    -11.250925    54A    -11.250923
      55A     -1.244234    56A     -1.219967    57A     -1.219962
      58A     -1.189679    59A     -1.189670    60A     -1.181109
      61A     -1.157684    62A     -1.149111    63A     -1.135651
      64A     -1.135641    65A     -1.113314    66A     -1.113311
      67A     -1.082578    68A     -1.082569    69A     -1.078758
      70A     -1.066100    71A     -1.066094    72A     -1.039532
      73A     -1.024432    74A     -1.021934    75A     -1.021887
      76A     -1.017847    77A     -1.012910    78A     -0.987169
      79A     -0.987121    80A     -0.962006    81A     -0.961955
      82A     -0.894422    83A     -0.894396    84A     -0.888103
      85A     -0.886349    86A     -0.886295    87A     -0.881546
      88A     -0.881498    89A     -0.862029    90A     -0.837516
      91A     -0.818342    92A     -0.816773    93A     -0.812283
      94A     -0.812277    95A     -0.794812    96A     -0.794801
      97A     -0.746781    98A     -0.745010    99A     -0.733572
     100A     -0.733568   101A     -0.732308   102A     -0.732285
     103A     -0.716646   104A     -0.699106   105A     -0.699090
     106A     -0.693728   107A     -0.693707   108A     -0.661356
     109A     -0.653274   110A     -0.651319   111A     -0.650375
     112A     -0.650369   113A     -0.639487   114A     -0.639480
     115A     -0.629860   116A     -0.627670   117A     -0.627656
     118A     -0.606483   119A     -0.605904   120A     -0.601810
     121A     -0.599875   122A     -0.599836   123A     -0.593773
     124A     -0.591392   125A     -0.591376   126A     -0.585384
     127A     -0.576438   128A     -0.576395   129A     -0.567440
     130A     -0.567423   131A     -0.566108   132A     -0.566091
     133A     -0.558882   134A     -0.554976   135A     -0.554972
     136A     -0.538716   137A     -0.538714   138A     -0.538263
     139A     -0.538262   140A     -0.529848   141A     -0.528209
     142A     -0.523006   143A     -0.522994   144A     -0.500626
     145A     -0.495694   146A     -0.493362   147A     -0.487919
     148A     -0.485214   149A     -0.481895   150A     -0.481889
     151A     -0.470407   152A     -0.470401   153A     -0.451186
     154A     -0.451111   155A     -0.439160   156A     -0.439152
     157A     -0.404838   158A     -0.404814   159A     -0.403464
     160A     -0.375515   161A     -0.375511   162A     -0.349218
     163A     -0.337678   164A     -0.336644   165A     -0.336592
     166A     -0.311193   167A     -0.298184   168A     -0.284442
     169A     -0.284393   170A     -0.225014   171A     -0.224950

  @DF-RHF Final Energy: -2055.89211401150851

   => Energetics <=

    Nuclear Repulsion Energy =           6452.5568002797781446
    One-Electron Energy =              -15636.4412101017751411
    Two-Electron Energy =                7127.9922958104871213
    Total Energy =                      -2055.8921140115089656
 Dipole X            :          0.0001004           -0.0000085            0.0000919
 Dipole Y            :         -0.0000495            0.0000167           -0.0000328
 Dipole Z            :       -575.4167991          575.4226842            0.0058852
 Magnitude           :                                                    0.0058860

    SAPT Results
  --------------------------------------------------------------------------------------------------------
    Electrostatics                 -7.85712133 [mEh]      -4.93041807 [kcal/mol]     -20.62886921 [kJ/mol]
      Elst10,r                     -7.85712133 [mEh]      -4.93041807 [kcal/mol]     -20.62886921 [kJ/mol]

    Exchange                        0.00050550 [mEh]       0.00031721 [kcal/mol]       0.00132720 [kJ/mol]
      Exch10                        0.00050550 [mEh]       0.00031721 [kcal/mol]       0.00132720 [kJ/mol]
      Exch10(S^2)                   0.00050550 [mEh]       0.00031721 [kcal/mol]       0.00132720 [kJ/mol]

    Induction                      -2.73510332 [mEh]      -1.71630325 [kcal/mol]      -7.18101278 [kJ/mol]
      Ind20,r                      -2.67244810 [mEh]      -1.67698650 [kcal/mol]      -7.01651151 [kJ/mol]
      Exch-Ind20,r                  0.00085836 [mEh]       0.00053863 [kcal/mol]       0.00225361 [kJ/mol]
      delta HF,r (2)               -0.06351358 [mEh]      -0.03985537 [kcal/mol]      -0.16675488 [kJ/mol]

    Dispersion                     -1.56126721 [mEh]      -0.97970997 [kcal/mol]      -4.09910650 [kJ/mol]
      Disp20                       -1.56159450 [mEh]      -0.97991534 [kcal/mol]      -4.09996579 [kJ/mol]
      Exch-Disp20                   0.00032729 [mEh]       0.00020538 [kcal/mol]       0.00085929 [kJ/mol]
      Disp20 (SS)                  -0.78079725 [mEh]      -0.48995767 [kcal/mol]      -2.04998290 [kJ/mol]
      Disp20 (OS)                  -0.78079725 [mEh]      -0.48995767 [kcal/mol]      -2.04998290 [kJ/mol]
      Exch-Disp20 (SS)              0.00024578 [mEh]       0.00015423 [kcal/mol]       0.00064529 [kJ/mol]
      Exch-Disp20 (OS)              0.00008151 [mEh]       0.00005115 [kcal/mol]       0.00021400 [kJ/mol]

  Total HF                        -10.59171915 [mEh]      -6.64640411 [kcal/mol]     -27.80855479 [kJ/mol]
  Total SAPT0                     -12.15298636 [mEh]      -7.62611407 [kcal/mol]     -31.90766128 [kJ/mol]

  Special recipe for scaled SAPT0 (see Manual):
    Electrostatics sSAPT0          -7.85712133 [mEh]      -4.93041807 [kcal/mol]     -20.62886921 [kJ/mol]
    Exchange sSAPT0                 0.00050550 [mEh]       0.00031721 [kcal/mol]       0.00132720 [kJ/mol]
    Induction sSAPT0               -2.73510332 [mEh]      -1.71630325 [kcal/mol]      -7.18101278 [kJ/mol]
    Dispersion sSAPT0              -1.56126721 [mEh]      -0.97970997 [kcal/mol]      -4.09910650 [kJ/mol]
  Total sSAPT0                    -12.15298636 [mEh]      -7.62611407 [kcal/mol]     -31.90766128 [kJ/mol]
  --------------------------------------------------------------------------------------------------------

*** Psi4 exiting successfully. Buy a developer a beer!
