                               Psi4 1.9 release

  ==> Input File <==

--------------------------------------------------------------------------
memory 64 GB # how much memory is available ! Depends on the nodes/cores !

molecule dimer {
# monomer A
-1 1    # Charge and multiplicity
B -0.000046  0.000337 1.999994
F -1.153597  0.000048 2.815641
F  1.153661 -0.000581 2.815641
F -0.000019 -1.153637 1.184360
F -0.000019  1.153978 1.184360
--
# monomer B
0 1     # Charge and multiplicity
C   -3.66844126402057      7.80375217008252      0.00190004133558
C   -4.84759871934653      7.13124183134024     -0.00046653359696
C   -4.89495929917518      5.69633040353158     -0.00103944469517
C   -3.65374067877320      4.98073034095895      0.00662099703436
C   -2.40942512149445      7.11398103667468      0.00209438359570
C   -2.42547734410473      5.68112195090346     -0.00491050527438
C   -1.19474401643570      7.78614419430947      0.00356656413763
C   0.03795902893699      7.09942164575698      0.00139585983271
C   0.03033258741920      5.66948955970466     -0.00408752508301
C   -1.20098450790502      4.96927034791531      0.00488220885047
C   1.27795782581485      7.77285944319479      0.00277170839332
C   2.48535808472416      7.08769688523756      0.00049722048857
C   2.48612868491717      5.65477081024076     -0.00644052849921
C   1.25408291964399      4.95607811366431      0.00518741308898
C   3.75171459140595      7.76391215098033      0.00062407186893
C   4.92356605618520      7.07878077698995     -0.00143240883900
C   4.95560727132542      5.64344746336949     -0.00159282164606
C   3.70680153420475      4.94121020833308      0.00349873852374
H   -3.65852113775815      8.89082741913536      0.00358502958574
H   -1.18921332975660      8.87412108735996      0.00753844057883
H   1.28429423888630      8.86083343548850      0.00693053253426
H   3.75354208679975      8.85103527897216      0.00214659618464
H   5.86995870320703      7.61379483465560     -0.00235777588134
H   -5.78823170750226      7.67630221293400     -0.00202638095293
C   -6.09197395869619      4.99326001364347     -0.00291168518608
C   -6.12866148031747      3.58258016879823     -0.00171050815740
C   -3.66457974004527      3.56418217974434     -0.00463560277484
C   -4.89429820469869      2.86108077590057      0.00453338221034
C   -2.43733499489796      2.84761165708481      0.00719617576166
C   -1.20922785759670      3.54788693497833     -0.00648285103018
C   1.24714157216223      3.53468075142962     -0.00729145743546
C   0.01517603956900      2.83311183930540      0.00439272578912
C   2.46764517244071      2.82128997725533      0.00449278391269
C   3.70254947457969      3.52466015442405     -0.00899517692985
C   6.14498038638375      4.92757236613191     -0.00282626685777
C   6.16658835886151      3.51658447594213     -0.00065971342101
C   4.92460995845939      2.80840792535402      0.00587903281610
H   7.08990550964105      5.46688776622306     -0.00658814770723
H   -7.03104175110130      5.54268795285765     -0.00714490013730
C   -7.33969804112295      2.85841153457957     -0.00333767559888
C   -7.36488195805880      1.47032337158330     -0.00157213747140
C   -4.90350460894690      1.44442681216000     -0.00628840166334
C   -6.13225715261081      0.73993935705394      0.00600164231964
C   -3.67687480051673      0.72669714267312      0.00433931473643
C   -2.44565658606518      1.42964113326212     -0.00597039546461
C   -1.22360068130162      0.71532450163492      0.00545886906656
C   0.00763786931376      1.41738314923765      0.00392452278437
C   1.23121980774686      0.70211669058719     -0.01490206287210
C   2.46082110053113      1.40329203612573      0.00460244601878
C   3.68443025419614      0.68719842821222      0.00377365974158
C   4.91870890153864      1.39173456118907     -0.00862816189375
C   7.36980207796101      2.77948220318441     -0.00242013321349
C   7.38016266612146      1.39121750785509     -0.00087345036788
C   6.13979953912259      0.67411862320065      0.00545489144369
H   -8.27919079934664      3.40711804112415     -0.00763522772059
H   8.31511347147953      3.31811809662368     -0.00663070901292
C   -8.59175593758115      0.72483255304480     -0.00123170985383
C   -8.59902460370342     -0.63263980622873      0.00089141472904
C   -6.13981313911873     -0.67413663715361     -0.00609792660607
C   -7.38018411213749     -1.39126618958160      0.00131813493501
C   -4.91868448025621     -1.39175501803000      0.00624257154343
C   -3.68443829568458     -0.68723731573599     -0.00478966852105
C   -2.46081704024768     -1.40334517882457      0.00575341766833
C   -1.23116201232071     -0.70217386488055     -0.00636696112346
C   -0.00756962538737     -1.41741884941102      0.00108956317991
C   1.22364771588843     -0.71527537726392      0.01109518512883
C   2.44567064933149     -1.42964328900682     -0.00065482763106
C   3.67686670284649     -0.72670743155550     -0.00479541202602
C   6.13224884641929     -0.73997883984993     -0.00632338623858
C   4.90351914550401     -1.44445752054090      0.00751768830159
C   8.59901484869081      0.63260386666793     -0.00101133422380
C   8.59174548810050     -0.72485086719319      0.00072504603735
C   7.36486276438985     -1.47033266560598      0.00049486934466
H   -9.52830597181814      1.27684744919284     -0.00270163681798
H   9.54141097460619      1.17457248844457     -0.00206336648518
C   -7.36983790976868     -2.77954514593389      0.00312634335708
C   -4.92459910905015     -2.80843725734101     -0.00460528907921
C   -6.16662249566744     -3.51665219282533      0.00169655107992
C   -3.70251035970491     -3.52468154912026      0.00571878010666
C   -2.46764698511392     -2.82132596280400     -0.00632585824990
C   -0.01513347410770     -2.83314164539971     -0.00604426974092
C   -1.24712184122656     -3.53473217556300      0.00551968366725
C   1.20924506964357     -3.54791467864352      0.00805871345849
C   2.43733602215464     -2.84764173817541     -0.00608104485234
C   4.89430234377080     -2.86112296828604     -0.00526030478103
C   3.66461525504104     -3.56421984553201      0.00761911515957
C   6.12863901474565     -3.58258405771778      0.00096495711699
C   7.33967266469532     -2.85841330737039      0.00248018319869
H   -9.54144911125902     -1.17456346666430      0.00226083090216
H   9.52826186807155     -1.27691907390448      0.00197485379837
H   -8.31516504384864     -3.31814985321231      0.00729857188773
H   8.27915514249207     -3.40714078989363      0.00681973918158
C   -6.14499418870218     -4.92764727278338      0.00302254913999
C   -3.70678334799751     -4.94126171411716     -0.00679841894792
C   -4.95559005800169     -5.64349397349412      0.00116871569699
C   -2.48612132622665     -5.65478557440947      0.00614125209662
C   -1.25405833548005     -4.95612205000132     -0.00503435388927
C   1.20101257386816     -4.96928038819302     -0.00385322963129
C   -0.03033667441341     -5.66952030313900      0.00398997003238
C   3.65375010132847     -4.98074377541453     -0.00309522988330
C   2.42549269587528     -5.68117463552727      0.00628170066869
C   6.09196561781097     -4.99325796338655      0.00325918379042
C   4.89497644461045     -5.69634842095790      0.00202298796027
H   -7.08989238804069     -5.46699984223871      0.00742531082125
H   7.03105520920009     -5.54265853633254      0.00683896355417
C   -4.92354532219813     -7.07882109967734      0.00061394679214
C   -2.48534208823777     -7.08772807792913     -0.00189594564379
C   -3.75168589177895     -7.76394715763627     -0.00170126671874
C   -0.03794895698805     -7.09946487446944     -0.00168022049625
C   -1.27795610040136     -7.77290438466689     -0.00366491325785
C   2.40944432072629     -7.11402201200282     -0.00081701968533
C   1.19474993715296     -7.78618536556242     -0.00296931056689
C   4.84762105249800     -7.13126211057943      0.00168979497423
C   3.66847160587561     -7.80378799294376     -0.00065863938960
H   -5.86994035041618     -7.61383059804164      0.00215798365757
H   5.78824962538815     -7.67633218931421      0.00281691445618
H   -3.75352693944918     -8.85107156923607     -0.00353718114765
H   -1.28430440589466     -8.86087539249706     -0.00809229711623
H   1.18922157469537     -8.87416062058945     -0.00706194725726
H   3.65854661482387     -8.89086063405326     -0.00231318081200

    units angstrom      # Angstroms are the default
    no_reorient         # Geometry fixed, default
    symmetry c1         # C1 symmetry, default
}

set {
    scf_type DF         # Density fitting, faster than exact integrals
    freeze_core True    # Freeze core electrons
    basis jun-cc-pVDZ   # Jun-cc-pVDZ basis set, recommended for sSAPT0 in https://doi.org/10.1063/1.4867135
}

energy('ssapt0')        # Compute sSAPT0 energy, includes also SAPT0
--------------------------------------------------------------------------

  //              Dimer HF             //
    Molecular point group: c1
  Charge       = -1
  Multiplicity = 1
  Basis Set: JUN-CC-PVDZ
    Blend: JUN-CC-PVDZ
  Basis Set: (JUN-CC-PVDZ AUX)
    Blend: JUN-CC-PVDZ-JKFIT
  @DF-RHF Final Energy: -4072.25209046804366
    Total Energy =                      -4072.2520904680422973
 Dipole X            :          0.0008784           -0.0001188            0.0007595
 Dipole Y            :         -0.0002391           -0.0002727           -0.0005118
 Dipole Z            :         11.5923430          -11.9026711           -0.3103280
 Magnitude           :                                                    0.3103294
  //            Monomer A HF           //
    Molecular point group: c1
  Multiplicity = 1
  Basis Set: JUN-CC-PVDZ
    Blend: JUN-CC-PVDZ
  Basis Set: (JUN-CC-PVDZ AUX)
    Blend: JUN-CC-PVDZ-JKFIT
  @DF-RHF Final Energy:  -422.78070506437382
    Total Energy =                       -422.7807050643738194
  //            Monomer B HF           //
    Molecular point group: c1

    Geometry (in Angstrom), charge = 0, multiplicity = 1:

       Center              X                  Y                   Z               Mass
    ------------   -----------------  -----------------  -----------------  -----------------
      Gh(B)          -0.000050191042     0.000351518223     1.862239857740    11.009305360000
      Gh(F)          -1.153601191042     0.000062518223     2.677886857740    18.998403162730
      Gh(F)           1.153656808958    -0.000566481777     2.677886857740    18.998403162730
      Gh(F)          -0.000023191042    -1.153622481777     1.046605857740    18.998403162730
      Gh(F)          -0.000023191042     1.153992518223     1.046605857740    18.998403162730
         C           -3.668445455062     7.803766688305    -0.135854100924    12.000000000000
         C           -4.847602910388     7.131256349563    -0.138220675857    12.000000000000
         C           -4.894963490217     5.696344921754    -0.138793586955    12.000000000000
         C           -3.653744869815     4.980744859182    -0.131133145225    12.000000000000
         C           -2.409429312536     7.113995554897    -0.135659758664    12.000000000000
         C           -2.425481535146     5.681136469126    -0.142664647534    12.000000000000
         C           -1.194748207477     7.786158712532    -0.134187578122    12.000000000000
         C            0.037954837895     7.099436163980    -0.136358282427    12.000000000000
         C            0.030328396378     5.669504077927    -0.141841667343    12.000000000000
         C           -1.200988698947     4.969284866138    -0.132871933409    12.000000000000
         C            1.277953634773     7.772873961417    -0.134982433867    12.000000000000
         C            2.485353893683     7.087711403460    -0.137256921771    12.000000000000
         C            2.486124493876     5.654785328463    -0.144194670759    12.000000000000
         C            1.254078728602     4.956092631887    -0.132566729171    12.000000000000
         C            3.751710400364     7.763926669203    -0.137130070391    12.000000000000
         C            4.923561865144     7.078795295213    -0.139186551099    12.000000000000
         C            4.955603080284     5.643461981592    -0.139346963906    12.000000000000
         C            3.706797343163     4.941224726556    -0.134255403736    12.000000000000
         H           -3.658525328800     8.890841937358    -0.134169112674     1.007825032230
         H           -1.189217520798     8.874135605583    -0.130215701681     1.007825032230
         H            1.284290047845     8.860847953711    -0.130823609726     1.007825032230
         H            3.753537895758     8.851049797195    -0.135607546075     1.007825032230
         H            5.869954512165     7.613809352878    -0.140111918141     1.007825032230
         H           -5.788235898544     7.676316731157    -0.139780523213     1.007825032230
         C           -6.091978149738     4.993274531866    -0.140665827446    12.000000000000
         C           -6.128665671359     3.582594687021    -0.139464650417    12.000000000000
         C           -3.664583931087     3.564196697967    -0.142389745035    12.000000000000
         C           -4.894302395740     2.861095294123    -0.133220760049    12.000000000000
         C           -2.437339185940     2.847626175307    -0.130557966498    12.000000000000
         C           -1.209232048638     3.547901453201    -0.144236993290    12.000000000000
         C            1.247137381121     3.534695269652    -0.145045599695    12.000000000000
         C            0.015171848527     2.833126357528    -0.133361416471    12.000000000000
         C            2.467640981399     2.821304495478    -0.133261358347    12.000000000000
         C            3.702545283538     3.524674672647    -0.146749319190    12.000000000000
         C            6.144976195342     4.927586884354    -0.140580409118    12.000000000000
         C            6.166584167820     3.516598994165    -0.138413855681    12.000000000000
         C            4.924605767418     2.808422443577    -0.131875109444    12.000000000000
         H            7.089901318599     5.466902284446    -0.144342289967     1.007825032230
         H           -7.031045942143     5.542702471080    -0.144899042397     1.007825032230
         C           -7.339702232165     2.858426052802    -0.141091817859    12.000000000000
         C           -7.364886149100     1.470337889806    -0.139326279731    12.000000000000
         C           -4.903508799989     1.444441330383    -0.144042543923    12.000000000000
         C           -6.132261343652     0.739953875277    -0.131752499940    12.000000000000
         C           -3.676878991558     0.726711660896    -0.133414827523    12.000000000000
         C           -2.445660777107     1.429655651485    -0.143724537724    12.000000000000
         C           -1.223604872343     0.715339019858    -0.132295273193    12.000000000000
         C            0.007633678272     1.417397667460    -0.133829619475    12.000000000000
         C            1.231215616705     0.702131208810    -0.152656205132    12.000000000000
         C            2.460816909489     1.403306554348    -0.133151696241    12.000000000000
         C            3.684426063155     0.687212946435    -0.133980482518    12.000000000000
         C            4.918704710497     1.391749079412    -0.146382304154    12.000000000000
         C            7.369797886919     2.779496721407    -0.140174275473    12.000000000000
         C            7.380158475080     1.391232026078    -0.138627592628    12.000000000000
         C            6.139795348081     0.674133141423    -0.132299250816    12.000000000000
         H           -8.279194990388     3.407132559347    -0.145389369980     1.007825032230
         H            8.315109280438     3.318132614846    -0.144384851273     1.007825032230
         C           -8.591760128623     0.724847071267    -0.138985852114    12.000000000000
         C           -8.599028794745    -0.632625288006    -0.136862727531    12.000000000000
         C           -6.139817330160    -0.674122118931    -0.143852068866    12.000000000000
         C           -7.380188303179    -1.391251671359    -0.136436007325    12.000000000000
         C           -4.918688671298    -1.391740499807    -0.131511570716    12.000000000000
         C           -3.684442486726    -0.687222797513    -0.142543810781    12.000000000000
         C           -2.460821231289    -1.403330660602    -0.132000724591    12.000000000000
         C           -1.231166203362    -0.702159346658    -0.144121103383    12.000000000000
         C           -0.007573816429    -1.417404331188    -0.136664579080    12.000000000000
         C            1.223643524847    -0.715260859041    -0.126658957131    12.000000000000
         C            2.445666458290    -1.429628770784    -0.138408969891    12.000000000000
         C            3.676862511805    -0.726692913333    -0.142549554286    12.000000000000
         C            6.132244655378    -0.739964321627    -0.144077528498    12.000000000000
         C            4.903514954462    -1.444443002318    -0.130236453958    12.000000000000
         C            8.599010657649     0.632618384891    -0.138765476484    12.000000000000
         C            8.591741297059    -0.724836348971    -0.137029096222    12.000000000000
         C            7.364858573348    -1.470318147383    -0.137259272915    12.000000000000
         H           -9.528310162860     1.276861967415    -0.140455779078     1.007825032230
         H            9.541406783565     1.174587006667    -0.139817508745     1.007825032230
         C           -7.369842100810    -2.779530627711    -0.134627798903    12.000000000000
         C           -4.924603300092    -2.808422739118    -0.142359431339    12.000000000000
         C           -6.166626686709    -3.516637674603    -0.136057591180    12.000000000000
         C           -3.702514550747    -3.524667030898    -0.132035362153    12.000000000000
         C           -2.467651176156    -2.821311444581    -0.144080000510    12.000000000000
         C           -0.015137665149    -2.833127127177    -0.143798412001    12.000000000000
         C           -1.247126032268    -3.534717657340    -0.132234458593    12.000000000000
         C            1.209240878602    -3.547900160421    -0.129695428801    12.000000000000
         C            2.437331831113    -2.847627219953    -0.143835187112    12.000000000000
         C            4.894298152729    -2.861108450063    -0.143014447041    12.000000000000
         C            3.664611063999    -3.564205327309    -0.130135027100    12.000000000000
         C            6.128634823704    -3.582569539495    -0.136789185143    12.000000000000
         C            7.339668473654    -2.858398789148    -0.135273959061    12.000000000000
         H           -9.541453302301    -1.174548948442    -0.135493311358     1.007825032230
         H            9.528257677030    -1.276904555682    -0.135779288461     1.007825032230
         H           -8.315169234890    -3.318135334990    -0.130455570372     1.007825032230
         H            8.279150951450    -3.407126271671    -0.130934403078     1.007825032230
         C           -6.144998379744    -4.927632754561    -0.134731593120    12.000000000000
         C           -3.706787539039    -4.941247195895    -0.144552561208    12.000000000000
         C           -4.955594249043    -5.643479455272    -0.136585426563    12.000000000000
         C           -2.486125517268    -5.654771056187    -0.131612890163    12.000000000000
         C           -1.254062526522    -4.956107531779    -0.142788496149    12.000000000000
         C            1.201008382827    -4.969265869970    -0.141607371891    12.000000000000
         C           -0.030340865455    -5.669505784916    -0.133764172227    12.000000000000
         C            3.653745910287    -4.980729257192    -0.140849372143    12.000000000000
         C            2.425488504834    -5.681160117305    -0.131472441591    12.000000000000
         C            6.091961426769    -4.993243445164    -0.134494958469    12.000000000000
         C            4.894972253569    -5.696333902735    -0.135731154300    12.000000000000
         H           -7.089896579082    -5.466985324016    -0.130328831439     1.007825032230
         H            7.031051018158    -5.542644018110    -0.130915178706     1.007825032230
         C           -4.923549513240    -7.078806581455    -0.137140195468    12.000000000000
         C           -2.485346279279    -7.087713559707    -0.139650087904    12.000000000000
         C           -3.751690082821    -7.763932639414    -0.139455408979    12.000000000000
         C           -0.037953148030    -7.099450356247    -0.139434362756    12.000000000000
         C           -1.277960291443    -7.772889866444    -0.141419055518    12.000000000000
         C            2.409440129685    -7.114007493780    -0.138571161945    12.000000000000
         C            1.194745746111    -7.786170847340    -0.140723452827    12.000000000000
         C            4.847616861456    -7.131247592357    -0.136064347286    12.000000000000
         C            3.668467414834    -7.803773474721    -0.138412781649    12.000000000000
         H           -5.869944541458    -7.613816079819    -0.135596158602     1.007825032230
         H            5.788245434347    -7.676317671092    -0.134937227804     1.007825032230
         H           -3.753531130491    -8.851057051013    -0.141291323407     1.007825032230
         H           -1.284308596936    -8.860860874274    -0.145846439376     1.007825032230
         H            1.189217383654    -8.874146102367    -0.144816089517     1.007825032230
         H            3.658542423782    -8.890846115831    -0.140067323072     1.007825032230

  Charge       = 0
  Multiplicity = 1
  Basis Set: JUN-CC-PVDZ
    Blend: JUN-CC-PVDZ
  Basis Set: (JUN-CC-PVDZ AUX)
    Blend: JUN-CC-PVDZ-JKFIT

    Orbital Energies [Eh]
    ---------------------

    Doubly Occupied:

       1A    -11.264025     2A    -11.263708     3A    -11.263630
       4A    -11.263298     5A    -11.263224     6A    -11.263208
       7A    -11.263084     8A    -11.263058     9A    -11.263044
      10A    -11.262821    11A    -11.262714    12A    -11.262678
      13A    -11.262228    14A    -11.262189    15A    -11.262180
      16A    -11.262168    17A    -11.262068    18A    -11.262065
      19A    -11.262032    20A    -11.261996    21A    -11.261979
      22A    -11.261886    23A    -11.261858    24A    -11.261732
      25A    -11.261720    26A    -11.261710    27A    -11.261690
      28A    -11.261659    29A    -11.261643    30A    -11.261548
      31A    -11.261532    32A    -11.261518    33A    -11.261507
      34A    -11.261491    35A    -11.261487    36A    -11.261474
      37A    -11.261315    38A    -11.261309    39A    -11.261301
      40A    -11.261296    41A    -11.261292    42A    -11.261287
      43A    -11.261264    44A    -11.261244    45A    -11.261242
      46A    -11.261218    47A    -11.261211    48A    -11.261207
      49A    -11.261008    50A    -11.260983    51A    -11.260962
      52A    -11.260896    53A    -11.260890    54A    -11.260834
      55A    -11.259893    56A    -11.259881    57A    -11.259875
      58A    -11.259848    59A    -11.259842    60A    -11.259828
      61A    -11.259260    62A    -11.259238    63A    -11.259228
      64A    -11.259182    65A    -11.259170    66A    -11.259145
      67A    -11.258895    68A    -11.258878    69A    -11.258872
      70A    -11.258848    71A    -11.258840    72A    -11.258830
      73A    -11.254522    74A    -11.254518    75A    -11.254513
      76A    -11.254512    77A    -11.254511    78A    -11.254510
      79A    -11.253641    80A    -11.253640    81A    -11.253636
      82A    -11.253634    83A    -11.253632    84A    -11.253628
      85A    -11.253557    86A    -11.253555    87A    -11.253551
      88A    -11.253549    89A    -11.253548    90A    -11.253544
      91A    -11.253049    92A    -11.253046    93A    -11.253041
      94A    -11.253040    95A    -11.253039    96A    -11.253038
      97A     -1.253841    98A     -1.238948    99A     -1.238930
     100A     -1.220431   101A     -1.220418   102A     -1.215334
     103A     -1.201018   104A     -1.195575   105A     -1.188064
     106A     -1.188050   107A     -1.173744   108A     -1.173736
     109A     -1.155567   110A     -1.155560   111A     -1.152612
     112A     -1.144702   113A     -1.144700   114A     -1.128522
     115A     -1.114652   116A     -1.113138   117A     -1.112391
     118A     -1.112384   119A     -1.111603   120A     -1.088382
     121A     -1.088361   122A     -1.076940   123A     -1.076938
     124A     -1.067557   125A     -1.067530   126A     -1.064889
     127A     -1.046764   128A     -1.046753   129A     -1.040437
     130A     -1.038715   131A     -1.038713   132A     -1.025167
     133A     -1.021277   134A     -1.021228   135A     -1.007145
     136A     -1.006774   137A     -1.003758   138A     -1.000426
     139A     -1.000375   140A     -0.991058   141A     -0.970927
     142A     -0.970884   143A     -0.955852   144A     -0.955795
     145A     -0.905532   146A     -0.905510   147A     -0.905494
     148A     -0.905469   149A     -0.904239   150A     -0.892285
     151A     -0.892232   152A     -0.890296   153A     -0.890234
     154A     -0.889406   155A     -0.872189   156A     -0.869045
     157A     -0.851508   158A     -0.847799   159A     -0.847778
     160A     -0.845529   161A     -0.842968   162A     -0.834525
     163A     -0.834511   164A     -0.828087   165A     -0.828086
     166A     -0.784505   167A     -0.784496   168A     -0.783596
     169A     -0.783566   170A     -0.782234   171A     -0.782216
     172A     -0.781970   173A     -0.766961   174A     -0.760719
     175A     -0.750501   176A     -0.733457   177A     -0.727025
     178A     -0.727017   179A     -0.725033   180A     -0.724505
     181A     -0.724492   182A     -0.718401   183A     -0.713696
     184A     -0.713689   185A     -0.699531   186A     -0.699522
     187A     -0.686034   188A     -0.685930   189A     -0.685925
     190A     -0.682148   191A     -0.682130   192A     -0.678703
     193A     -0.653576   194A     -0.650819   195A     -0.650790
     196A     -0.649732   197A     -0.649720   198A     -0.649539
     199A     -0.640830   200A     -0.640817   201A     -0.640060
     202A     -0.639140   203A     -0.635952   204A     -0.635933
     205A     -0.629101   206A     -0.617743   207A     -0.615277
     208A     -0.615258   209A     -0.608764   210A     -0.608756
     211A     -0.599100   212A     -0.599055   213A     -0.598690
     214A     -0.598556   215A     -0.598526   216A     -0.597945
     217A     -0.595037   218A     -0.595027   219A     -0.594675
     220A     -0.594146   221A     -0.591895   222A     -0.591889
     223A     -0.587305   224A     -0.577778   225A     -0.577769
     226A     -0.575632   227A     -0.575627   228A     -0.573349
     229A     -0.569613   230A     -0.568046   231A     -0.568029
     232A     -0.566702   233A     -0.566685   234A     -0.560894
     235A     -0.558655   236A     -0.558638   237A     -0.558406
     238A     -0.554321   239A     -0.550524   240A     -0.547456
     241A     -0.544236   242A     -0.535034   243A     -0.534940
     244A     -0.533489   245A     -0.533464   246A     -0.528041
     247A     -0.528028   248A     -0.527709   249A     -0.517081
     250A     -0.517052   251A     -0.515326   252A     -0.515319
     253A     -0.509611   254A     -0.509593   255A     -0.497991
     256A     -0.496403   257A     -0.496376   258A     -0.493758
     259A     -0.493717   260A     -0.489443   261A     -0.481419
     262A     -0.477394   263A     -0.477389   264A     -0.473957
     265A     -0.469389   266A     -0.466471   267A     -0.466469
     268A     -0.458746   269A     -0.446600   270A     -0.446536
     271A     -0.441014   272A     -0.440771   273A     -0.440723
     274A     -0.434662   275A     -0.433887   276A     -0.407330
     277A     -0.407327   278A     -0.386346   279A     -0.386293
     280A     -0.385720   281A     -0.385709   282A     -0.383706
     283A     -0.354290   284A     -0.354288   285A     -0.350603
     286A     -0.338039   287A     -0.335570   288A     -0.335416
     289A     -0.332689   290A     -0.332683   291A     -0.306990
     292A     -0.301860   293A     -0.301813   294A     -0.300818
     295A     -0.286134   296A     -0.256464   297A     -0.253434
     298A     -0.253344   299A     -0.204212   300A     -0.204125

  @DF-RHF Final Energy: -3650.34161294739943

   => Energetics <=

    Nuclear Repulsion Energy =          15611.4211649754324753
    One-Electron Energy =              -36072.1755149392192834
    Two-Electron Energy =               16810.4127370163878368
    Total Energy =                      -3650.3416129473989713
 Dipole X            :          0.0001316            0.0001983            0.0003299
 Dipole Y            :          0.0008747           -0.0013163           -0.0004416
 Dipole Z            :        156.1916609         -156.1871690            0.0044919
 Magnitude           :                                                    0.0045256

    SAPT Results
  --------------------------------------------------------------------------------------------------------
    Electrostatics              -1165.38985754 [mEh]    -731.29317625 [kcal/mol]   -3059.73064943 [kJ/mol]
      Elst10,r                  -1165.38985754 [mEh]    -731.29317625 [kcal/mol]   -3059.73064943 [kJ/mol]

    Exchange                     2563.27669802 [mEh]    1608.48041192 [kcal/mol]    6729.88204348 [kJ/mol]
      Exch10                     2563.27669802 [mEh]    1608.48041192 [kcal/mol]    6729.88204348 [kJ/mol]
      Exch10(S^2)                2001.11021994 [mEh]    1255.71562108 [kcal/mol]    5253.91415861 [kJ/mol]

    Induction                    -527.65929675 [mEh]    -331.11120764 [kcal/mol]   -1385.36929277 [kJ/mol]
      Ind20,r                   -2166.40447281 [mEh]   -1359.43933072 [kcal/mol]   -5687.89415974 [kJ/mol]
      Exch-Ind20,r               1040.29538177 [mEh]     652.79520759 [kcal/mol]    2731.29514855 [kJ/mol]
      delta HF,r (2)              598.44979428 [mEh]     375.53291549 [kcal/mol]    1571.22971842 [kJ/mol]

    Dispersion                   -159.58542942 [mEh]    -100.14136884 [kcal/mol]    -418.99148721 [kJ/mol]
      Disp20                     -271.90866838 [mEh]    -170.62526541 [kcal/mol]    -713.89611048 [kJ/mol]
      Exch-Disp20                 112.32323896 [mEh]      70.48389658 [kcal/mol]     294.90462327 [kJ/mol]
      Disp20 (SS)                -135.95433419 [mEh]     -85.31263271 [kcal/mol]    -356.94805524 [kJ/mol]
      Disp20 (OS)                -135.95433419 [mEh]     -85.31263271 [kcal/mol]    -356.94805524 [kJ/mol]
      Exch-Disp20 (SS)             48.65523110 [mEh]      30.53161847 [kcal/mol]     127.74429167 [kJ/mol]
      Exch-Disp20 (OS)             63.66800786 [mEh]      39.95227811 [kcal/mol]     167.16033161 [kJ/mol]

  Total HF                        870.22754373 [mEh]     546.07602803 [kcal/mol]    2284.78210129 [kJ/mol]
  Total SAPT0                     710.64211431 [mEh]     445.93465920 [kcal/mol]    1865.79061408 [kJ/mol]

  Special recipe for scaled SAPT0 (see Manual):
    Electrostatics sSAPT0       -1165.38985754 [mEh]    -731.29317625 [kcal/mol]   -3059.73064943 [kJ/mol]
    Exchange sSAPT0              2563.27669802 [mEh]    1608.48041192 [kcal/mol]    6729.88204348 [kJ/mol]
    Induction sSAPT0              618.44779038 [mEh]     388.08184750 [kcal/mol]    1623.73444994 [kJ/mol]
    Dispersion sSAPT0             -35.83744160 [mEh]     -22.48833412 [kcal/mol]     -94.09118997 [kJ/mol]
  Total sSAPT0                   1980.49718926 [mEh]    1242.78074905 [kcal/mol]    5199.79465403 [kJ/mol]
  --------------------------------------------------------------------------------------------------------

*** Psi4 exiting successfully. Buy a developer a beer!
