                               Psi4 1.9 release

  ==> Input File <==

--------------------------------------------------------------------------
memory 32 GB # how much memory is available ! Depends on the nodes/cores !

molecule dimer {
# monomer A
-1 1    # Charge and multiplicity
B -0.000046  0.000337 2.199994
F -1.153597  0.000048 3.015641
F  1.153661 -0.000581 3.015641
F -0.000019 -1.153637 1.384360
F -0.000019  1.153978 1.384360
--
# monomer B
0 1     # Charge and multiplicity
C   1.22531237526482      0.70753866091955      0.00613762728373
C   1.22532433589282     -0.70753852257020     -0.00619318228664
C   -0.00000567409046      1.41496628609039     -0.00672680580738
C   2.45644923379077      1.41832825917820      0.00902448468363
C   0.00001130712078     -1.41497612663474      0.00347275151708
C   -1.22530046906674      0.70754574598412      0.00838914760619
C   2.45643823516184     -1.41832293188077     -0.00843833914343
C   -0.00000085313587      2.83680140328112     -0.00913035594137
C   3.68182717731192      0.70931832800114     -0.00808954934571
C   2.45512052870677      2.83422403348893     -0.00819210630633
C   3.68182158506039     -0.70933346742900      0.00798293467272
C   -1.22531311884624     -0.70752714354401     -0.00512042085974
C   1.22670006104402      3.54346985599427      0.00816696660346
C   0.00000526469929     -2.83678176723568      0.00832091913869
C   -2.45643555300670      1.41831729028492      0.00842454345199
C   2.45512389762097     -2.83422965658853      0.00783102630520
C   -1.22671388474763      3.54346943575023      0.00827029982280
C   4.91451777504333      1.42717324448953     -0.00160886631602
C   3.69315067131765      3.54279566454522     -0.00155906667985
C   -2.45643712022637     -1.41831290883911     -0.00846337726810
C   1.22670532178455     -3.54347386990643     -0.00780316414624
C   -2.45512491866593      2.83421703463423     -0.00818572995999
C   4.91452486062398     -1.42718653794377      0.00136387641845
C   1.22142509354026      4.97013443726031      0.00150231067809
C   4.89300870916237      2.82518837202648     -0.00039219795739
C   -1.22669652864725     -3.54347062507680     -0.00753595973677
C   -3.68181849668397      0.70932533873199     -0.00807686886569
C   3.69314758099218     -3.54280096939050      0.00148176697923
C   -1.22143177215231      4.97012866986289      0.00168580605083
C   6.13477145276790      0.68054831910577     -0.00083909176631
C   3.65678936045204      4.97295361556775     -0.00065042889723
C   -2.45512642789169     -2.83421472106065      0.00758666850712
C   -3.68181869921921     -0.70932533146830      0.00810055625144
C   4.89301309775526     -2.82519973363176      0.00021895393805
C   -0.00000059327114      5.65044773803267      0.00045449734393
C   6.13477559217374     -0.68055448207492      0.00042622874941
C   2.47813196269732      5.65357712333155      0.00063835075260
C   1.22142288457925     -4.97012668293268     -0.00129718634452
C   -3.69316190412301      3.54279732619245     -0.00139355922051
C   -1.22142804110313     -4.97011793159564     -0.00140994817719
C   -4.91452132810043      1.42717581899491     -0.00153192130862
C   3.65678749952045     -4.97295485423912      0.00080007163680
C   -2.47813805026426      5.65357479452875      0.00092287576113
C   -3.69314125872231     -3.54278984697859      0.00136564082345
C   -4.91451200321153     -1.42718062802730      0.00139857359209
C   -0.00000552908399     -5.65043791501335      0.00005899322272
C   -4.89302000425900      2.82518897091939     -0.00040227981744
C   2.47812647313991     -5.65357317188818     -0.00029052915548
C   -3.65679823041642      4.97295655404175     -0.00047374852278
C   -4.89299899901461     -2.82519139505969      0.00006491824035
C   -2.47812801824129     -5.65356579800621     -0.00056571680280
C   -6.13477002348955      0.68054913825639     -0.00086464346868
C   -3.65678835334731     -4.97294365097028      0.00058578382008
C   -6.13476456307132     -0.68055354348201      0.00040575295444
H   5.83528897565761      3.36927626695423      0.00396712770529
H   7.07385965258860      1.22821762089947     -0.00037744837300
H   4.60066374401555      5.51238117445323     -0.00014522814529
H   5.83528386714679     -3.36930568472863     -0.00423551337640
H   -0.00001167146422      6.73853104613662     -0.00389474766392
H   7.07386165167227     -1.22822657074368     -0.00008250934481
H   2.47331421164041      6.74068466339473      0.00017162982210
H   4.60066897122302     -5.51237575717576      0.00039007446835
H   -2.47331820069565      6.74068209160650      0.00047297644710
H   -0.00000978838621     -6.73852780445195      0.00458867820736
H   -5.83530143450167      3.36927132229595      0.00410314985360
H   2.47330840367253     -6.74068500242887      0.00027980126949
H   -4.60067436136587      5.51237839860371      0.00002010017831
H   -5.83527902699321     -3.36928859177951     -0.00451481925734
H   -2.47329986759855     -6.74067870613986     -0.00016951527498
H   -7.07385728692578      1.22822084484047     -0.00046143985387
H   -4.60067330624313     -5.51236229778631      0.00021776644566
H   -7.07385645456741     -1.22822025997701     -0.00017736581114

    units angstrom      # Angstroms are the default
    no_reorient         # Geometry fixed, default
    symmetry c1         # C1 symmetry, default
}

set {
    scf_type DF         # Density fitting, faster than exact integrals
    freeze_core True    # Freeze core electrons
    basis jun-cc-pVDZ   # Jun-cc-pVDZ basis set, recommended for sSAPT0 in https://doi.org/10.1063/1.4867135
}

energy('ssapt0')        # Compute sSAPT0 energy, includes also SAPT0
--------------------------------------------------------------------------

  //              Dimer HF             //
    Molecular point group: c1
  Charge       = -1
  Multiplicity = 1
  Basis Set: JUN-CC-PVDZ
    Blend: JUN-CC-PVDZ
  Basis Set: (JUN-CC-PVDZ AUX)
    Blend: JUN-CC-PVDZ-JKFIT
  @DF-RHF Final Energy: -2478.08822153078700
    Total Energy =                      -2478.0882215307865408
 Dipole X            :         -0.0032218           -0.0000160           -0.0032379
 Dipole Y            :         -0.0412443           -0.0001716           -0.0414160
 Dipole Z            :         12.6788961          -13.4865592           -0.8076632
 Magnitude           :                                                    0.8087308
  //            Monomer A HF           //
    Molecular point group: c1
  Multiplicity = 1
  Basis Set: JUN-CC-PVDZ
    Blend: JUN-CC-PVDZ
  Basis Set: (JUN-CC-PVDZ AUX)
    Blend: JUN-CC-PVDZ-JKFIT
  @DF-RHF Final Energy:  -422.77901219875451
    Total Energy =                       -422.7790121987545149
  //            Monomer B HF           //
    Molecular point group: c1

    Geometry (in Angstrom), charge = 0, multiplicity = 1:

       Center              X                  Y                   Z               Mass
    ------------   -----------------  -----------------  -----------------  -----------------
      Gh(B)          -0.000046449334     0.000336519434     1.945852996845    11.009305360000
      Gh(F)          -1.153597449334     0.000047519434     2.761499996845    18.998403162730
      Gh(F)           1.153660550666    -0.000581480566     2.761499996845    18.998403162730
      Gh(F)          -0.000019449334    -1.153637480566     1.130218996845    18.998403162730
      Gh(F)          -0.000019449334     1.153977519434     1.130218996845    18.998403162730
         C            1.225311925931     0.707538180353    -0.248003375871    12.000000000000
         C            1.225323886559    -0.707539003137    -0.260334185442    12.000000000000
         C           -0.000006123424     1.414965805524    -0.260867808962    12.000000000000
         C            2.456448784457     1.418327778612    -0.245116518471    12.000000000000
         C            0.000010857787    -1.414976607201    -0.250668251638    12.000000000000
         C           -1.225300918401     0.707545265418    -0.245751855549    12.000000000000
         C            2.456437785828    -1.418323412447    -0.262579342299    12.000000000000
         C           -0.000001302470     2.836800922715    -0.263271359096    12.000000000000
         C            3.681826727978     0.709317847435    -0.262230552501    12.000000000000
         C            2.455120079373     2.834223552923    -0.262333109461    12.000000000000
         C            3.681821135726    -0.709333947995    -0.246158068482    12.000000000000
         C           -1.225313568180    -0.707527624110    -0.259261424015    12.000000000000
         C            1.226699611710     3.543469375428    -0.245974036552    12.000000000000
         C            0.000004815365    -2.836782247802    -0.245820084016    12.000000000000
         C           -2.456436002341     1.418316809719    -0.245716459703    12.000000000000
         C            2.455123448287    -2.834230137155    -0.246309976850    12.000000000000
         C           -1.226714334082     3.543468955184    -0.245870703332    12.000000000000
         C            4.914517325709     1.427172763923    -0.255749869471    12.000000000000
         C            3.693150221984     3.542795183979    -0.255700069835    12.000000000000
         C           -2.456437569560    -1.418313389406    -0.262604380423    12.000000000000
         C            1.226704872451    -3.543474350473    -0.261944167301    12.000000000000
         C           -2.455125368000     2.834216554068    -0.262326733115    12.000000000000
         C            4.914524411290    -1.427187018510    -0.252777126737    12.000000000000
         C            1.221424644206     4.970133956694    -0.252638692477    12.000000000000
         C            4.893008259828     2.825187891460    -0.254533201113    12.000000000000
         C           -1.226696977981    -3.543471105643    -0.261676962892    12.000000000000
         C           -3.681818946018     0.709324858166    -0.262217872021    12.000000000000
         C            3.693147131658    -3.542801449957    -0.252659236176    12.000000000000
         C           -1.221432221486     4.970128189296    -0.252455197104    12.000000000000
         C            6.134771003434     0.680547838539    -0.254980094921    12.000000000000
         C            3.656788911118     4.972953135001    -0.254791432052    12.000000000000
         C           -2.455126877226    -2.834215201627    -0.246554334648    12.000000000000
         C           -3.681819148553    -0.709325812035    -0.246040446904    12.000000000000
         C            4.893012648421    -2.825200214198    -0.253922049217    12.000000000000
         C           -0.000001042605     5.650447257466    -0.253686505811    12.000000000000
         C            6.134775142840    -0.680554962641    -0.253714774406    12.000000000000
         C            2.478131513363     5.653576642765    -0.253502652403    12.000000000000
         C            1.221422435245    -4.970127163499    -0.255438189500    12.000000000000
         C           -3.693162353457     3.542796845626    -0.255534562376    12.000000000000
         C           -1.221428490437    -4.970118412162    -0.255550951332    12.000000000000
         C           -4.914521777434     1.427175338429    -0.255672924464    12.000000000000
         C            3.656787050187    -4.972955334806    -0.253340931518    12.000000000000
         C           -2.478138499598     5.653574313962    -0.253218127394    12.000000000000
         C           -3.693141708056    -3.542790327545    -0.252775362332    12.000000000000
         C           -4.914512452545    -1.427181108594    -0.252742429563    12.000000000000
         C           -0.000005978418    -5.650438395580    -0.254082009932    12.000000000000
         C           -4.893020453593     2.825188490353    -0.254543282973    12.000000000000
         C            2.478126023806    -5.653573652455    -0.254431532311    12.000000000000
         C           -3.656798679750     4.972956073475    -0.254614751678    12.000000000000
         C           -4.892999448349    -2.825191875626    -0.254076084915    12.000000000000
         C           -2.478128467575    -5.653566278573    -0.254706719958    12.000000000000
         C           -6.134770472823     0.680548657690    -0.255005646624    12.000000000000
         C           -3.656788802681    -4.972944131537    -0.253555219335    12.000000000000
         C           -6.134765012405    -0.680554024048    -0.253735250201    12.000000000000
         H            5.835288526324     3.369275786388    -0.250173875450     1.007825032230
         H            7.073859203255     1.228217140333    -0.254518451528     1.007825032230
         H            4.600663294682     5.512380693887    -0.254286231300     1.007825032230
         H            5.835283417813    -3.369306165295    -0.258376516532     1.007825032230
         H           -0.000012120798     6.738530565570    -0.258035750819     1.007825032230
         H            7.073861202338    -1.228227051310    -0.254223512500     1.007825032230
         H            2.473313762307     6.740684182828    -0.253969373333     1.007825032230
         H            4.600668521889    -5.512376237742    -0.253750928687     1.007825032230
         H           -2.473318650030     6.740681611040    -0.253668026708     1.007825032230
         H           -0.000010237720    -6.738528285018    -0.249552324948     1.007825032230
         H           -5.835301883836     3.369270841730    -0.250037853302     1.007825032230
         H            2.473307954339    -6.740685482995    -0.253861201886     1.007825032230
         H           -4.600674810700     5.512377918037    -0.254120902977     1.007825032230
         H           -5.835279476327    -3.369289072346    -0.258655822412     1.007825032230
         H           -2.473300316932    -6.740679186706    -0.254310518430     1.007825032230
         H           -7.073857736260     1.228220364274    -0.254602443009     1.007825032230
         H           -4.600673755577    -5.512362778353    -0.253923236709     1.007825032230
         H           -7.073856903901    -1.228220740543    -0.254318368966     1.007825032230

  Charge       = 0
  Multiplicity = 1
  Basis Set: JUN-CC-PVDZ
    Blend: JUN-CC-PVDZ
  Basis Set: (JUN-CC-PVDZ AUX)
    Blend: JUN-CC-PVDZ-JKFIT

    Orbital Energies [Eh]
    ---------------------

    Doubly Occupied:

       1A    -11.260655     2A    -11.260257     3A    -11.260139
       4A    -11.259476     5A    -11.259376     6A    -11.259232
       7A    -11.258985     8A    -11.258938     9A    -11.258881
      10A    -11.258614    11A    -11.258570    12A    -11.258470
      13A    -11.258425    14A    -11.258420    15A    -11.258409
      16A    -11.258387    17A    -11.258358    18A    -11.258350
      19A    -11.258346    20A    -11.258342    21A    -11.258340
      22A    -11.258298    23A    -11.258265    24A    -11.258050
      25A    -11.257243    26A    -11.257199    27A    -11.257164
      28A    -11.257051    29A    -11.257047    30A    -11.256968
      31A    -11.256332    32A    -11.256278    33A    -11.256247
      34A    -11.256164    35A    -11.256144    36A    -11.256107
      37A    -11.252261    38A    -11.252260    39A    -11.252241
      40A    -11.252240    41A    -11.252238    42A    -11.252237
      43A    -11.251346    44A    -11.251345    45A    -11.251339
      46A    -11.251337    47A    -11.251301    48A    -11.251297
      49A    -11.250822    50A    -11.250821    51A    -11.250802
      52A    -11.250802    53A    -11.250798    54A    -11.250798
      55A     -1.243912    56A     -1.219720    57A     -1.219682
      58A     -1.189460    59A     -1.189439    60A     -1.180805
      61A     -1.157496    62A     -1.148894    63A     -1.135368
      64A     -1.135348    65A     -1.113130    66A     -1.113120
      67A     -1.082313    68A     -1.082313    69A     -1.078478
      70A     -1.065924    71A     -1.065918    72A     -1.039314
      73A     -1.024134    74A     -1.021608    75A     -1.021582
      76A     -1.017673    77A     -1.012741    78A     -0.986909
      79A     -0.986864    80A     -0.961802    81A     -0.961760
      82A     -0.894216    83A     -0.894193    84A     -0.887802
      85A     -0.886048    86A     -0.885981    87A     -0.881282
      88A     -0.881239    89A     -0.861821    90A     -0.837373
      91A     -0.818123    92A     -0.816479    93A     -0.812026
      94A     -0.812008    95A     -0.794618    96A     -0.794611
      97A     -0.746506    98A     -0.744748    99A     -0.733285
     100A     -0.733271   101A     -0.732111   102A     -0.732083
     103A     -0.716395   104A     -0.698898   105A     -0.698887
     106A     -0.693477   107A     -0.693476   108A     -0.661154
     109A     -0.652963   110A     -0.651013   111A     -0.650188
     112A     -0.650183   113A     -0.639294   114A     -0.639285
     115A     -0.629611   116A     -0.627416   117A     -0.627388
     118A     -0.606520   119A     -0.605780   120A     -0.601549
     121A     -0.599641   122A     -0.599625   123A     -0.593547
     124A     -0.591060   125A     -0.591044   126A     -0.585236
     127A     -0.576387   128A     -0.576351   129A     -0.567268
     130A     -0.567256   131A     -0.565841   132A     -0.565812
     133A     -0.558589   134A     -0.554765   135A     -0.554762
     136A     -0.538525   137A     -0.538523   138A     -0.538154
     139A     -0.538136   140A     -0.529639   141A     -0.528211
     142A     -0.522788   143A     -0.522784   144A     -0.500434
     145A     -0.495553   146A     -0.493161   147A     -0.487805
     148A     -0.484976   149A     -0.481657   150A     -0.481653
     151A     -0.470389   152A     -0.470308   153A     -0.450892
     154A     -0.450802   155A     -0.439031   156A     -0.439027
     157A     -0.404691   158A     -0.404647   159A     -0.403325
     160A     -0.375396   161A     -0.375385   162A     -0.349071
     163A     -0.337530   164A     -0.336550   165A     -0.336411
     166A     -0.311012   167A     -0.298087   168A     -0.284242
     169A     -0.284202   170A     -0.224857   171A     -0.224762

  @DF-RHF Final Energy: -2055.89540221685320

   => Energetics <=

    Nuclear Repulsion Energy =           6452.5568002797781446
    One-Electron Energy =              -15636.5111348778227693
    Two-Electron Energy =                7128.0589323811918803
    Total Energy =                      -2055.8954022168536540
 Dipole X            :          0.0000453            0.0000112            0.0000565
 Dipole Y            :          0.0001301           -0.0000531            0.0000770
 Dipole Z            :        164.2556137         -164.2493004            0.0063133
 Magnitude           :                                                    0.0063140

    SAPT Results
  --------------------------------------------------------------------------------------------------------
    Electrostatics               -671.32383653 [mEh]    -421.26206740 [kcal/mol]   -1762.56048999 [kJ/mol]
      Elst10,r                   -671.32383653 [mEh]    -421.26206740 [kcal/mol]   -1762.56048999 [kJ/mol]

    Exchange                     1499.80257200 [mEh]     941.14032273 [kcal/mol]    3937.73111029 [kJ/mol]
      Exch10                     1499.80257200 [mEh]     941.14032273 [kcal/mol]    3937.73111029 [kJ/mol]
      Exch10(S^2)                1266.97201516 [mEh]     795.03694253 [kcal/mol]    3326.43456753 [kJ/mol]

    Induction                    -242.28585065 [mEh]    -152.03666664 [kcal/mol]    -636.12141324 [kJ/mol]
      Ind20,r                   -1155.01110026 [mEh]    -724.78040773 [kcal/mol]   -3032.48122596 [kJ/mol]
      Exch-Ind20,r                702.87061975 [mEh]     441.05797273 [kcal/mol]    1845.38655792 [kJ/mol]
      delta HF,r (2)              209.85462986 [mEh]     131.68576836 [kcal/mol]     550.97325480 [kJ/mol]

    Dispersion                   -111.80498500 [mEh]     -70.15868730 [kcal/mol]    -293.54394767 [kJ/mol]
      Disp20                     -186.24714744 [mEh]    -116.87184948 [kcal/mol]    -488.99181822 [kJ/mol]
      Exch-Disp20                  74.44216244 [mEh]      46.71316218 [kcal/mol]     195.44787055 [kJ/mol]
      Disp20 (SS)                 -93.12357372 [mEh]     -58.43592474 [kcal/mol]    -244.49590911 [kJ/mol]
      Disp20 (OS)                 -93.12357372 [mEh]     -58.43592474 [kcal/mol]    -244.49590911 [kJ/mol]
      Exch-Disp20 (SS)             33.32480747 [mEh]      20.91163240 [kcal/mol]      87.49426996 [kJ/mol]
      Exch-Disp20 (OS)             41.11735496 [mEh]      25.80152978 [kcal/mol]     107.95360059 [kJ/mol]

  Total HF                        586.19288482 [mEh]     367.84158869 [kcal/mol]    1539.04920706 [kJ/mol]
  Total SAPT0                     474.38789982 [mEh]     297.68290138 [kcal/mol]    1245.50525939 [kJ/mol]

  Special recipe for scaled SAPT0 (see Manual):
    Electrostatics sSAPT0        -671.32383653 [mEh]    -421.26206740 [kcal/mol]   -1762.56048999 [kJ/mol]
    Exchange sSAPT0              1499.80257200 [mEh]     941.14032273 [kcal/mol]    3937.73111029 [kJ/mol]
    Induction sSAPT0              220.78461226 [mEh]     138.54443586 [kcal/mol]     579.66991963 [kJ/mol]
    Dispersion sSAPT0             -62.76044444 [mEh]     -39.38277346 [kcal/mol]    -164.77752417 [kJ/mol]
  Total sSAPT0                    986.50290329 [mEh]     619.03991772 [kcal/mol]    2590.06301575 [kJ/mol]
  --------------------------------------------------------------------------------------------------------

*** Psi4 exiting successfully. Buy a developer a beer!
