                               Psi4 1.9 release

  ==> Input File <==

--------------------------------------------------------------------------
memory 32 GB # how much memory is available ! Depends on the nodes/cores !

molecule dimer {
# monomer A
-1 1    # Charge and multiplicity
B -1.977592e-04  2.742729e-04 4.400034
F  1.123153e-16  1.430594e-17 5.812819
F  1.147860e+00  6.757812e-01 3.928893
F  1.191806e-02 -1.332011e+00 3.929095
F -1.159666e+00  6.560735e-01 3.929174
--
# monomer B
0 1     # Charge and multiplicity
C   1.22531237526482      0.70753866091955      0.00613762728373
C   1.22532433589282     -0.70753852257020     -0.00619318228664
C   -0.00000567409046      1.41496628609039     -0.00672680580738
C   2.45644923379077      1.41832825917820      0.00902448468363
C   0.00001130712078     -1.41497612663474      0.00347275151708
C   -1.22530046906674      0.70754574598412      0.00838914760619
C   2.45643823516184     -1.41832293188077     -0.00843833914343
C   -0.00000085313587      2.83680140328112     -0.00913035594137
C   3.68182717731192      0.70931832800114     -0.00808954934571
C   2.45512052870677      2.83422403348893     -0.00819210630633
C   3.68182158506039     -0.70933346742900      0.00798293467272
C   -1.22531311884624     -0.70752714354401     -0.00512042085974
C   1.22670006104402      3.54346985599427      0.00816696660346
C   0.00000526469929     -2.83678176723568      0.00832091913869
C   -2.45643555300670      1.41831729028492      0.00842454345199
C   2.45512389762097     -2.83422965658853      0.00783102630520
C   -1.22671388474763      3.54346943575023      0.00827029982280
C   4.91451777504333      1.42717324448953     -0.00160886631602
C   3.69315067131765      3.54279566454522     -0.00155906667985
C   -2.45643712022637     -1.41831290883911     -0.00846337726810
C   1.22670532178455     -3.54347386990643     -0.00780316414624
C   -2.45512491866593      2.83421703463423     -0.00818572995999
C   4.91452486062398     -1.42718653794377      0.00136387641845
C   1.22142509354026      4.97013443726031      0.00150231067809
C   4.89300870916237      2.82518837202648     -0.00039219795739
C   -1.22669652864725     -3.54347062507680     -0.00753595973677
C   -3.68181849668397      0.70932533873199     -0.00807686886569
C   3.69314758099218     -3.54280096939050      0.00148176697923
C   -1.22143177215231      4.97012866986289      0.00168580605083
C   6.13477145276790      0.68054831910577     -0.00083909176631
C   3.65678936045204      4.97295361556775     -0.00065042889723
C   -2.45512642789169     -2.83421472106065      0.00758666850712
C   -3.68181869921921     -0.70932533146830      0.00810055625144
C   4.89301309775526     -2.82519973363176      0.00021895393805
C   -0.00000059327114      5.65044773803267      0.00045449734393
C   6.13477559217374     -0.68055448207492      0.00042622874941
C   2.47813196269732      5.65357712333155      0.00063835075260
C   1.22142288457925     -4.97012668293268     -0.00129718634452
C   -3.69316190412301      3.54279732619245     -0.00139355922051
C   -1.22142804110313     -4.97011793159564     -0.00140994817719
C   -4.91452132810043      1.42717581899491     -0.00153192130862
C   3.65678749952045     -4.97295485423912      0.00080007163680
C   -2.47813805026426      5.65357479452875      0.00092287576113
C   -3.69314125872231     -3.54278984697859      0.00136564082345
C   -4.91451200321153     -1.42718062802730      0.00139857359209
C   -0.00000552908399     -5.65043791501335      0.00005899322272
C   -4.89302000425900      2.82518897091939     -0.00040227981744
C   2.47812647313991     -5.65357317188818     -0.00029052915548
C   -3.65679823041642      4.97295655404175     -0.00047374852278
C   -4.89299899901461     -2.82519139505969      0.00006491824035
C   -2.47812801824129     -5.65356579800621     -0.00056571680280
C   -6.13477002348955      0.68054913825639     -0.00086464346868
C   -3.65678835334731     -4.97294365097028      0.00058578382008
C   -6.13476456307132     -0.68055354348201      0.00040575295444
H   5.83528897565761      3.36927626695423      0.00396712770529
H   7.07385965258860      1.22821762089947     -0.00037744837300
H   4.60066374401555      5.51238117445323     -0.00014522814529
H   5.83528386714679     -3.36930568472863     -0.00423551337640
H   -0.00001167146422      6.73853104613662     -0.00389474766392
H   7.07386165167227     -1.22822657074368     -0.00008250934481
H   2.47331421164041      6.74068466339473      0.00017162982210
H   4.60066897122302     -5.51237575717576      0.00039007446835
H   -2.47331820069565      6.74068209160650      0.00047297644710
H   -0.00000978838621     -6.73852780445195      0.00458867820736
H   -5.83530143450167      3.36927132229595      0.00410314985360
H   2.47330840367253     -6.74068500242887      0.00027980126949
H   -4.60067436136587      5.51237839860371      0.00002010017831
H   -5.83527902699321     -3.36928859177951     -0.00451481925734
H   -2.47329986759855     -6.74067870613986     -0.00016951527498
H   -7.07385728692578      1.22822084484047     -0.00046143985387
H   -4.60067330624313     -5.51236229778631      0.00021776644566
H   -7.07385645456741     -1.22822025997701     -0.00017736581114

    units angstrom      # Angstroms are the default
    no_reorient         # Geometry fixed, default
    symmetry c1         # C1 symmetry, default
}

set {
    scf_type DF         # Density fitting, faster than exact integrals
    freeze_core True    # Freeze core electrons
    basis jun-cc-pVDZ   # Jun-cc-pVDZ basis set, recommended for sSAPT0 in https://doi.org/10.1063/1.4867135
}

energy('ssapt0')        # Compute sSAPT0 energy, includes also SAPT0
--------------------------------------------------------------------------

  //              Dimer HF             //
    Molecular point group: c1
  Charge       = -1
  Multiplicity = 1
  Basis Set: JUN-CC-PVDZ
    Blend: JUN-CC-PVDZ
  Basis Set: (JUN-CC-PVDZ AUX)
    Blend: JUN-CC-PVDZ-JKFIT
  @DF-RHF Final Energy: -2478.66205252191776
    Total Energy =                      -2478.6620525219168485
 Dipole X            :         -0.0005410            0.0000481           -0.0004929
 Dipole Y            :          0.0009893           -0.0001453            0.0008440
 Dipole Z            :         20.8306394          -26.9733120           -6.1426726
 Magnitude           :                                                    6.1426727
  //            Monomer A HF           //
    Molecular point group: c1
  Multiplicity = 1
  Basis Set: JUN-CC-PVDZ
    Blend: JUN-CC-PVDZ
  Basis Set: (JUN-CC-PVDZ AUX)
    Blend: JUN-CC-PVDZ-JKFIT
  @DF-RHF Final Energy:  -422.77238508097287
    Total Energy =                       -422.7723850809728674
  //            Monomer B HF           //
    Molecular point group: c1

    Geometry (in Angstrom), charge = 0, multiplicity = 1:

       Center              X                  Y                   Z               Mass
    ------------   -----------------  -----------------  -----------------  -----------------
      Gh(B)          -0.000198161052     0.000273808717     3.891749672539    11.009305360000
      Gh(F)          -0.000000401852    -0.000000464183     5.304534672539    18.998403162730
      Gh(F)           1.147859598148     0.675780735817     3.420608672539    18.998403162730
      Gh(F)           0.011917658148    -1.332011464183     3.420810672539    18.998403162730
      Gh(F)          -1.159666401852     0.656073035817     3.420889672539    18.998403162730
         C            1.225311973413     0.707538196736    -0.502146700177    12.000000000000
         C            1.225323934041    -0.707538986754    -0.514477509747    12.000000000000
         C           -0.000006075942     1.414965821907    -0.515011133268    12.000000000000
         C            2.456448831939     1.418327794995    -0.499259842777    12.000000000000
         C            0.000010905269    -1.414976590818    -0.504811575944    12.000000000000
         C           -1.225300870919     0.707545281801    -0.499895179855    12.000000000000
         C            2.456437833310    -1.418323396064    -0.516722666604    12.000000000000
         C           -0.000001254988     2.836800939098    -0.517414683402    12.000000000000
         C            3.681826775460     0.709317863818    -0.516373876806    12.000000000000
         C            2.455120126855     2.834223569306    -0.516476433767    12.000000000000
         C            3.681821183209    -0.709333931612    -0.500301392788    12.000000000000
         C           -1.225313520698    -0.707527607727    -0.513404748320    12.000000000000
         C            1.226699659192     3.543469391811    -0.500117360857    12.000000000000
         C            0.000004862847    -2.836782231419    -0.499963408322    12.000000000000
         C           -2.456435954859     1.418316826102    -0.499859784009    12.000000000000
         C            2.455123495769    -2.834230120772    -0.500453301156    12.000000000000
         C           -1.226714286599     3.543468971567    -0.500014027638    12.000000000000
         C            4.914517373191     1.427172780306    -0.509893193777    12.000000000000
         C            3.693150269466     3.542795200362    -0.509843394141    12.000000000000
         C           -2.456437522078    -1.418313373022    -0.516747704729    12.000000000000
         C            1.226704919933    -3.543474334090    -0.516087491607    12.000000000000
         C           -2.455125320518     2.834216570451    -0.516470057421    12.000000000000
         C            4.914524458772    -1.427187002127    -0.506920451042    12.000000000000
         C            1.221424691688     4.970133973077    -0.506782016783    12.000000000000
         C            4.893008307311     2.825187907843    -0.508676525418    12.000000000000
         C           -1.226696930499    -3.543471089260    -0.515820287197    12.000000000000
         C           -3.681818898536     0.709324874549    -0.516361196326    12.000000000000
         C            3.693147179140    -3.542801433574    -0.506802560481    12.000000000000
         C           -1.221432174004     4.970128205680    -0.506598521410    12.000000000000
         C            6.134771050916     0.680547854922    -0.509123419227    12.000000000000
         C            3.656788958600     4.972953151384    -0.508934756358    12.000000000000
         C           -2.455126829744    -2.834215185244    -0.500697658954    12.000000000000
         C           -3.681819101071    -0.709325795652    -0.500183771209    12.000000000000
         C            4.893012695903    -2.825200197815    -0.508065373523    12.000000000000
         C           -0.000000995123     5.650447273849    -0.507829830117    12.000000000000
         C            6.134775190322    -0.680554946258    -0.507858098711    12.000000000000
         C            2.478131560845     5.653576659148    -0.507645976708    12.000000000000
         C            1.221422482727    -4.970127147116    -0.509581513805    12.000000000000
         C           -3.693162305975     3.542796862009    -0.509677886681    12.000000000000
         C           -1.221428442955    -4.970118395779    -0.509694275638    12.000000000000
         C           -4.914521729952     1.427175354812    -0.509816248769    12.000000000000
         C            3.656787097669    -4.972955318422    -0.507484255824    12.000000000000
         C           -2.478138452116     5.653574330345    -0.507361451700    12.000000000000
         C           -3.693141660574    -3.542790311162    -0.506918686637    12.000000000000
         C           -4.914512405063    -1.427181092211    -0.506885753869    12.000000000000
         C           -0.000005930936    -5.650438379197    -0.508225334238    12.000000000000
         C           -4.893020406111     2.825188506736    -0.508686607278    12.000000000000
         C            2.478126071288    -5.653573636072    -0.508574856616    12.000000000000
         C           -3.656798632268     4.972956089858    -0.508758075983    12.000000000000
         C           -4.892999400866    -2.825191859243    -0.508219409220    12.000000000000
         C           -2.478128420093    -5.653566262190    -0.508850044264    12.000000000000
         C           -6.134770425341     0.680548674073    -0.509148970929    12.000000000000
         C           -3.656788755199    -4.972944115154    -0.507698543641    12.000000000000
         C           -6.134764964923    -0.680554007665    -0.507878574506    12.000000000000
         H            5.835288573806     3.369275802771    -0.504317199755     1.007825032230
         H            7.073859250737     1.228217156716    -0.508661775834     1.007825032230
         H            4.600663342164     5.512380710270    -0.508429555606     1.007825032230
         H            5.835283465295    -3.369306148912    -0.512519840837     1.007825032230
         H           -0.000012073316     6.738530581953    -0.512179075125     1.007825032230
         H            7.073861249820    -1.228227034927    -0.508366836806     1.007825032230
         H            2.473313809789     6.740684199211    -0.508112697639     1.007825032230
         H            4.600668569371    -5.512376221359    -0.507894252992     1.007825032230
         H           -2.473318602548     6.740681627423    -0.507811351014     1.007825032230
         H           -0.000010190238    -6.738528268635    -0.503695649253     1.007825032230
         H           -5.835301836354     3.369270858113    -0.504181177607     1.007825032230
         H            2.473308001821    -6.740685466612    -0.508004526191     1.007825032230
         H           -4.600674763218     5.512377934420    -0.508264227282     1.007825032230
         H           -5.835279428845    -3.369289055963    -0.512799146718     1.007825032230
         H           -2.473300269450    -6.740679170323    -0.508453842736     1.007825032230
         H           -7.073857688778     1.228220380657    -0.508745767315     1.007825032230
         H           -4.600673708095    -5.512362761970    -0.508066561015     1.007825032230
         H           -7.073856856419    -1.228220724160    -0.508461693272     1.007825032230

  Charge       = 0
  Multiplicity = 1
  Basis Set: JUN-CC-PVDZ
    Blend: JUN-CC-PVDZ
  Basis Set: (JUN-CC-PVDZ AUX)
    Blend: JUN-CC-PVDZ-JKFIT

    Orbital Energies [Eh]
    ---------------------

    Doubly Occupied:

       1A    -11.260643     2A    -11.260195     3A    -11.260194
       4A    -11.259457     5A    -11.259456     6A    -11.259277
       7A    -11.259041     8A    -11.258969     9A    -11.258968
      10A    -11.258641    11A    -11.258637    12A    -11.258541
      13A    -11.258484    14A    -11.258479    15A    -11.258477
      16A    -11.258444    17A    -11.258438    18A    -11.258420
      19A    -11.258417    20A    -11.258412    21A    -11.258406
      22A    -11.258334    23A    -11.258330    24A    -11.258072
      25A    -11.257333    26A    -11.257273    27A    -11.257272
      28A    -11.257140    29A    -11.257140    30A    -11.257058
      31A    -11.256427    32A    -11.256358    33A    -11.256357
      34A    -11.256250    35A    -11.256249    36A    -11.256203
      37A    -11.252295    38A    -11.252295    39A    -11.252293
      40A    -11.252292    41A    -11.252290    42A    -11.252288
      43A    -11.251409    44A    -11.251407    45A    -11.251407
      46A    -11.251394    47A    -11.251393    48A    -11.251390
      49A    -11.250857    50A    -11.250856    51A    -11.250854
      52A    -11.250852    53A    -11.250851    54A    -11.250849
      55A     -1.244052    56A     -1.219820    57A     -1.219819
      58A     -1.189553    59A     -1.189546    60A     -1.180938
      61A     -1.157574    62A     -1.148994    63A     -1.135490
      64A     -1.135484    65A     -1.113208    66A     -1.113204
      67A     -1.082437    68A     -1.082429    69A     -1.078601
      70A     -1.065998    71A     -1.065994    72A     -1.039408
      73A     -1.024278    74A     -1.021760    75A     -1.021718
      76A     -1.017746    77A     -1.012815    78A     -0.987027
      79A     -0.986981    80A     -0.961895    81A     -0.961845
      82A     -0.894303    83A     -0.894276    84A     -0.887926
      85A     -0.886180    86A     -0.886122    87A     -0.881400
      88A     -0.881353    89A     -0.861911    90A     -0.837432
      91A     -0.818220    92A     -0.816613    93A     -0.812139
      94A     -0.812129    95A     -0.794703    96A     -0.794693
      97A     -0.746625    98A     -0.744861    99A     -0.733412
     100A     -0.733404   101A     -0.732195   102A     -0.732172
     103A     -0.716497   104A     -0.698985   105A     -0.698974
     106A     -0.693592   107A     -0.693577   108A     -0.661244
     109A     -0.653100   110A     -0.651150   111A     -0.650268
     112A     -0.650262   113A     -0.639375   114A     -0.639372
     115A     -0.629717   116A     -0.627525   117A     -0.627509
     118A     -0.606492   119A     -0.605828   120A     -0.601665
     121A     -0.599742   122A     -0.599711   123A     -0.593646
     124A     -0.591207   125A     -0.591197   126A     -0.585298
     127A     -0.576393   128A     -0.576387   129A     -0.567341
     130A     -0.567326   131A     -0.565957   132A     -0.565937
     133A     -0.558719   134A     -0.554855   135A     -0.554849
     136A     -0.538608   137A     -0.538606   138A     -0.538217
     139A     -0.538211   140A     -0.529729   141A     -0.528182
     142A     -0.522881   143A     -0.522874   144A     -0.500518
     145A     -0.495618   146A     -0.493246   147A     -0.487849
     148A     -0.485077   149A     -0.481763   150A     -0.481755
     151A     -0.470368   152A     -0.470350   153A     -0.451012
     154A     -0.450934   155A     -0.439084   156A     -0.439075
     157A     -0.404768   158A     -0.404745   159A     -0.403395
     160A     -0.375433   161A     -0.375431   162A     -0.349138
     163A     -0.337629   164A     -0.336581   165A     -0.336524
     166A     -0.311097   167A     -0.298124   168A     -0.284363
     169A     -0.284309   170A     -0.224931   171A     -0.224865

  @DF-RHF Final Energy: -2055.89350365146856

   => Energetics <=

    Nuclear Repulsion Energy =           6452.5568002797772351
    One-Electron Energy =              -15636.4791124303683318
    Two-Electron Energy =                7128.0288084991225332
    Total Energy =                      -2055.8935036514685635
 Dipole X            :          0.0000379            0.0000419            0.0000798
 Dipole Y            :          0.0000262           -0.0000426           -0.0000164
 Dipole Z            :        328.4937455         -328.4986581           -0.0049125
 Magnitude           :                                                    0.0049132

    SAPT Results
  --------------------------------------------------------------------------------------------------------
    Electrostatics                 12.29237469 [mEh]       7.71358158 [kcal/mol]      32.27362531 [kJ/mol]
      Elst10,r                     12.29237469 [mEh]       7.71358158 [kcal/mol]      32.27362531 [kJ/mol]

    Exchange                        0.52617708 [mEh]       0.33018110 [kcal/mol]       1.38147773 [kJ/mol]
      Exch10                        0.52617708 [mEh]       0.33018110 [kcal/mol]       1.38147773 [kJ/mol]
      Exch10(S^2)                   0.52620746 [mEh]       0.33020016 [kcal/mol]       1.38155748 [kJ/mol]

    Induction                      -8.98234125 [mEh]      -5.63650423 [kcal/mol]     -23.58313370 [kJ/mol]
      Ind20,r                      -9.13930785 [mEh]      -5.73500226 [kcal/mol]     -23.99524945 [kJ/mol]
      Exch-Ind20,r                  0.10694769 [mEh]       0.06711069 [kcal/mol]       0.28079113 [kJ/mol]
      delta HF,r (2)                0.05001891 [mEh]       0.03138734 [kcal/mol]       0.13132462 [kJ/mol]

    Dispersion                     -3.87291597 [mEh]      -2.43029146 [kcal/mol]     -10.16833947 [kJ/mol]
      Disp20                       -3.99230216 [mEh]      -2.50520742 [kcal/mol]     -10.48178787 [kJ/mol]
      Exch-Disp20                   0.11938619 [mEh]       0.07491596 [kcal/mol]       0.31344839 [kJ/mol]
      Disp20 (SS)                  -1.99615108 [mEh]      -1.25260371 [kcal/mol]      -5.24089393 [kJ/mol]
      Disp20 (OS)                  -1.99615108 [mEh]      -1.25260371 [kcal/mol]      -5.24089393 [kJ/mol]
      Exch-Disp20 (SS)              0.07869289 [mEh]       0.04938053 [kcal/mol]       0.20660814 [kJ/mol]
      Exch-Disp20 (OS)              0.04069330 [mEh]       0.02553543 [kcal/mol]       0.10684025 [kJ/mol]

  Total HF                          3.83621052 [mEh]       2.40725845 [kcal/mol]      10.07196934 [kJ/mol]
  Total SAPT0                      -0.03670544 [mEh]      -0.02303301 [kcal/mol]      -0.09637013 [kJ/mol]

  Special recipe for scaled SAPT0 (see Manual):
    Electrostatics sSAPT0          12.29237469 [mEh]       7.71358158 [kcal/mol]      32.27362531 [kJ/mol]
    Exchange sSAPT0                 0.52617708 [mEh]       0.33018110 [kcal/mol]       1.38147773 [kJ/mol]
    Induction sSAPT0               -8.98235977 [mEh]      -5.63651585 [kcal/mol]     -23.58318233 [kJ/mol]
    Dispersion sSAPT0              -3.87293664 [mEh]      -2.43030443 [kcal/mol]     -10.16839375 [kJ/mol]
  Total sSAPT0                     -0.03674464 [mEh]      -0.02305761 [kcal/mol]      -0.09647303 [kJ/mol]
  --------------------------------------------------------------------------------------------------------

*** Psi4 exiting successfully. Buy a developer a beer!
