                               Psi4 1.9 release

  ==> Input File <==

--------------------------------------------------------------------------
memory 32 GB # how much memory is available ! Depends on the nodes/cores !

molecule dimer {
# monomer A
-1 1    # Charge and multiplicity
B -1.977592e-04  2.742729e-04 -5.399966
F  1.123153e-16  1.430594e-17 -3.987181
F  1.147860e+00  6.757812e-01 -5.871107
F  1.191806e-02 -1.332011e+00 -5.870905
F -1.159666e+00  6.560735e-01 -5.870826
--
# monomer B
0 1     # Charge and multiplicity
C   1.22531237526482      0.70753866091955      0.00613762728373
C   1.22532433589282     -0.70753852257020     -0.00619318228664
C   -0.00000567409046      1.41496628609039     -0.00672680580738
C   2.45644923379077      1.41832825917820      0.00902448468363
C   0.00001130712078     -1.41497612663474      0.00347275151708
C   -1.22530046906674      0.70754574598412      0.00838914760619
C   2.45643823516184     -1.41832293188077     -0.00843833914343
C   -0.00000085313587      2.83680140328112     -0.00913035594137
C   3.68182717731192      0.70931832800114     -0.00808954934571
C   2.45512052870677      2.83422403348893     -0.00819210630633
C   3.68182158506039     -0.70933346742900      0.00798293467272
C   -1.22531311884624     -0.70752714354401     -0.00512042085974
C   1.22670006104402      3.54346985599427      0.00816696660346
C   0.00000526469929     -2.83678176723568      0.00832091913869
C   -2.45643555300670      1.41831729028492      0.00842454345199
C   2.45512389762097     -2.83422965658853      0.00783102630520
C   -1.22671388474763      3.54346943575023      0.00827029982280
C   4.91451777504333      1.42717324448953     -0.00160886631602
C   3.69315067131765      3.54279566454522     -0.00155906667985
C   -2.45643712022637     -1.41831290883911     -0.00846337726810
C   1.22670532178455     -3.54347386990643     -0.00780316414624
C   -2.45512491866593      2.83421703463423     -0.00818572995999
C   4.91452486062398     -1.42718653794377      0.00136387641845
C   1.22142509354026      4.97013443726031      0.00150231067809
C   4.89300870916237      2.82518837202648     -0.00039219795739
C   -1.22669652864725     -3.54347062507680     -0.00753595973677
C   -3.68181849668397      0.70932533873199     -0.00807686886569
C   3.69314758099218     -3.54280096939050      0.00148176697923
C   -1.22143177215231      4.97012866986289      0.00168580605083
C   6.13477145276790      0.68054831910577     -0.00083909176631
C   3.65678936045204      4.97295361556775     -0.00065042889723
C   -2.45512642789169     -2.83421472106065      0.00758666850712
C   -3.68181869921921     -0.70932533146830      0.00810055625144
C   4.89301309775526     -2.82519973363176      0.00021895393805
C   -0.00000059327114      5.65044773803267      0.00045449734393
C   6.13477559217374     -0.68055448207492      0.00042622874941
C   2.47813196269732      5.65357712333155      0.00063835075260
C   1.22142288457925     -4.97012668293268     -0.00129718634452
C   -3.69316190412301      3.54279732619245     -0.00139355922051
C   -1.22142804110313     -4.97011793159564     -0.00140994817719
C   -4.91452132810043      1.42717581899491     -0.00153192130862
C   3.65678749952045     -4.97295485423912      0.00080007163680
C   -2.47813805026426      5.65357479452875      0.00092287576113
C   -3.69314125872231     -3.54278984697859      0.00136564082345
C   -4.91451200321153     -1.42718062802730      0.00139857359209
C   -0.00000552908399     -5.65043791501335      0.00005899322272
C   -4.89302000425900      2.82518897091939     -0.00040227981744
C   2.47812647313991     -5.65357317188818     -0.00029052915548
C   -3.65679823041642      4.97295655404175     -0.00047374852278
C   -4.89299899901461     -2.82519139505969      0.00006491824035
C   -2.47812801824129     -5.65356579800621     -0.00056571680280
C   -6.13477002348955      0.68054913825639     -0.00086464346868
C   -3.65678835334731     -4.97294365097028      0.00058578382008
C   -6.13476456307132     -0.68055354348201      0.00040575295444
H   5.83528897565761      3.36927626695423      0.00396712770529
H   7.07385965258860      1.22821762089947     -0.00037744837300
H   4.60066374401555      5.51238117445323     -0.00014522814529
H   5.83528386714679     -3.36930568472863     -0.00423551337640
H   -0.00001167146422      6.73853104613662     -0.00389474766392
H   7.07386165167227     -1.22822657074368     -0.00008250934481
H   2.47331421164041      6.74068466339473      0.00017162982210
H   4.60066897122302     -5.51237575717576      0.00039007446835
H   -2.47331820069565      6.74068209160650      0.00047297644710
H   -0.00000978838621     -6.73852780445195      0.00458867820736
H   -5.83530143450167      3.36927132229595      0.00410314985360
H   2.47330840367253     -6.74068500242887      0.00027980126949
H   -4.60067436136587      5.51237839860371      0.00002010017831
H   -5.83527902699321     -3.36928859177951     -0.00451481925734
H   -2.47329986759855     -6.74067870613986     -0.00016951527498
H   -7.07385728692578      1.22822084484047     -0.00046143985387
H   -4.60067330624313     -5.51236229778631      0.00021776644566
H   -7.07385645456741     -1.22822025997701     -0.00017736581114

    units angstrom      # Angstroms are the default
    no_reorient         # Geometry fixed, default
    symmetry c1         # C1 symmetry, default
}

set {
    scf_type DF         # Density fitting, faster than exact integrals
    freeze_core True    # Freeze core electrons
    basis jun-cc-pVDZ   # Jun-cc-pVDZ basis set, recommended for sSAPT0 in https://doi.org/10.1063/1.4867135
}

energy('ssapt0')        # Compute sSAPT0 energy, includes also SAPT0
--------------------------------------------------------------------------

  //              Dimer HF             //
    Molecular point group: c1
  Charge       = -1
  Multiplicity = 1
  Basis Set: JUN-CC-PVDZ
    Blend: JUN-CC-PVDZ
  Basis Set: (JUN-CC-PVDZ AUX)
    Blend: JUN-CC-PVDZ-JKFIT
  @DF-RHF Final Energy: -2478.65968650757304
    Total Energy =                      -2478.6596865075734968
 Dipole X            :         -0.0004747            0.0000481           -0.0004267
 Dipole Y            :          0.0009658           -0.0001453            0.0008205
 Dipole Z            :        -25.0901859           33.1039566            8.0137707
 Magnitude           :                                                    8.0137707
  //            Monomer A HF           //
    Molecular point group: c1
  Multiplicity = 1
  Basis Set: JUN-CC-PVDZ
    Blend: JUN-CC-PVDZ
  Basis Set: (JUN-CC-PVDZ AUX)
    Blend: JUN-CC-PVDZ-JKFIT
  @DF-RHF Final Energy:  -422.77188970238814
    Total Energy =                       -422.7718897023881368
  //            Monomer B HF           //
    Molecular point group: c1

    Geometry (in Angstrom), charge = 0, multiplicity = 1:

       Center              X                  Y                   Z               Mass
    ------------   -----------------  -----------------  -----------------  -----------------
      Gh(B)          -0.000198161052     0.000273808717    -4.776157582271    11.009305360000
      Gh(F)          -0.000000401852    -0.000000464183    -3.363372582271    18.998403162730
      Gh(F)           1.147859598148     0.675780735817    -5.247298582271    18.998403162730
      Gh(F)           0.011917658148    -1.332011464183    -5.247096582271    18.998403162730
      Gh(F)          -1.159666401852     0.656073035817    -5.247017582271    18.998403162730
         C            1.225311973413     0.707538196736     0.629946045013    12.000000000000
         C            1.225323934041    -0.707538986754     0.617615235443    12.000000000000
         C           -0.000006075942     1.414965821907     0.617081611922    12.000000000000
         C            2.456448831939     1.418327794995     0.632832902413    12.000000000000
         C            0.000010905269    -1.414976590818     0.627281169246    12.000000000000
         C           -1.225300870919     0.707545281801     0.632197565336    12.000000000000
         C            2.456437833310    -1.418323396064     0.615370078586    12.000000000000
         C           -0.000001254988     2.836800939098     0.614678061788    12.000000000000
         C            3.681826775460     0.709317863818     0.615718868384    12.000000000000
         C            2.455120126855     2.834223569306     0.615616311423    12.000000000000
         C            3.681821183209    -0.709333931612     0.631791352402    12.000000000000
         C           -1.225313520698    -0.707527607727     0.618687996870    12.000000000000
         C            1.226699659192     3.543469391811     0.631975384333    12.000000000000
         C            0.000004862847    -2.836782231419     0.632129336868    12.000000000000
         C           -2.456435954859     1.418316826102     0.632232961181    12.000000000000
         C            2.455123495769    -2.834230120772     0.631639444035    12.000000000000
         C           -1.226714286599     3.543468971567     0.632078717552    12.000000000000
         C            4.914517373191     1.427172780306     0.622199551413    12.000000000000
         C            3.693150269466     3.542795200362     0.622249351049    12.000000000000
         C           -2.456437522078    -1.418313373022     0.615345040461    12.000000000000
         C            1.226704919933    -3.543474334090     0.616005253583    12.000000000000
         C           -2.455125320518     2.834216570451     0.615622687769    12.000000000000
         C            4.914524458772    -1.427187002127     0.625172294148    12.000000000000
         C            1.221424691688     4.970133973077     0.625310728407    12.000000000000
         C            4.893008307311     2.825187907843     0.623416219772    12.000000000000
         C           -1.226696930499    -3.543471089260     0.616272457993    12.000000000000
         C           -3.681818898536     0.709324874549     0.615731548864    12.000000000000
         C            3.693147179140    -3.542801433574     0.625290184709    12.000000000000
         C           -1.221432174004     4.970128205680     0.625494223780    12.000000000000
         C            6.134771050916     0.680547854922     0.622969325963    12.000000000000
         C            3.656788958600     4.972953151384     0.623157988832    12.000000000000
         C           -2.455126829744    -2.834215185244     0.631395086236    12.000000000000
         C           -3.681819101071    -0.709325795652     0.631908973981    12.000000000000
         C            4.893012695903    -2.825200197815     0.624027371667    12.000000000000
         C           -0.000000995123     5.650447273849     0.624262915073    12.000000000000
         C            6.134775190322    -0.680554946258     0.624234646479    12.000000000000
         C            2.478131560845     5.653576659148     0.624446768482    12.000000000000
         C            1.221422482727    -4.970127147116     0.622511231385    12.000000000000
         C           -3.693162305975     3.542796862009     0.622414858509    12.000000000000
         C           -1.221428442955    -4.970118395779     0.622398469552    12.000000000000
         C           -4.914521729952     1.427175354812     0.622276496421    12.000000000000
         C            3.656787097669    -4.972955318422     0.624608489366    12.000000000000
         C           -2.478138452116     5.653574330345     0.624731293490    12.000000000000
         C           -3.693141660574    -3.542790311162     0.625174058553    12.000000000000
         C           -4.914512405063    -1.427181092211     0.625206991321    12.000000000000
         C           -0.000005930936    -5.650438379197     0.623867410952    12.000000000000
         C           -4.893020406111     2.825188506736     0.623406137912    12.000000000000
         C            2.478126071288    -5.653573636072     0.623517888574    12.000000000000
         C           -3.656798632268     4.972956089858     0.623334669207    12.000000000000
         C           -4.892999400866    -2.825191859243     0.623873335970    12.000000000000
         C           -2.478128420093    -5.653566262190     0.623242700927    12.000000000000
         C           -6.134770425341     0.680548674073     0.622943774261    12.000000000000
         C           -3.656788755199    -4.972944115154     0.624394201549    12.000000000000
         C           -6.134764964923    -0.680554007665     0.624214170684    12.000000000000
         H            5.835288573806     3.369275802771     0.627775545435     1.007825032230
         H            7.073859250737     1.228217156716     0.623430969356     1.007825032230
         H            4.600663342164     5.512380710270     0.623663189584     1.007825032230
         H            5.835283465295    -3.369306148912     0.619572904353     1.007825032230
         H           -0.000012073316     6.738530581953     0.619913670065     1.007825032230
         H            7.073861249820    -1.228227034927     0.623725908385     1.007825032230
         H            2.473313809789     6.740684199211     0.623980047551     1.007825032230
         H            4.600668569371    -5.512376221359     0.624198492198     1.007825032230
         H           -2.473318602548     6.740681627423     0.624281394176     1.007825032230
         H           -0.000010190238    -6.738528268635     0.628397095937     1.007825032230
         H           -5.835301836354     3.369270858113     0.627911567583     1.007825032230
         H            2.473308001821    -6.740685466612     0.624088218999     1.007825032230
         H           -4.600674763218     5.512377934420     0.623828517908     1.007825032230
         H           -5.835279428845    -3.369289055963     0.619293598472     1.007825032230
         H           -2.473300269450    -6.740679170323     0.623638902454     1.007825032230
         H           -7.073857688778     1.228220380657     0.623346977875     1.007825032230
         H           -4.600673708095    -5.512362761970     0.624026184175     1.007825032230
         H           -7.073856856419    -1.228220724160     0.623631051918     1.007825032230

  Charge       = 0
  Multiplicity = 1
  Basis Set: JUN-CC-PVDZ
    Blend: JUN-CC-PVDZ
  Basis Set: (JUN-CC-PVDZ AUX)
    Blend: JUN-CC-PVDZ-JKFIT

    Orbital Energies [Eh]
    ---------------------

    Doubly Occupied:

       1A    -11.260690     2A    -11.260239     3A    -11.260237
       4A    -11.259485     5A    -11.259484     6A    -11.259295
       7A    -11.259072     8A    -11.259000     9A    -11.258999
      10A    -11.258695    11A    -11.258691    12A    -11.258603
      13A    -11.258545    14A    -11.258542    15A    -11.258539
      16A    -11.258506    17A    -11.258500    18A    -11.258484
      19A    -11.258469    20A    -11.258465    21A    -11.258459
      22A    -11.258380    23A    -11.258376    24A    -11.258113
      25A    -11.257388    26A    -11.257325    27A    -11.257324
      28A    -11.257188    29A    -11.257188    30A    -11.257103
      31A    -11.256480    32A    -11.256409    33A    -11.256408
      34A    -11.256299    35A    -11.256298    36A    -11.256251
      37A    -11.252353    38A    -11.252353    39A    -11.252351
      40A    -11.252350    41A    -11.252347    42A    -11.252346
      43A    -11.251472    44A    -11.251469    45A    -11.251468
      46A    -11.251462    47A    -11.251462    48A    -11.251457
      49A    -11.250915    50A    -11.250914    51A    -11.250912
      52A    -11.250910    53A    -11.250908    54A    -11.250907
      55A     -1.244160    56A     -1.219919    57A     -1.219918
      58A     -1.189645    59A     -1.189638    60A     -1.181031
      61A     -1.157658    62A     -1.149082    63A     -1.135582
      64A     -1.135575    65A     -1.113290    66A     -1.113286
      67A     -1.082530    68A     -1.082523    69A     -1.078695
      70A     -1.066076    71A     -1.066072    72A     -1.039502
      73A     -1.024382    74A     -1.021857    75A     -1.021814
      76A     -1.017827    77A     -1.012885    78A     -0.987125
      79A     -0.987079    80A     -0.961973    81A     -0.961923
      82A     -0.894389    83A     -0.894362    84A     -0.888032
      85A     -0.886281    86A     -0.886223    87A     -0.881504
      88A     -0.881456    89A     -0.861996    90A     -0.837498
      91A     -0.818316    92A     -0.816714    93A     -0.812235
      94A     -0.812225    95A     -0.794783    96A     -0.794772
      97A     -0.746733    98A     -0.744954    99A     -0.733509
     100A     -0.733500   101A     -0.732280   102A     -0.732256
     103A     -0.716591   104A     -0.699072   105A     -0.699061
     106A     -0.693685   107A     -0.693670   108A     -0.661328
     109A     -0.653190   110A     -0.651257   111A     -0.650344
     112A     -0.650338   113A     -0.639460   114A     -0.639458
     115A     -0.629814   116A     -0.627622   117A     -0.627606
     118A     -0.606512   119A     -0.605888   120A     -0.601764
     121A     -0.599838   122A     -0.599807   123A     -0.593743
     124A     -0.591318   125A     -0.591307   126A     -0.585365
     127A     -0.576397   128A     -0.576392   129A     -0.567415
     130A     -0.567400   131A     -0.566045   132A     -0.566026
     133A     -0.558817   134A     -0.554937   135A     -0.554931
     136A     -0.538688   137A     -0.538686   138A     -0.538236
     139A     -0.538230   140A     -0.529817   141A     -0.528234
     142A     -0.522968   143A     -0.522962   144A     -0.500600
     145A     -0.495669   146A     -0.493333   147A     -0.487898
     148A     -0.485179   149A     -0.481857   150A     -0.481849
     151A     -0.470402   152A     -0.470384   153A     -0.451121
     154A     -0.451043   155A     -0.439141   156A     -0.439132
     157A     -0.404804   158A     -0.404781   159A     -0.403454
     160A     -0.375492   161A     -0.375490   162A     -0.349195
     163A     -0.337641   164A     -0.336632   165A     -0.336574
     166A     -0.311169   167A     -0.298170   168A     -0.284410
     169A     -0.284357   170A     -0.224993   171A     -0.224928

  @DF-RHF Final Energy: -2055.89262903825875

   => Energetics <=

    Nuclear Repulsion Energy =           6452.5568002797772351
    One-Electron Energy =              -15636.4530778466960328
    Two-Electron Energy =                7128.0036485286600509
    Total Energy =                      -2055.8926290382587467
 Dipole X            :          0.0000332            0.0000419            0.0000751
 Dipole Y            :          0.0000439           -0.0000426            0.0000013
 Dipole Z            :       -403.1551915          403.1574130            0.0022215
 Magnitude           :                                                    0.0022228

    SAPT Results
  --------------------------------------------------------------------------------------------------------
    Electrostatics                 10.26179724 [mEh]       6.43937499 [kcal/mol]      26.94234495 [kJ/mol]
      Elst10,r                     10.26179724 [mEh]       6.43937499 [kcal/mol]      26.94234495 [kJ/mol]

    Exchange                        0.10170268 [mEh]       0.06381939 [kcal/mol]       0.26702035 [kJ/mol]
      Exch10                        0.10170268 [mEh]       0.06381939 [kcal/mol]       0.26702035 [kJ/mol]
      Exch10(S^2)                   0.10170784 [mEh]       0.06382264 [kcal/mol]       0.26703391 [kJ/mol]

    Induction                      -5.53126685 [mEh]      -3.47092235 [kcal/mol]     -14.52233911 [kJ/mol]
      Ind20,r                      -5.60219503 [mEh]      -3.51543045 [kcal/mol]     -14.70856101 [kJ/mol]
      Exch-Ind20,r                  0.01618003 [mEh]       0.01015312 [kcal/mol]       0.04248067 [kJ/mol]
      delta HF,r (2)                0.05474815 [mEh]       0.03435498 [kcal/mol]       0.14374124 [kJ/mol]

    Dispersion                     -1.74754451 [mEh]      -1.09660073 [kcal/mol]      -4.58817747 [kJ/mol]
      Disp20                       -1.77426005 [mEh]      -1.11336499 [kcal/mol]      -4.65831912 [kJ/mol]
      Exch-Disp20                   0.02671554 [mEh]       0.01676426 [kcal/mol]       0.07014165 [kJ/mol]
      Disp20 (SS)                  -0.88713002 [mEh]      -0.55668249 [kcal/mol]      -2.32915956 [kJ/mol]
      Disp20 (OS)                  -0.88713002 [mEh]      -0.55668249 [kcal/mol]      -2.32915956 [kJ/mol]
      Exch-Disp20 (SS)              0.01809201 [mEh]       0.01135291 [kcal/mol]       0.04750057 [kJ/mol]
      Exch-Disp20 (OS)              0.00862353 [mEh]       0.00541135 [kcal/mol]       0.02264108 [kJ/mol]

  Total HF                          4.83223307 [mEh]       3.03227203 [kcal/mol]      12.68702619 [kJ/mol]
  Total SAPT0                       3.08468857 [mEh]       1.93567130 [kcal/mol]       8.09884872 [kJ/mol]

  Special recipe for scaled SAPT0 (see Manual):
    Electrostatics sSAPT0          10.26179724 [mEh]       6.43937499 [kcal/mol]      26.94234495 [kJ/mol]
    Exchange sSAPT0                 0.10170268 [mEh]       0.06381939 [kcal/mol]       0.26702035 [kJ/mol]
    Induction sSAPT0               -5.53126931 [mEh]      -3.47092390 [kcal/mol]     -14.52234558 [kJ/mol]
    Dispersion sSAPT0              -1.74754858 [mEh]      -1.09660329 [kcal/mol]      -4.58818816 [kJ/mol]
  Total sSAPT0                      3.08468203 [mEh]       1.93566720 [kcal/mol]       8.09883156 [kJ/mol]
  --------------------------------------------------------------------------------------------------------

*** Psi4 exiting successfully. Buy a developer a beer!
