                               Psi4 1.9 release

  ==> Input File <==

--------------------------------------------------------------------------
memory 80 GB # how much memory is available ! Depends on the nodes/cores !

molecule dimer {
# monomer A
+1 1    # Charge and multiplicity
C  0.680067 -1.215929 2.908042
C -0.680504 -1.215545 2.906014
N -1.085635  0.102779 2.905016
C  0.000108  0.884180 2.901740
C -2.477365  0.570758 2.855610
N  1.085222  0.102779 2.905016
H  1.385146 -2.033368 2.915870
H -1.385302 -2.033214 2.906204
H -0.000009  1.965269 2.899993
C  2.478117  0.567877 2.921908
H  2.490592  1.658130 2.894563
H  2.967028  0.220701 3.835354
H  3.001428  0.176405 2.046425
H -2.857359  0.490799 1.833539
H -3.082679 -0.042306 3.525694
H -2.518128  1.610706 3.182594
--
# monomer B
0 1     # Charge and multiplicity
C   -3.66844126402057      7.80375217008252      0.00190004133558
C   -4.84759871934653      7.13124183134024     -0.00046653359696
C   -4.89495929917518      5.69633040353158     -0.00103944469517
C   -3.65374067877320      4.98073034095895      0.00662099703436
C   -2.40942512149445      7.11398103667468      0.00209438359570
C   -2.42547734410473      5.68112195090346     -0.00491050527438
C   -1.19474401643570      7.78614419430947      0.00356656413763
C   0.03795902893699      7.09942164575698      0.00139585983271
C   0.03033258741920      5.66948955970466     -0.00408752508301
C   -1.20098450790502      4.96927034791531      0.00488220885047
C   1.27795782581485      7.77285944319479      0.00277170839332
C   2.48535808472416      7.08769688523756      0.00049722048857
C   2.48612868491717      5.65477081024076     -0.00644052849921
C   1.25408291964399      4.95607811366431      0.00518741308898
C   3.75171459140595      7.76391215098033      0.00062407186893
C   4.92356605618520      7.07878077698995     -0.00143240883900
C   4.95560727132542      5.64344746336949     -0.00159282164606
C   3.70680153420475      4.94121020833308      0.00349873852374
H   -3.65852113775815      8.89082741913536      0.00358502958574
H   -1.18921332975660      8.87412108735996      0.00753844057883
H   1.28429423888630      8.86083343548850      0.00693053253426
H   3.75354208679975      8.85103527897216      0.00214659618464
H   5.86995870320703      7.61379483465560     -0.00235777588134
H   -5.78823170750226      7.67630221293400     -0.00202638095293
C   -6.09197395869619      4.99326001364347     -0.00291168518608
C   -6.12866148031747      3.58258016879823     -0.00171050815740
C   -3.66457974004527      3.56418217974434     -0.00463560277484
C   -4.89429820469869      2.86108077590057      0.00453338221034
C   -2.43733499489796      2.84761165708481      0.00719617576166
C   -1.20922785759670      3.54788693497833     -0.00648285103018
C   1.24714157216223      3.53468075142962     -0.00729145743546
C   0.01517603956900      2.83311183930540      0.00439272578912
C   2.46764517244071      2.82128997725533      0.00449278391269
C   3.70254947457969      3.52466015442405     -0.00899517692985
C   6.14498038638375      4.92757236613191     -0.00282626685777
C   6.16658835886151      3.51658447594213     -0.00065971342101
C   4.92460995845939      2.80840792535402      0.00587903281610
H   7.08990550964105      5.46688776622306     -0.00658814770723
H   -7.03104175110130      5.54268795285765     -0.00714490013730
C   -7.33969804112295      2.85841153457957     -0.00333767559888
C   -7.36488195805880      1.47032337158330     -0.00157213747140
C   -4.90350460894690      1.44442681216000     -0.00628840166334
C   -6.13225715261081      0.73993935705394      0.00600164231964
C   -3.67687480051673      0.72669714267312      0.00433931473643
C   -2.44565658606518      1.42964113326212     -0.00597039546461
C   -1.22360068130162      0.71532450163492      0.00545886906656
C   0.00763786931376      1.41738314923765      0.00392452278437
C   1.23121980774686      0.70211669058719     -0.01490206287210
C   2.46082110053113      1.40329203612573      0.00460244601878
C   3.68443025419614      0.68719842821222      0.00377365974158
C   4.91870890153864      1.39173456118907     -0.00862816189375
C   7.36980207796101      2.77948220318441     -0.00242013321349
C   7.38016266612146      1.39121750785509     -0.00087345036788
C   6.13979953912259      0.67411862320065      0.00545489144369
H   -8.27919079934664      3.40711804112415     -0.00763522772059
H   8.31511347147953      3.31811809662368     -0.00663070901292
C   -8.59175593758115      0.72483255304480     -0.00123170985383
C   -8.59902460370342     -0.63263980622873      0.00089141472904
C   -6.13981313911873     -0.67413663715361     -0.00609792660607
C   -7.38018411213749     -1.39126618958160      0.00131813493501
C   -4.91868448025621     -1.39175501803000      0.00624257154343
C   -3.68443829568458     -0.68723731573599     -0.00478966852105
C   -2.46081704024768     -1.40334517882457      0.00575341766833
C   -1.23116201232071     -0.70217386488055     -0.00636696112346
C   -0.00756962538737     -1.41741884941102      0.00108956317991
C   1.22364771588843     -0.71527537726392      0.01109518512883
C   2.44567064933149     -1.42964328900682     -0.00065482763106
C   3.67686670284649     -0.72670743155550     -0.00479541202602
C   6.13224884641929     -0.73997883984993     -0.00632338623858
C   4.90351914550401     -1.44445752054090      0.00751768830159
C   8.59901484869081      0.63260386666793     -0.00101133422380
C   8.59174548810050     -0.72485086719319      0.00072504603735
C   7.36486276438985     -1.47033266560598      0.00049486934466
H   -9.52830597181814      1.27684744919284     -0.00270163681798
H   9.54141097460619      1.17457248844457     -0.00206336648518
C   -7.36983790976868     -2.77954514593389      0.00312634335708
C   -4.92459910905015     -2.80843725734101     -0.00460528907921
C   -6.16662249566744     -3.51665219282533      0.00169655107992
C   -3.70251035970491     -3.52468154912026      0.00571878010666
C   -2.46764698511392     -2.82132596280400     -0.00632585824990
C   -0.01513347410770     -2.83314164539971     -0.00604426974092
C   -1.24712184122656     -3.53473217556300      0.00551968366725
C   1.20924506964357     -3.54791467864352      0.00805871345849
C   2.43733602215464     -2.84764173817541     -0.00608104485234
C   4.89430234377080     -2.86112296828604     -0.00526030478103
C   3.66461525504104     -3.56421984553201      0.00761911515957
C   6.12863901474565     -3.58258405771778      0.00096495711699
C   7.33967266469532     -2.85841330737039      0.00248018319869
H   -9.54144911125902     -1.17456346666430      0.00226083090216
H   9.52826186807155     -1.27691907390448      0.00197485379837
H   -8.31516504384864     -3.31814985321231      0.00729857188773
H   8.27915514249207     -3.40714078989363      0.00681973918158
C   -6.14499418870218     -4.92764727278338      0.00302254913999
C   -3.70678334799751     -4.94126171411716     -0.00679841894792
C   -4.95559005800169     -5.64349397349412      0.00116871569699
C   -2.48612132622665     -5.65478557440947      0.00614125209662
C   -1.25405833548005     -4.95612205000132     -0.00503435388927
C   1.20101257386816     -4.96928038819302     -0.00385322963129
C   -0.03033667441341     -5.66952030313900      0.00398997003238
C   3.65375010132847     -4.98074377541453     -0.00309522988330
C   2.42549269587528     -5.68117463552727      0.00628170066869
C   6.09196561781097     -4.99325796338655      0.00325918379042
C   4.89497644461045     -5.69634842095790      0.00202298796027
H   -7.08989238804069     -5.46699984223871      0.00742531082125
H   7.03105520920009     -5.54265853633254      0.00683896355417
C   -4.92354532219813     -7.07882109967734      0.00061394679214
C   -2.48534208823777     -7.08772807792913     -0.00189594564379
C   -3.75168589177895     -7.76394715763627     -0.00170126671874
C   -0.03794895698805     -7.09946487446944     -0.00168022049625
C   -1.27795610040136     -7.77290438466689     -0.00366491325785
C   2.40944432072629     -7.11402201200282     -0.00081701968533
C   1.19474993715296     -7.78618536556242     -0.00296931056689
C   4.84762105249800     -7.13126211057943      0.00168979497423
C   3.66847160587561     -7.80378799294376     -0.00065863938960
H   -5.86994035041618     -7.61383059804164      0.00215798365757
H   5.78824962538815     -7.67633218931421      0.00281691445618
H   -3.75352693944918     -8.85107156923607     -0.00353718114765
H   -1.28430440589466     -8.86087539249706     -0.00809229711623
H   1.18922157469537     -8.87416062058945     -0.00706194725726
H   3.65854661482387     -8.89086063405326     -0.00231318081200

    units angstrom      # Angstroms are the default
    no_reorient         # Geometry fixed, default
    symmetry c1         # C1 symmetry, default
}

set {
    scf_type DF         # Density fitting, faster than exact integrals
    freeze_core True    # Freeze core electrons
    basis jun-cc-pVDZ   # Jun-cc-pVDZ basis set, recommended for sSAPT0 in https://doi.org/10.1063/1.4867135
}

energy('ssapt0')        # Compute sSAPT0 energy, includes also SAPT0
--------------------------------------------------------------------------

  //              Dimer HF             //
    Molecular point group: c1
  Charge       = 1
  Multiplicity = 1
  Basis Set: JUN-CC-PVDZ
    Blend: JUN-CC-PVDZ
  Basis Set: (JUN-CC-PVDZ AUX)
    Blend: JUN-CC-PVDZ-JKFIT
  @DF-RHF Final Energy: -3953.60639598260514
    Total Energy =                      -3953.6063959826060454
 Dipole X            :         -0.0034901            0.0004804           -0.0030097
 Dipole Y            :         -1.6686607            1.8866171            0.2179564
 Dipole Z            :        -14.4371947           17.5557638            3.1185691
 Magnitude           :                                                    3.1261777
  //            Monomer A HF           //
    Molecular point group: c1
  Multiplicity = 1
  Basis Set: JUN-CC-PVDZ
    Blend: JUN-CC-PVDZ
  Basis Set: (JUN-CC-PVDZ AUX)
    Blend: JUN-CC-PVDZ-JKFIT
  @DF-RHF Final Energy:  -303.30009489432899
    Total Energy =                       -303.3000948943289927
  //            Monomer B HF           //
    Molecular point group: c1

    Geometry (in Angstrom), charge = 0, multiplicity = 1:

       Center              X                  Y                   Z               Mass
    ------------   -----------------  -----------------  -----------------  -----------------
      Gh(C)           0.680062820275    -1.215917226251     2.686936289751    12.000000000000
      Gh(C)          -0.680508179725    -1.215533226251     2.684908289751    12.000000000000
      Gh(N)          -1.085639179725     0.102790773749     2.683910289751    14.003074004430
      Gh(C)           0.000103820275     0.884191773749     2.680634289751    12.000000000000
      Gh(C)          -2.477369179725     0.570769773749     2.634504289751    12.000000000000
      Gh(N)           1.085217820275     0.102790773749     2.683910289751    14.003074004430
      Gh(H)           1.385141820275    -2.033356226251     2.694764289751     1.007825032230
      Gh(H)          -1.385306179725    -2.033202226251     2.685098289751     1.007825032230
      Gh(H)          -0.000013179725     1.965280773749     2.678887289751     1.007825032230
      Gh(C)           2.478112820275     0.567888773749     2.700802289751    12.000000000000
      Gh(H)           2.490587820275     1.658141773750     2.673457289751     1.007825032230
      Gh(H)           2.967023820275     0.220712773749     3.614248289751     1.007825032230
      Gh(H)           3.001423820275     0.176416773749     1.825319289751     1.007825032230
      Gh(H)          -2.857363179725     0.490810773749     1.612433289751     1.007825032230
      Gh(H)          -3.082683179725    -0.042294226251     3.304588289751     1.007825032230
      Gh(H)          -2.518132179725     1.610717773749     2.961488289751     1.007825032230
         C           -3.668445443746     7.803763943832    -0.219205668913    12.000000000000
         C           -4.847602899072     7.131253605090    -0.221572243846    12.000000000000
         C           -4.894963478901     5.696342177281    -0.222145154944    12.000000000000
         C           -3.653744858499     4.980742114708    -0.214484713215    12.000000000000
         C           -2.409429301220     7.113992810424    -0.219011326653    12.000000000000
         C           -2.425481523830     5.681133724653    -0.226016215523    12.000000000000
         C           -1.194748196161     7.786155968059    -0.217539146111    12.000000000000
         C            0.037954849212     7.099433419506    -0.219709850416    12.000000000000
         C            0.030328407694     5.669501333454    -0.225193235332    12.000000000000
         C           -1.200988687630     4.969282121665    -0.216223501398    12.000000000000
         C            1.277953646089     7.772871216944    -0.218334001856    12.000000000000
         C            2.485353904999     7.087708658987    -0.220608489760    12.000000000000
         C            2.486124505192     5.654782583990    -0.227546238748    12.000000000000
         C            1.254078739919     4.956089887414    -0.215918297160    12.000000000000
         C            3.751710411681     7.763923924730    -0.220481638380    12.000000000000
         C            4.923561876460     7.078792550739    -0.222538119088    12.000000000000
         C            4.955603091600     5.643459237119    -0.222698531895    12.000000000000
         C            3.706797354479     4.941221982083    -0.217606971725    12.000000000000
         H           -3.658525317484     8.890839192885    -0.217520680663     1.007825032230
         H           -1.189217509482     8.874132861109    -0.213567269670     1.007825032230
         H            1.284290059161     8.860845209238    -0.214175177715     1.007825032230
         H            3.753537907074     8.851047052722    -0.218959114064     1.007825032230
         H            5.869954523482     7.613806608405    -0.223463486130     1.007825032230
         H           -5.788235887228     7.676313986684    -0.223132091202     1.007825032230
         C           -6.091978138422     4.993271787393    -0.224017395435    12.000000000000
         C           -6.128665660043     3.582591942548    -0.222816218406    12.000000000000
         C           -3.664583919771     3.564193953494    -0.225741313024    12.000000000000
         C           -4.894302384424     2.861092549650    -0.216572328039    12.000000000000
         C           -2.437339174623     2.847623430834    -0.213909534487    12.000000000000
         C           -1.209232037322     3.547898708728    -0.227588561279    12.000000000000
         C            1.247137392437     3.534692525179    -0.228397167684    12.000000000000
         C            0.015171859844     2.833123613055    -0.216712984460    12.000000000000
         C            2.467640992715     2.821301751005    -0.216612926336    12.000000000000
         C            3.702545294854     3.524671928174    -0.230100887179    12.000000000000
         C            6.144976206658     4.927584139881    -0.223931977107    12.000000000000
         C            6.166584179136     3.516596249692    -0.221765423670    12.000000000000
         C            4.924605778734     2.808419699104    -0.215226677433    12.000000000000
         H            7.089901329916     5.466899539973    -0.227693857956     1.007825032230
         H           -7.031045930827     5.542699726607    -0.228250610386     1.007825032230
         C           -7.339702220848     2.858423308329    -0.224443385848    12.000000000000
         C           -7.364886137784     1.470335145333    -0.222677847720    12.000000000000
         C           -4.903508788672     1.444438585909    -0.227394111912    12.000000000000
         C           -6.132261332336     0.739951130803    -0.215104067929    12.000000000000
         C           -3.676878980242     0.726708916423    -0.216766395513    12.000000000000
         C           -2.445660765791     1.429652907012    -0.227076105714    12.000000000000
         C           -1.223604861027     0.715336275384    -0.215646841182    12.000000000000
         C            0.007633689588     1.417394922987    -0.217181187465    12.000000000000
         C            1.231215628021     0.702128464337    -0.236007773121    12.000000000000
         C            2.460816920806     1.403303809875    -0.216503264230    12.000000000000
         C            3.684426074471     0.687210201962    -0.217332050507    12.000000000000
         C            4.918704721813     1.391746334939    -0.229733872143    12.000000000000
         C            7.369797898236     2.779493976934    -0.223525843462    12.000000000000
         C            7.380158486396     1.391229281605    -0.221979160617    12.000000000000
         C            6.139795359397     0.674130396950    -0.215650818805    12.000000000000
         H           -8.279194979072     3.407129814874    -0.228740937970     1.007825032230
         H            8.315109291754     3.318129870373    -0.227736419262     1.007825032230
         C           -8.591760117307     0.724844326794    -0.222337420103    12.000000000000
         C           -8.599028783429    -0.632628032479    -0.220214295520    12.000000000000
         C           -6.139817318844    -0.674124863404    -0.227203636855    12.000000000000
         C           -7.380188291863    -1.391254415832    -0.219787575314    12.000000000000
         C           -4.918688659982    -1.391743244281    -0.214863138706    12.000000000000
         C           -3.684442475410    -0.687225541986    -0.225895378770    12.000000000000
         C           -2.460821219973    -1.403333405075    -0.215352292581    12.000000000000
         C           -1.231166192046    -0.702162091131    -0.227472671372    12.000000000000
         C           -0.007573805113    -1.417407075662    -0.220016147069    12.000000000000
         C            1.223643536163    -0.715263603514    -0.210010525120    12.000000000000
         C            2.445666469606    -1.429631515257    -0.221760537880    12.000000000000
         C            3.676862523121    -0.726695657806    -0.225901122275    12.000000000000
         C            6.132244666694    -0.739967066100    -0.227429096488    12.000000000000
         C            4.903514965779    -1.444445746791    -0.213588021947    12.000000000000
         C            8.599010668965     0.632615640417    -0.222117044473    12.000000000000
         C            8.591741308375    -0.724839093444    -0.220380664212    12.000000000000
         C            7.364858584664    -1.470320891856    -0.220610840904    12.000000000000
         H           -9.528310151544     1.276859222942    -0.223807347067     1.007825032230
         H            9.541406794881     1.174584262194    -0.223169076734     1.007825032230
         C           -7.369842089494    -2.779533372184    -0.217979366892    12.000000000000
         C           -4.924603288776    -2.808425483592    -0.225710999328    12.000000000000
         C           -6.166626675393    -3.516640419076    -0.219409159169    12.000000000000
         C           -3.702514539430    -3.524669775371    -0.215386930142    12.000000000000
         C           -2.467651164839    -2.821314189055    -0.227431568499    12.000000000000
         C           -0.015137653833    -2.833129871650    -0.227149979990    12.000000000000
         C           -1.247126020952    -3.534720401814    -0.215586026582    12.000000000000
         C            1.209240889918    -3.547902904894    -0.213046996790    12.000000000000
         C            2.437331842429    -2.847629964426    -0.227186755101    12.000000000000
         C            4.894298164045    -2.861111194537    -0.226366015030    12.000000000000
         C            3.664611075316    -3.564208071783    -0.213486595089    12.000000000000
         C            6.128634835020    -3.582572283968    -0.220140753132    12.000000000000
         C            7.339668484970    -2.858401533621    -0.218625527050    12.000000000000
         H           -9.541453290984    -1.174551692915    -0.218844879347     1.007825032230
         H            9.528257688346    -1.276907300155    -0.219130856451     1.007825032230
         H           -8.315169223574    -3.318138079463    -0.213807138361     1.007825032230
         H            8.279150962767    -3.407129016144    -0.214285971067     1.007825032230
         C           -6.144998368428    -4.927635499034    -0.218083161109    12.000000000000
         C           -3.706787527723    -4.941249940368    -0.227904129197    12.000000000000
         C           -4.955594237727    -5.643482199745    -0.219936994552    12.000000000000
         C           -2.486125505952    -5.654773800660    -0.214964458152    12.000000000000
         C           -1.254062515205    -4.956110276252    -0.226140064138    12.000000000000
         C            1.201008394143    -4.969268614444    -0.224958939880    12.000000000000
         C           -0.030340854139    -5.669508529390    -0.217115740217    12.000000000000
         C            3.653745921603    -4.980732001665    -0.224200940132    12.000000000000
         C            2.425488516150    -5.681162861778    -0.214824009580    12.000000000000
         C            6.091961438086    -4.993246189637    -0.217846526459    12.000000000000
         C            4.894972264885    -5.696336647208    -0.219082722289    12.000000000000
         H           -7.089896567766    -5.466988068489    -0.213680399428     1.007825032230
         H            7.031051029475    -5.542646762583    -0.214266746695     1.007825032230
         C           -4.923549501924    -7.078809325928    -0.220491763457    12.000000000000
         C           -2.485346267963    -7.087716304180    -0.223001655893    12.000000000000
         C           -3.751690071504    -7.763935383887    -0.222806976968    12.000000000000
         C           -0.037953136713    -7.099453100720    -0.222785930745    12.000000000000
         C           -1.277960280127    -7.772892610917    -0.224770623507    12.000000000000
         C            2.409440141001    -7.114010238253    -0.221922729934    12.000000000000
         C            1.194745757428    -7.786173591813    -0.224075020816    12.000000000000
         C            4.847616872773    -7.131250336830    -0.219415915275    12.000000000000
         C            3.668467426150    -7.803776219194    -0.221764349639    12.000000000000
         H           -5.869944530142    -7.613818824292    -0.218947726591     1.007825032230
         H            5.788245445663    -7.676320415565    -0.218288795793     1.007825032230
         H           -3.753531119175    -8.851059795487    -0.224642891397     1.007825032230
         H           -1.284308585620    -8.860863618748    -0.229198007365     1.007825032230
         H            1.189217394970    -8.874148846840    -0.228167657506     1.007825032230
         H            3.658542435098    -8.890848860304    -0.223418891061     1.007825032230

  Charge       = 0
  Multiplicity = 1
  Basis Set: JUN-CC-PVDZ
    Blend: JUN-CC-PVDZ
  Basis Set: (JUN-CC-PVDZ AUX)
    Blend: JUN-CC-PVDZ-JKFIT

    Orbital Energies [Eh]
    ---------------------

    Doubly Occupied:

       1A    -11.264107     2A    -11.263762     3A    -11.263721
       4A    -11.263340     5A    -11.263324     6A    -11.263250
       7A    -11.263141     8A    -11.263140     9A    -11.263067
      10A    -11.262851    11A    -11.262756    12A    -11.262705
      13A    -11.262241    14A    -11.262235    15A    -11.262192
      16A    -11.262178    17A    -11.262048    18A    -11.262035
      19A    -11.262011    20A    -11.261943    21A    -11.261937
      22A    -11.261849    23A    -11.261841    24A    -11.261676
      25A    -11.261669    26A    -11.261639    27A    -11.261631
      28A    -11.261591    29A    -11.261584    30A    -11.261509
      31A    -11.261478    32A    -11.261460    33A    -11.261453
      34A    -11.261439    35A    -11.261435    36A    -11.261411
      37A    -11.261243    38A    -11.261231    39A    -11.261219
      40A    -11.261213    41A    -11.261202    42A    -11.261199
      43A    -11.261191    44A    -11.261174    45A    -11.261168
      46A    -11.261146    47A    -11.261135    48A    -11.261120
      49A    -11.260995    50A    -11.260976    51A    -11.260948
      52A    -11.260908    53A    -11.260890    54A    -11.260830
      55A    -11.259801    56A    -11.259775    57A    -11.259773
      58A    -11.259749    59A    -11.259735    60A    -11.259720
      61A    -11.259160    62A    -11.259135    63A    -11.259124
      64A    -11.259078    65A    -11.259071    66A    -11.259042
      67A    -11.258800    68A    -11.258772    69A    -11.258770
      70A    -11.258746    71A    -11.258733    72A    -11.258720
      73A    -11.254457    74A    -11.254448    75A    -11.254438
      76A    -11.254434    77A    -11.254433    78A    -11.254428
      79A    -11.253565    80A    -11.253543    81A    -11.253540
      82A    -11.253539    83A    -11.253532    84A    -11.253531
      85A    -11.253480    86A    -11.253455    87A    -11.253454
      88A    -11.253451    89A    -11.253446    90A    -11.253445
      91A    -11.252985    92A    -11.252976    93A    -11.252966
      94A    -11.252962    95A    -11.252961    96A    -11.252956
      97A     -1.253733    98A     -1.238817    99A     -1.238785
     100A     -1.220296   101A     -1.220281   102A     -1.215264
     103A     -1.200891   104A     -1.195443   105A     -1.187964
     106A     -1.187947   107A     -1.173619   108A     -1.173617
     109A     -1.155441   110A     -1.155437   111A     -1.152537
     112A     -1.144586   113A     -1.144585   114A     -1.128388
     115A     -1.114520   116A     -1.113029   117A     -1.112310
     118A     -1.112282   119A     -1.111489   120A     -1.088254
     121A     -1.088233   122A     -1.076832   123A     -1.076830
     124A     -1.067442   125A     -1.067400   126A     -1.064790
     127A     -1.046636   128A     -1.046623   129A     -1.040313
     130A     -1.038607   131A     -1.038601   132A     -1.025049
     133A     -1.021186   134A     -1.021125   135A     -1.007027
     136A     -1.006620   137A     -1.003641   138A     -1.000309
     139A     -1.000249   140A     -0.990953   141A     -0.970815
     142A     -0.970765   143A     -0.955743   144A     -0.955683
     145A     -0.905427   146A     -0.905383   147A     -0.905372
     148A     -0.905341   149A     -0.904110   150A     -0.892145
     151A     -0.892087   152A     -0.890164   153A     -0.890114
     154A     -0.889266   155A     -0.872080   156A     -0.868950
     157A     -0.851385   158A     -0.847668   159A     -0.847657
     160A     -0.845397   161A     -0.842820   162A     -0.834395
     163A     -0.834384   164A     -0.827992   165A     -0.827982
     166A     -0.784394   167A     -0.784383   168A     -0.783484
     169A     -0.783471   170A     -0.782108   171A     -0.782090
     172A     -0.781843   173A     -0.766818   174A     -0.760583
     175A     -0.750387   176A     -0.733346   177A     -0.726908
     178A     -0.726870   179A     -0.724899   180A     -0.724376
     181A     -0.724342   182A     -0.718287   183A     -0.713580
     184A     -0.713574   185A     -0.699420   186A     -0.699398
     187A     -0.685922   188A     -0.685803   189A     -0.685792
     190A     -0.682009   191A     -0.682001   192A     -0.678614
     193A     -0.653471   194A     -0.650709   195A     -0.650676
     196A     -0.649610   197A     -0.649606   198A     -0.649418
     199A     -0.640737   200A     -0.640693   201A     -0.639926
     202A     -0.639013   203A     -0.635842   204A     -0.635808
     205A     -0.628964   206A     -0.617722   207A     -0.615161
     208A     -0.615135   209A     -0.608637   210A     -0.608631
     211A     -0.599081   212A     -0.599050   213A     -0.598572
     214A     -0.598399   215A     -0.598384   216A     -0.597844
     217A     -0.594917   218A     -0.594902   219A     -0.594555
     220A     -0.594013   221A     -0.591776   222A     -0.591772
     223A     -0.587171   224A     -0.577676   225A     -0.577658
     226A     -0.575623   227A     -0.575616   228A     -0.573214
     229A     -0.569517   230A     -0.567952   231A     -0.567930
     232A     -0.566579   233A     -0.566570   234A     -0.560790
     235A     -0.558537   236A     -0.558492   237A     -0.558298
     238A     -0.554194   239A     -0.550484   240A     -0.547350
     241A     -0.544173   242A     -0.534952   243A     -0.534942
     244A     -0.533379   245A     -0.533363   246A     -0.527928
     247A     -0.527908   248A     -0.527576   249A     -0.516981
     250A     -0.516955   251A     -0.515255   252A     -0.515251
     253A     -0.509488   254A     -0.509477   255A     -0.497856
     256A     -0.496286   257A     -0.496240   258A     -0.493721
     259A     -0.493701   260A     -0.489367   261A     -0.481296
     262A     -0.477315   263A     -0.477312   264A     -0.473827
     265A     -0.469236   266A     -0.466337   267A     -0.466335
     268A     -0.458706   269A     -0.446454   270A     -0.446403
     271A     -0.440941   272A     -0.440695   273A     -0.440658
     274A     -0.434582   275A     -0.433802   276A     -0.407273
     277A     -0.407245   278A     -0.386266   279A     -0.386222
     280A     -0.385632   281A     -0.385626   282A     -0.383625
     283A     -0.354203   284A     -0.354175   285A     -0.350528
     286A     -0.337993   287A     -0.335491   288A     -0.335448
     289A     -0.332599   290A     -0.332592   291A     -0.306897
     292A     -0.301817   293A     -0.301760   294A     -0.300713
     295A     -0.286039   296A     -0.256377   297A     -0.253358
     298A     -0.253305   299A     -0.204132   300A     -0.204051

  @DF-RHF Final Energy: -3650.34320288172057

   => Energetics <=

    Nuclear Repulsion Energy =          15611.4211649754324753
    One-Electron Energy =              -36072.2323153616962372
    Two-Electron Energy =               16810.4679475045450090
    Total Energy =                      -3650.3432028817187529
 Dipole X            :          0.0003798            0.0002112            0.0005910
 Dipole Y            :          0.0016328           -0.0044281           -0.0027953
 Dipole Z            :        250.6937547         -250.6941504           -0.0003957
 Magnitude           :                                                    0.0028843

    SAPT Results
  --------------------------------------------------------------------------------------------------------
    Electrostatics                -54.18367144 [mEh]     -34.00076715 [kcal/mol]    -142.25920977 [kJ/mol]
      Elst10,r                    -54.18367144 [mEh]     -34.00076715 [kcal/mol]    -142.25920977 [kJ/mol]

    Exchange                      123.37763035 [mEh]      77.42063190 [kcal/mol]     323.92792387 [kJ/mol]
      Exch10                      123.37763035 [mEh]      77.42063190 [kcal/mol]     323.92792387 [kJ/mol]
      Exch10(S^2)                 121.69729225 [mEh]      76.36620382 [kcal/mol]     319.51619678 [kJ/mol]

    Induction                     -32.29216547 [mEh]     -20.26363976 [kcal/mol]     -84.78306876 [kJ/mol]
      Ind20,r                     -68.95669638 [mEh]     -43.27098026 [kcal/mol]    -181.04578141 [kJ/mol]
      Exch-Ind20,r                 45.89099515 [mEh]      28.79703422 [kcal/mol]     120.48679117 [kJ/mol]
      delta HF,r (2)               -9.22646424 [mEh]      -5.78969372 [kcal/mol]     -24.22407851 [kJ/mol]

    Dispersion                    -73.34877873 [mEh]     -46.02705354 [kcal/mol]    -192.57719202 [kJ/mol]
      Disp20                      -84.62414160 [mEh]     -53.10245057 [kcal/mol]    -222.18065317 [kJ/mol]
      Exch-Disp20                  11.27536288 [mEh]       7.07539703 [kcal/mol]      29.60346115 [kJ/mol]
      Disp20 (SS)                 -42.31207080 [mEh]     -26.55122528 [kcal/mol]    -111.09032659 [kJ/mol]
      Disp20 (OS)                 -42.31207080 [mEh]     -26.55122528 [kcal/mol]    -111.09032659 [kJ/mol]
      Exch-Disp20 (SS)              6.74335426 [mEh]       4.23151869 [kcal/mol]      17.70467418 [kJ/mol]
      Exch-Disp20 (OS)              4.53200861 [mEh]       2.84387834 [kcal/mol]      11.89878698 [kJ/mol]

  Total HF                         36.90179344 [mEh]      23.15622499 [kcal/mol]      96.88564534 [kJ/mol]
  Total SAPT0                     -36.44698528 [mEh]     -22.87082856 [kcal/mol]     -95.69154668 [kJ/mol]

  Special recipe for scaled SAPT0 (see Manual):
    Electrostatics sSAPT0         -54.18367144 [mEh]     -34.00076715 [kcal/mol]    -142.25920977 [kJ/mol]
    Exchange sSAPT0               123.37763035 [mEh]      77.42063190 [kcal/mol]     323.92792387 [kJ/mol]
    Induction sSAPT0              -30.36487478 [mEh]     -19.05424660 [kcal/mol]     -79.72296776 [kJ/mol]
    Dispersion sSAPT0             -72.87524570 [mEh]     -45.72990708 [kcal/mol]    -191.33393123 [kJ/mol]
  Total sSAPT0                    -34.04616157 [mEh]     -21.36428893 [kcal/mol]     -89.38818489 [kJ/mol]
  --------------------------------------------------------------------------------------------------------

*** Psi4 exiting successfully. Buy a developer a beer!
