                               Psi4 1.9 release

  ==> Input File <==

--------------------------------------------------------------------------
memory 32 GB # how much memory is available ! Depends on the nodes/cores !

molecule dimer {
# monomer A
+1 1    # Charge and multiplicity
C  0.680067 -1.215929 2.808042
C -0.680504 -1.215545 2.806014
N -1.085635  0.102779 2.805016
C  0.000108  0.884180 2.801740
C -2.477365  0.570758 2.755610
N  1.085222  0.102779 2.805016
H  1.385146 -2.033368 2.815870
H -1.385302 -2.033214 2.806204
H -0.000009  1.965269 2.799993
C  2.478117  0.567877 2.821908
H  2.490592  1.658130 2.794563
H  2.967028  0.220701 3.735354
H  3.001428  0.176405 1.946425
H -2.857359  0.490799 1.733539
H -3.082679 -0.042306 3.425694
H -2.518128  1.610706 3.082594
--
# monomer B
0 1     # Charge and multiplicity
C   1.22531237526482      0.70753866091955      0.00613762728373
C   1.22532433589282     -0.70753852257020     -0.00619318228664
C   -0.00000567409046      1.41496628609039     -0.00672680580738
C   2.45644923379077      1.41832825917820      0.00902448468363
C   0.00001130712078     -1.41497612663474      0.00347275151708
C   -1.22530046906674      0.70754574598412      0.00838914760619
C   2.45643823516184     -1.41832293188077     -0.00843833914343
C   -0.00000085313587      2.83680140328112     -0.00913035594137
C   3.68182717731192      0.70931832800114     -0.00808954934571
C   2.45512052870677      2.83422403348893     -0.00819210630633
C   3.68182158506039     -0.70933346742900      0.00798293467272
C   -1.22531311884624     -0.70752714354401     -0.00512042085974
C   1.22670006104402      3.54346985599427      0.00816696660346
C   0.00000526469929     -2.83678176723568      0.00832091913869
C   -2.45643555300670      1.41831729028492      0.00842454345199
C   2.45512389762097     -2.83422965658853      0.00783102630520
C   -1.22671388474763      3.54346943575023      0.00827029982280
C   4.91451777504333      1.42717324448953     -0.00160886631602
C   3.69315067131765      3.54279566454522     -0.00155906667985
C   -2.45643712022637     -1.41831290883911     -0.00846337726810
C   1.22670532178455     -3.54347386990643     -0.00780316414624
C   -2.45512491866593      2.83421703463423     -0.00818572995999
C   4.91452486062398     -1.42718653794377      0.00136387641845
C   1.22142509354026      4.97013443726031      0.00150231067809
C   4.89300870916237      2.82518837202648     -0.00039219795739
C   -1.22669652864725     -3.54347062507680     -0.00753595973677
C   -3.68181849668397      0.70932533873199     -0.00807686886569
C   3.69314758099218     -3.54280096939050      0.00148176697923
C   -1.22143177215231      4.97012866986289      0.00168580605083
C   6.13477145276790      0.68054831910577     -0.00083909176631
C   3.65678936045204      4.97295361556775     -0.00065042889723
C   -2.45512642789169     -2.83421472106065      0.00758666850712
C   -3.68181869921921     -0.70932533146830      0.00810055625144
C   4.89301309775526     -2.82519973363176      0.00021895393805
C   -0.00000059327114      5.65044773803267      0.00045449734393
C   6.13477559217374     -0.68055448207492      0.00042622874941
C   2.47813196269732      5.65357712333155      0.00063835075260
C   1.22142288457925     -4.97012668293268     -0.00129718634452
C   -3.69316190412301      3.54279732619245     -0.00139355922051
C   -1.22142804110313     -4.97011793159564     -0.00140994817719
C   -4.91452132810043      1.42717581899491     -0.00153192130862
C   3.65678749952045     -4.97295485423912      0.00080007163680
C   -2.47813805026426      5.65357479452875      0.00092287576113
C   -3.69314125872231     -3.54278984697859      0.00136564082345
C   -4.91451200321153     -1.42718062802730      0.00139857359209
C   -0.00000552908399     -5.65043791501335      0.00005899322272
C   -4.89302000425900      2.82518897091939     -0.00040227981744
C   2.47812647313991     -5.65357317188818     -0.00029052915548
C   -3.65679823041642      4.97295655404175     -0.00047374852278
C   -4.89299899901461     -2.82519139505969      0.00006491824035
C   -2.47812801824129     -5.65356579800621     -0.00056571680280
C   -6.13477002348955      0.68054913825639     -0.00086464346868
C   -3.65678835334731     -4.97294365097028      0.00058578382008
C   -6.13476456307132     -0.68055354348201      0.00040575295444
H   5.83528897565761      3.36927626695423      0.00396712770529
H   7.07385965258860      1.22821762089947     -0.00037744837300
H   4.60066374401555      5.51238117445323     -0.00014522814529
H   5.83528386714679     -3.36930568472863     -0.00423551337640
H   -0.00001167146422      6.73853104613662     -0.00389474766392
H   7.07386165167227     -1.22822657074368     -0.00008250934481
H   2.47331421164041      6.74068466339473      0.00017162982210
H   4.60066897122302     -5.51237575717576      0.00039007446835
H   -2.47331820069565      6.74068209160650      0.00047297644710
H   -0.00000978838621     -6.73852780445195      0.00458867820736
H   -5.83530143450167      3.36927132229595      0.00410314985360
H   2.47330840367253     -6.74068500242887      0.00027980126949
H   -4.60067436136587      5.51237839860371      0.00002010017831
H   -5.83527902699321     -3.36928859177951     -0.00451481925734
H   -2.47329986759855     -6.74067870613986     -0.00016951527498
H   -7.07385728692578      1.22822084484047     -0.00046143985387
H   -4.60067330624313     -5.51236229778631      0.00021776644566
H   -7.07385645456741     -1.22822025997701     -0.00017736581114

    units angstrom      # Angstroms are the default
    no_reorient         # Geometry fixed, default
    symmetry c1         # C1 symmetry, default
}

set {
    scf_type DF         # Density fitting, faster than exact integrals
    freeze_core True    # Freeze core electrons
    basis jun-cc-pVDZ   # Jun-cc-pVDZ basis set, recommended for sSAPT0 in https://doi.org/10.1063/1.4867135
}

energy('ssapt0')        # Compute sSAPT0 energy, includes also SAPT0
--------------------------------------------------------------------------

  //              Dimer HF             //
    Molecular point group: c1
  Charge       = 1
  Multiplicity = 1
  Basis Set: JUN-CC-PVDZ
    Blend: JUN-CC-PVDZ
  Basis Set: (JUN-CC-PVDZ AUX)
    Blend: JUN-CC-PVDZ-JKFIT
  @DF-RHF Final Energy: -2359.13237461747258
    Total Energy =                      -2359.1323746174730331
 Dipole X            :          0.0044255            0.0006313            0.0050568
 Dipole Y            :         -1.6710505            1.8864948            0.2154443
 Dipole Z            :        -11.7340154           14.5396051            2.8055896
 Magnitude           :                                                    2.8138541
  //            Monomer A HF           //
    Molecular point group: c1
  Multiplicity = 1
  Basis Set: JUN-CC-PVDZ
    Blend: JUN-CC-PVDZ
  Basis Set: (JUN-CC-PVDZ AUX)
    Blend: JUN-CC-PVDZ-JKFIT
  @DF-RHF Final Energy:  -303.30005120219471
    Total Energy =                       -303.3000512021947088
  //            Monomer B HF           //
    Molecular point group: c1

    Geometry (in Angstrom), charge = 0, multiplicity = 1:

       Center              X                  Y                   Z               Mass
    ------------   -----------------  -----------------  -----------------  -----------------
      Gh(C)           0.680066520158    -1.215933861162     2.451901360098    12.000000000000
      Gh(C)          -0.680504479842    -1.215549861162     2.449873360098    12.000000000000
      Gh(N)          -1.085635479842     0.102774138838     2.448875360098    14.003074004430
      Gh(C)           0.000107520158     0.884175138838     2.445599360098    12.000000000000
      Gh(C)          -2.477365479842     0.570753138838     2.399469360098    12.000000000000
      Gh(N)           1.085221520158     0.102774138838     2.448875360098    14.003074004430
      Gh(H)           1.385145520158    -2.033372861162     2.459729360098     1.007825032230
      Gh(H)          -1.385302479842    -2.033218861162     2.450063360098     1.007825032230
      Gh(H)          -0.000009479842     1.965264138838     2.443852360098     1.007825032230
      Gh(C)           2.478116520158     0.567872138838     2.465767360098    12.000000000000
      Gh(H)           2.490591520158     1.658125138838     2.438422360098     1.007825032230
      Gh(H)           2.967027520158     0.220696138838     3.379213360098     1.007825032230
      Gh(H)           3.001427520158     0.176400138838     1.590284360098     1.007825032230
      Gh(H)          -2.857359479842     0.490794138838     1.377398360098     1.007825032230
      Gh(H)          -3.082679479842    -0.042310861162     3.069553360098     1.007825032230
      Gh(H)          -2.518128479842     1.610701138838     2.726453360098     1.007825032230
         C            1.225311895423     0.707533799757    -0.350003012619    12.000000000000
         C            1.225323856051    -0.707543383733    -0.362333822189    12.000000000000
         C           -0.000006153932     1.414961424928    -0.362867445710    12.000000000000
         C            2.456448753949     1.418323398016    -0.347116155219    12.000000000000
         C            0.000010827279    -1.414980987797    -0.352667888385    12.000000000000
         C           -1.225300948908     0.707540884822    -0.347751492296    12.000000000000
         C            2.456437755320    -1.418327793043    -0.364578979046    12.000000000000
         C           -0.000001332978     2.836796542119    -0.365270995844    12.000000000000
         C            3.681826697470     0.709313466839    -0.364230189248    12.000000000000
         C            2.455120048865     2.834219172327    -0.364332746209    12.000000000000
         C            3.681821105219    -0.709338328591    -0.348157705230    12.000000000000
         C           -1.225313598688    -0.707532004706    -0.361261060762    12.000000000000
         C            1.226699581202     3.543464994832    -0.347973673299    12.000000000000
         C            0.000004784858    -2.836786628398    -0.347819720764    12.000000000000
         C           -2.456436032848     1.418312429123    -0.347716096450    12.000000000000
         C            2.455123417779    -2.834234517751    -0.348309613597    12.000000000000
         C           -1.226714364589     3.543464574588    -0.347870340080    12.000000000000
         C            4.914517295202     1.427168383327    -0.357749506218    12.000000000000
         C            3.693150191476     3.542790803383    -0.357699706582    12.000000000000
         C           -2.456437600068    -1.418317770001    -0.364604017170    12.000000000000
         C            1.226704841943    -3.543478731069    -0.363943804049    12.000000000000
         C           -2.455125398508     2.834212173472    -0.364326369862    12.000000000000
         C            4.914524380782    -1.427191399106    -0.354776763484    12.000000000000
         C            1.221424613699     4.970129576098    -0.354638329224    12.000000000000
         C            4.893008229321     2.825183510864    -0.356532837860    12.000000000000
         C           -1.226697008489    -3.543475486239    -0.363676599639    12.000000000000
         C           -3.681818976526     0.709320477570    -0.364217508768    12.000000000000
         C            3.693147101150    -3.542805830553    -0.354658872923    12.000000000000
         C           -1.221432251994     4.970123808701    -0.354454833852    12.000000000000
         C            6.134770972926     0.680543457943    -0.356979731669    12.000000000000
         C            3.656788880610     4.972948754405    -0.356791068800    12.000000000000
         C           -2.455126907733    -2.834219582223    -0.348553971395    12.000000000000
         C           -3.681819179061    -0.709330192631    -0.348040083651    12.000000000000
         C            4.893012617914    -2.825204594794    -0.355921685964    12.000000000000
         C           -0.000001073113     5.650442876870    -0.355686142558    12.000000000000
         C            6.134775112332    -0.680559343237    -0.355714411153    12.000000000000
         C            2.478131482856     5.653572262169    -0.355502289150    12.000000000000
         C            1.221422404738    -4.970131544095    -0.357437826247    12.000000000000
         C           -3.693162383965     3.542792465030    -0.357534199123    12.000000000000
         C           -1.221428520945    -4.970122792758    -0.357550588080    12.000000000000
         C           -4.914521807942     1.427170957833    -0.357672561211    12.000000000000
         C            3.656787019679    -4.972959715401    -0.355340568266    12.000000000000
         C           -2.478138530106     5.653569933366    -0.355217764141    12.000000000000
         C           -3.693141738564    -3.542794708141    -0.354774999079    12.000000000000
         C           -4.914512483053    -1.427185489190    -0.354742066310    12.000000000000
         C           -0.000006008926    -5.650442776176    -0.356081646680    12.000000000000
         C           -4.893020484101     2.825184109757    -0.356542919720    12.000000000000
         C            2.478125993298    -5.653578033051    -0.356431169058    12.000000000000
         C           -3.656798710258     4.972951692879    -0.356614388425    12.000000000000
         C           -4.892999478856    -2.825196256222    -0.356075721662    12.000000000000
         C           -2.478128498083    -5.653570659169    -0.356706356705    12.000000000000
         C           -6.134770503331     0.680544277094    -0.357005283371    12.000000000000
         C           -3.656788833189    -4.972948512133    -0.355554856082    12.000000000000
         C           -6.134765042913    -0.680558404644    -0.355734886948    12.000000000000
         H            5.835288495816     3.369271405792    -0.352173512197     1.007825032230
         H            7.073859172747     1.228212759737    -0.356518088275     1.007825032230
         H            4.600663264174     5.512376313291    -0.356285868048     1.007825032230
         H            5.835283387305    -3.369310545891    -0.360376153279     1.007825032230
         H           -0.000012151306     6.738526184974    -0.360035387566     1.007825032230
         H            7.073861171831    -1.228231431906    -0.356223149247     1.007825032230
         H            2.473313731799     6.740679802232    -0.355969010080     1.007825032230
         H            4.600668491381    -5.512380618338    -0.355750565434     1.007825032230
         H           -2.473318680537     6.740677230444    -0.355667663455     1.007825032230
         H           -0.000010268228    -6.738532665614    -0.351551961695     1.007825032230
         H           -5.835301914343     3.369266461134    -0.352037490049     1.007825032230
         H            2.473307923831    -6.740689863591    -0.355860838633     1.007825032230
         H           -4.600674841208     5.512373537441    -0.356120539724     1.007825032230
         H           -5.835279506835    -3.369293452942    -0.360655459160     1.007825032230
         H           -2.473300347440    -6.740683567302    -0.356310155177     1.007825032230
         H           -7.073857766768     1.228215983678    -0.356602079756     1.007825032230
         H           -4.600673786085    -5.512367158949    -0.355922873457     1.007825032230
         H           -7.073856934409    -1.228225121139    -0.356318005714     1.007825032230

  Charge       = 0
  Multiplicity = 1
  Basis Set: JUN-CC-PVDZ
    Blend: JUN-CC-PVDZ
  Basis Set: (JUN-CC-PVDZ AUX)
    Blend: JUN-CC-PVDZ-JKFIT

    Orbital Energies [Eh]
    ---------------------

    Doubly Occupied:

       1A    -11.260678     2A    -11.260236     3A    -11.260208
       4A    -11.259471     5A    -11.259439     6A    -11.259257
       7A    -11.258993     8A    -11.258933     9A    -11.258894
      10A    -11.258577    11A    -11.258564    12A    -11.258385
      13A    -11.258341    14A    -11.258326    15A    -11.258319
      16A    -11.258288    17A    -11.258284    18A    -11.258261
      19A    -11.258259    20A    -11.258254    21A    -11.258238
      22A    -11.258222    23A    -11.258214    24A    -11.258064
      25A    -11.257235    26A    -11.257193    27A    -11.257137
      28A    -11.257053    29A    -11.257022    30A    -11.256947
      31A    -11.256347    32A    -11.256296    33A    -11.256231
      34A    -11.256167    35A    -11.256139    36A    -11.256077
      37A    -11.252131    38A    -11.252126    39A    -11.252098
      40A    -11.252096    41A    -11.252093    42A    -11.252089
      43A    -11.251202    44A    -11.251192    45A    -11.251182
      46A    -11.251179    47A    -11.251172    48A    -11.251164
      49A    -11.250692    50A    -11.250687    51A    -11.250659
      52A    -11.250657    53A    -11.250653    54A    -11.250650
      55A     -1.243766    56A     -1.219530    57A     -1.219509
      58A     -1.189267    59A     -1.189247    60A     -1.180671
      61A     -1.157298    62A     -1.148697    63A     -1.135220
      64A     -1.135197    65A     -1.112934    66A     -1.112926
      67A     -1.082146    68A     -1.082134    69A     -1.078327
      70A     -1.065731    71A     -1.065720    72A     -1.039128
      73A     -1.023957    74A     -1.021481    75A     -1.021424
      76A     -1.017466    77A     -1.012556    78A     -0.986735
      79A     -0.986672    80A     -0.961623    81A     -0.961569
      82A     -0.894022    83A     -0.894002    84A     -0.887619
      85A     -0.885860    86A     -0.885821    87A     -0.881085
      88A     -0.881037    89A     -0.861636    90A     -0.837178
      91A     -0.817916    92A     -0.816295    93A     -0.811835
      94A     -0.811832    95A     -0.794434    96A     -0.794421
      97A     -0.746291    98A     -0.744557    99A     -0.733114
     100A     -0.733100   101A     -0.731915   102A     -0.731893
     103A     -0.716214   104A     -0.698708   105A     -0.698672
     106A     -0.693302   107A     -0.693257   108A     -0.660965
     109A     -0.652822   110A     -0.650833   111A     -0.650001
     112A     -0.649994   113A     -0.639089   114A     -0.639070
     115A     -0.629416   116A     -0.627222   117A     -0.627210
     118A     -0.606458   119A     -0.605604   120A     -0.601344
     121A     -0.599470   122A     -0.599401   123A     -0.593322
     124A     -0.590894   125A     -0.590862   126A     -0.585043
     127A     -0.576392   128A     -0.576319   129A     -0.567077
     130A     -0.567058   131A     -0.565654   132A     -0.565647
     133A     -0.558417   134A     -0.554588   135A     -0.554578
     136A     -0.538332   137A     -0.538329   138A     -0.538130
     139A     -0.538120   140A     -0.529431   141A     -0.528096
     142A     -0.522603   143A     -0.522568   144A     -0.500241
     145A     -0.495489   146A     -0.492961   147A     -0.487715
     148A     -0.484759   149A     -0.481457   150A     -0.481456
     151A     -0.470243   152A     -0.470237   153A     -0.450685
     154A     -0.450618   155A     -0.438924   156A     -0.438916
     157A     -0.404584   158A     -0.404578   159A     -0.403223
     160A     -0.375258   161A     -0.375250   162A     -0.348947
     163A     -0.337483   164A     -0.336438   165A     -0.336416
     166A     -0.310891   167A     -0.297936   168A     -0.284174
     169A     -0.284130   170A     -0.224738   171A     -0.224680

  @DF-RHF Final Energy: -2055.89716664885646

   => Energetics <=

    Nuclear Repulsion Energy =           6452.5568002797772351
    One-Electron Energy =              -15636.5598764697697334
    Two-Electron Energy =                7128.1059095411364979
    Total Energy =                      -2055.8971666488560004
 Dipole X            :         -0.0006922           -0.0000085           -0.0007007
 Dipole Y            :          0.0004076           -0.0028843           -0.0024767
 Dipole Z            :        230.1745151         -230.1702718            0.0042433
 Magnitude           :                                                    0.0049629

    SAPT Results
  --------------------------------------------------------------------------------------------------------
    Electrostatics                -70.27679647 [mEh]     -44.09935557 [kcal/mol]    -184.51170371 [kJ/mol]
      Elst10,r                    -70.27679647 [mEh]     -44.09935557 [kcal/mol]    -184.51170371 [kJ/mol]

    Exchange                      167.09805125 [mEh]     104.85561021 [kcal/mol]     438.71587313 [kJ/mol]
      Exch10                      167.09805125 [mEh]     104.85561021 [kcal/mol]     438.71587313 [kJ/mol]
      Exch10(S^2)                 164.07176678 [mEh]     102.95658803 [kcal/mol]     430.77036434 [kJ/mol]

    Induction                     -31.97802121 [mEh]     -20.06651126 [kcal/mol]     -83.95828311 [kJ/mol]
      Ind20,r                     -86.23737659 [mEh]     -54.11477081 [kcal/mol]    -226.41620105 [kJ/mol]
      Exch-Ind20,r                 64.22379963 [mEh]      40.30104271 [kcal/mol]     168.61956269 [kJ/mol]
      delta HF,r (2)               -9.96444424 [mEh]      -6.25278316 [kcal/mol]     -26.16164475 [kJ/mol]

    Dispersion                    -81.74813294 [mEh]     -51.29772789 [kcal/mol]    -214.62969347 [kJ/mol]
      Disp20                      -96.24337375 [mEh]     -60.39362881 [kcal/mol]    -252.68694296 [kJ/mol]
      Exch-Disp20                  14.49524080 [mEh]       9.09590093 [kcal/mol]      38.05724948 [kJ/mol]
      Disp20 (SS)                 -48.12168687 [mEh]     -30.19681441 [kcal/mol]    -126.34347148 [kJ/mol]
      Disp20 (OS)                 -48.12168687 [mEh]     -30.19681441 [kcal/mol]    -126.34347148 [kJ/mol]
      Exch-Disp20 (SS)              8.64876641 [mEh]       5.42718286 [kcal/mol]      22.70733309 [kJ/mol]
      Exch-Disp20 (OS)              5.84647439 [mEh]       3.66871807 [kcal/mol]      15.34991639 [kJ/mol]

  Total HF                         64.84323358 [mEh]      40.68974338 [kcal/mol]     170.24588631 [kJ/mol]
  Total SAPT0                     -16.90489936 [mEh]     -10.60798450 [kcal/mol]     -44.38380717 [kJ/mol]

  Special recipe for scaled SAPT0 (see Manual):
    Electrostatics sSAPT0         -70.27679647 [mEh]     -44.09935557 [kcal/mol]    -184.51170371 [kJ/mol]
    Exchange sSAPT0               167.09805125 [mEh]     104.85561021 [kcal/mol]     438.71587313 [kJ/mol]
    Induction sSAPT0              -28.35826741 [mEh]     -17.79508146 [kcal/mol]     -74.45462083 [kJ/mol]
    Dispersion sSAPT0             -80.93115850 [mEh]     -50.78506868 [kcal/mol]    -212.48472737 [kJ/mol]
  Total sSAPT0                    -12.46817113 [mEh]      -7.82389550 [kcal/mol]     -32.73517879 [kJ/mol]
  --------------------------------------------------------------------------------------------------------

*** Psi4 exiting successfully. Buy a developer a beer!
