                               Psi4 1.9 release

  ==> Input File <==

--------------------------------------------------------------------------
memory 64 GB # how much memory is available ! Depends on the nodes/cores !

molecule dimer {
# monomer A
+1 1    # Charge and multiplicity
C  0.680067 1.417258 -11.215929
C -0.680504 1.419286 -11.215545
N -1.085635 1.420284  -9.897221
C  0.000108 1.423560  -9.115820
C -2.477365 1.469690  -9.429242
N  1.085222 1.420284  -9.897221
H  1.385146 1.409430 -12.033368
H -1.385302 1.419096 -12.033214
H -0.000009 1.425307  -8.034731
C  2.478117 1.403392  -9.432123
H  2.490592 1.430737  -8.341870
H  2.967028 0.489946  -9.779299
H  3.001428 2.278875  -9.823595
H -2.857359 2.491761  -9.509201
H -3.082679 0.799606 -10.042306
H -2.518128 1.142706  -8.389294
--
# monomer B
0 1     # Charge and multiplicity
C   -3.66844126402057      7.80375217008252      0.00190004133558
C   -4.84759871934653      7.13124183134024     -0.00046653359696
C   -4.89495929917518      5.69633040353158     -0.00103944469517
C   -3.65374067877320      4.98073034095895      0.00662099703436
C   -2.40942512149445      7.11398103667468      0.00209438359570
C   -2.42547734410473      5.68112195090346     -0.00491050527438
C   -1.19474401643570      7.78614419430947      0.00356656413763
C   0.03795902893699      7.09942164575698      0.00139585983271
C   0.03033258741920      5.66948955970466     -0.00408752508301
C   -1.20098450790502      4.96927034791531      0.00488220885047
C   1.27795782581485      7.77285944319479      0.00277170839332
C   2.48535808472416      7.08769688523756      0.00049722048857
C   2.48612868491717      5.65477081024076     -0.00644052849921
C   1.25408291964399      4.95607811366431      0.00518741308898
C   3.75171459140595      7.76391215098033      0.00062407186893
C   4.92356605618520      7.07878077698995     -0.00143240883900
C   4.95560727132542      5.64344746336949     -0.00159282164606
C   3.70680153420475      4.94121020833308      0.00349873852374
H   -3.65852113775815      8.89082741913536      0.00358502958574
H   -1.18921332975660      8.87412108735996      0.00753844057883
H   1.28429423888630      8.86083343548850      0.00693053253426
H   3.75354208679975      8.85103527897216      0.00214659618464
H   5.86995870320703      7.61379483465560     -0.00235777588134
H   -5.78823170750226      7.67630221293400     -0.00202638095293
C   -6.09197395869619      4.99326001364347     -0.00291168518608
C   -6.12866148031747      3.58258016879823     -0.00171050815740
C   -3.66457974004527      3.56418217974434     -0.00463560277484
C   -4.89429820469869      2.86108077590057      0.00453338221034
C   -2.43733499489796      2.84761165708481      0.00719617576166
C   -1.20922785759670      3.54788693497833     -0.00648285103018
C   1.24714157216223      3.53468075142962     -0.00729145743546
C   0.01517603956900      2.83311183930540      0.00439272578912
C   2.46764517244071      2.82128997725533      0.00449278391269
C   3.70254947457969      3.52466015442405     -0.00899517692985
C   6.14498038638375      4.92757236613191     -0.00282626685777
C   6.16658835886151      3.51658447594213     -0.00065971342101
C   4.92460995845939      2.80840792535402      0.00587903281610
H   7.08990550964105      5.46688776622306     -0.00658814770723
H   -7.03104175110130      5.54268795285765     -0.00714490013730
C   -7.33969804112295      2.85841153457957     -0.00333767559888
C   -7.36488195805880      1.47032337158330     -0.00157213747140
C   -4.90350460894690      1.44442681216000     -0.00628840166334
C   -6.13225715261081      0.73993935705394      0.00600164231964
C   -3.67687480051673      0.72669714267312      0.00433931473643
C   -2.44565658606518      1.42964113326212     -0.00597039546461
C   -1.22360068130162      0.71532450163492      0.00545886906656
C   0.00763786931376      1.41738314923765      0.00392452278437
C   1.23121980774686      0.70211669058719     -0.01490206287210
C   2.46082110053113      1.40329203612573      0.00460244601878
C   3.68443025419614      0.68719842821222      0.00377365974158
C   4.91870890153864      1.39173456118907     -0.00862816189375
C   7.36980207796101      2.77948220318441     -0.00242013321349
C   7.38016266612146      1.39121750785509     -0.00087345036788
C   6.13979953912259      0.67411862320065      0.00545489144369
H   -8.27919079934664      3.40711804112415     -0.00763522772059
H   8.31511347147953      3.31811809662368     -0.00663070901292
C   -8.59175593758115      0.72483255304480     -0.00123170985383
C   -8.59902460370342     -0.63263980622873      0.00089141472904
C   -6.13981313911873     -0.67413663715361     -0.00609792660607
C   -7.38018411213749     -1.39126618958160      0.00131813493501
C   -4.91868448025621     -1.39175501803000      0.00624257154343
C   -3.68443829568458     -0.68723731573599     -0.00478966852105
C   -2.46081704024768     -1.40334517882457      0.00575341766833
C   -1.23116201232071     -0.70217386488055     -0.00636696112346
C   -0.00756962538737     -1.41741884941102      0.00108956317991
C   1.22364771588843     -0.71527537726392      0.01109518512883
C   2.44567064933149     -1.42964328900682     -0.00065482763106
C   3.67686670284649     -0.72670743155550     -0.00479541202602
C   6.13224884641929     -0.73997883984993     -0.00632338623858
C   4.90351914550401     -1.44445752054090      0.00751768830159
C   8.59901484869081      0.63260386666793     -0.00101133422380
C   8.59174548810050     -0.72485086719319      0.00072504603735
C   7.36486276438985     -1.47033266560598      0.00049486934466
H   -9.52830597181814      1.27684744919284     -0.00270163681798
H   9.54141097460619      1.17457248844457     -0.00206336648518
C   -7.36983790976868     -2.77954514593389      0.00312634335708
C   -4.92459910905015     -2.80843725734101     -0.00460528907921
C   -6.16662249566744     -3.51665219282533      0.00169655107992
C   -3.70251035970491     -3.52468154912026      0.00571878010666
C   -2.46764698511392     -2.82132596280400     -0.00632585824990
C   -0.01513347410770     -2.83314164539971     -0.00604426974092
C   -1.24712184122656     -3.53473217556300      0.00551968366725
C   1.20924506964357     -3.54791467864352      0.00805871345849
C   2.43733602215464     -2.84764173817541     -0.00608104485234
C   4.89430234377080     -2.86112296828604     -0.00526030478103
C   3.66461525504104     -3.56421984553201      0.00761911515957
C   6.12863901474565     -3.58258405771778      0.00096495711699
C   7.33967266469532     -2.85841330737039      0.00248018319869
H   -9.54144911125902     -1.17456346666430      0.00226083090216
H   9.52826186807155     -1.27691907390448      0.00197485379837
H   -8.31516504384864     -3.31814985321231      0.00729857188773
H   8.27915514249207     -3.40714078989363      0.00681973918158
C   -6.14499418870218     -4.92764727278338      0.00302254913999
C   -3.70678334799751     -4.94126171411716     -0.00679841894792
C   -4.95559005800169     -5.64349397349412      0.00116871569699
C   -2.48612132622665     -5.65478557440947      0.00614125209662
C   -1.25405833548005     -4.95612205000132     -0.00503435388927
C   1.20101257386816     -4.96928038819302     -0.00385322963129
C   -0.03033667441341     -5.66952030313900      0.00398997003238
C   3.65375010132847     -4.98074377541453     -0.00309522988330
C   2.42549269587528     -5.68117463552727      0.00628170066869
C   6.09196561781097     -4.99325796338655      0.00325918379042
C   4.89497644461045     -5.69634842095790      0.00202298796027
H   -7.08989238804069     -5.46699984223871      0.00742531082125
H   7.03105520920009     -5.54265853633254      0.00683896355417
C   -4.92354532219813     -7.07882109967734      0.00061394679214
C   -2.48534208823777     -7.08772807792913     -0.00189594564379
C   -3.75168589177895     -7.76394715763627     -0.00170126671874
C   -0.03794895698805     -7.09946487446944     -0.00168022049625
C   -1.27795610040136     -7.77290438466689     -0.00366491325785
C   2.40944432072629     -7.11402201200282     -0.00081701968533
C   1.19474993715296     -7.78618536556242     -0.00296931056689
C   4.84762105249800     -7.13126211057943      0.00168979497423
C   3.66847160587561     -7.80378799294376     -0.00065863938960
H   -5.86994035041618     -7.61383059804164      0.00215798365757
H   5.78824962538815     -7.67633218931421      0.00281691445618
H   -3.75352693944918     -8.85107156923607     -0.00353718114765
H   -1.28430440589466     -8.86087539249706     -0.00809229711623
H   1.18922157469537     -8.87416062058945     -0.00706194725726
H   3.65854661482387     -8.89086063405326     -0.00231318081200

    units angstrom      # Angstroms are the default
    no_reorient         # Geometry fixed, default
    symmetry c1         # C1 symmetry, default
}

set {
    scf_type DF         # Density fitting, faster than exact integrals
    freeze_core True    # Freeze core electrons
    basis jun-cc-pVDZ   # Jun-cc-pVDZ basis set, recommended for sSAPT0 in https://doi.org/10.1063/1.4867135
}

energy('ssapt0')        # Compute sSAPT0 energy, includes also SAPT0
--------------------------------------------------------------------------

  //              Dimer HF             //
    Molecular point group: c1
  Charge       = 1
  Multiplicity = 1
  Basis Set: JUN-CC-PVDZ
    Blend: JUN-CC-PVDZ
  Basis Set: (JUN-CC-PVDZ AUX)
    Blend: JUN-CC-PVDZ-JKFIT
  @DF-RHF Final Energy: -3953.64139936539323
    Total Energy =                      -3953.6413993653914076
 Dipole X            :         -0.0020530            0.0004804           -0.0015726
 Dipole Y            :         -6.5986286            8.7122315            2.1136029
 Dipole Z            :         42.5642719          -58.8457775          -16.2815056
 Magnitude           :                                                   16.4181225
  //            Monomer A HF           //
    Molecular point group: c1
  Multiplicity = 1
  Basis Set: JUN-CC-PVDZ
    Blend: JUN-CC-PVDZ
  Basis Set: (JUN-CC-PVDZ AUX)
    Blend: JUN-CC-PVDZ-JKFIT
  @DF-RHF Final Energy:  -303.29716834738906
    Total Energy =                       -303.2971683473890607
  //            Monomer B HF           //
    Molecular point group: c1

    Geometry (in Angstrom), charge = 0, multiplicity = 1:

       Center              X                  Y                   Z               Mass
    ------------   -----------------  -----------------  -----------------  -----------------
      Gh(C)           0.680062820275     1.308604348936   -10.453512021946    12.000000000000
      Gh(C)          -0.680508179725     1.310632348936   -10.453128021946    12.000000000000
      Gh(N)          -1.085639179725     1.311630348936    -9.134804021946    14.003074004430
      Gh(C)           0.000103820275     1.314906348936    -8.353403021946    12.000000000000
      Gh(C)          -2.477369179725     1.361036348936    -8.666825021946    12.000000000000
      Gh(N)           1.085217820275     1.311630348936    -9.134804021946    14.003074004430
      Gh(H)           1.385141820275     1.300776348936   -11.270951021946     1.007825032230
      Gh(H)          -1.385306179725     1.310442348936   -11.270797021946     1.007825032230
      Gh(H)          -0.000013179725     1.316653348936    -7.272314021946     1.007825032230
      Gh(C)           2.478112820275     1.294738348936    -8.669706021946    12.000000000000
      Gh(H)           2.490587820275     1.322083348936    -7.579453021946     1.007825032230
      Gh(H)           2.967023820275     0.381292348936    -9.016882021946     1.007825032230
      Gh(H)           3.001423820275     2.170221348936    -9.061178021946     1.007825032230
      Gh(H)          -2.857363179725     2.383107348936    -8.746784021946     1.007825032230
      Gh(H)          -3.082683179725     0.690952348936    -9.279889021946     1.007825032230
      Gh(H)          -2.518132179725     1.034052348936    -7.626877021946     1.007825032230
         C           -3.668445443746     7.695098519018     0.764317019390    12.000000000000
         C           -4.847602899072     7.022588180276     0.761950444457    12.000000000000
         C           -4.894963478901     5.587676752467     0.761377533359    12.000000000000
         C           -3.653744858499     4.872076689895     0.769037975089    12.000000000000
         C           -2.409429301220     7.005327385610     0.764511361650    12.000000000000
         C           -2.425481523830     5.572468299839     0.757506472780    12.000000000000
         C           -1.194748196161     7.677490543245     0.765983542192    12.000000000000
         C            0.037954849212     6.990767994693     0.763812837887    12.000000000000
         C            0.030328407694     5.560835908640     0.758329452971    12.000000000000
         C           -1.200988687630     4.860616696851     0.767299186905    12.000000000000
         C            1.277953646089     7.664205792130     0.765188686448    12.000000000000
         C            2.485353904999     6.979043234173     0.762914198543    12.000000000000
         C            2.486124505192     5.546117159176     0.755976449555    12.000000000000
         C            1.254078739919     4.847424462600     0.767604391143    12.000000000000
         C            3.751710411681     7.655258499916     0.763041049923    12.000000000000
         C            4.923561876460     6.970127125926     0.760984569215    12.000000000000
         C            4.955603091600     5.534793812305     0.760824156408    12.000000000000
         C            3.706797354479     4.832556557269     0.765915716578    12.000000000000
         H           -3.658525317484     8.782173768071     0.766002007640     1.007825032230
         H           -1.189217509482     8.765467436296     0.769955418633     1.007825032230
         H            1.284290059161     8.752179784424     0.769347510589     1.007825032230
         H            3.753537907074     8.742381627908     0.764563574239     1.007825032230
         H            5.869954523482     7.505141183591     0.760059202173     1.007825032230
         H           -5.788235887228     7.567648561870     0.760390597101     1.007825032230
         C           -6.091978138422     4.884606362579     0.759505292868    12.000000000000
         C           -6.128665660043     3.473926517734     0.760706469897    12.000000000000
         C           -3.664583919771     3.455528528680     0.757781375280    12.000000000000
         C           -4.894302384424     2.752427124836     0.766950360265    12.000000000000
         C           -2.437339174623     2.738958006020     0.769613153816    12.000000000000
         C           -1.209232037322     3.439233283914     0.755934127024    12.000000000000
         C            1.247137392437     3.426027100365     0.755125520619    12.000000000000
         C            0.015171859844     2.724458188241     0.766809703844    12.000000000000
         C            2.467640992715     2.712636326191     0.766909761967    12.000000000000
         C            3.702545294854     3.416006503360     0.753421801125    12.000000000000
         C            6.144976206658     4.818918715067     0.759590711197    12.000000000000
         C            6.166584179136     3.407930824878     0.761757264633    12.000000000000
         C            4.924605778734     2.699754274290     0.768296010871    12.000000000000
         H            7.089901329916     5.358234115159     0.755828830347     1.007825032230
         H           -7.031045930827     5.434034301793     0.755272077917     1.007825032230
         C           -7.339702220848     2.749757883515     0.759079302456    12.000000000000
         C           -7.364886137784     1.361669720519     0.760844840583    12.000000000000
         C           -4.903508788672     1.335773161096     0.756128576391    12.000000000000
         C           -6.132261332336     0.631285705989     0.768418620374    12.000000000000
         C           -3.676878980242     0.618043491609     0.766756292791    12.000000000000
         C           -2.445660765791     1.320987482198     0.756446582590    12.000000000000
         C           -1.223604861027     0.606670850570     0.767875847121    12.000000000000
         C            0.007633689588     1.308729498173     0.766341500839    12.000000000000
         C            1.231215628021     0.593463039523     0.747514915182    12.000000000000
         C            2.460816920806     1.294638385061     0.767019424073    12.000000000000
         C            3.684426074471     0.578544777148     0.766190637796    12.000000000000
         C            4.918704721813     1.283080910125     0.753788816161    12.000000000000
         C            7.369797898236     2.670828552120     0.759996844841    12.000000000000
         C            7.380158486396     1.282563856791     0.761543527687    12.000000000000
         C            6.139795359397     0.565464972136     0.767871869498    12.000000000000
         H           -8.279194979072     3.298464390060     0.754781750334     1.007825032230
         H            8.315109291754     3.209464445559     0.755786269041     1.007825032230
         C           -8.591760117307     0.616178901980     0.761185268201    12.000000000000
         C           -8.599028783429    -0.741293457293     0.763308392783    12.000000000000
         C           -6.139817318844    -0.782790288218     0.756319051448    12.000000000000
         C           -7.380188291863    -1.499919840646     0.763735112989    12.000000000000
         C           -4.918688659982    -1.500408669094     0.768659549598    12.000000000000
         C           -3.684442475410    -0.795890966800     0.757627309533    12.000000000000
         C           -2.460821219973    -1.511998829889     0.768170395723    12.000000000000
         C           -1.231166192046    -0.810827515945     0.756050016931    12.000000000000
         C           -0.007573805113    -1.526072500475     0.763506541234    12.000000000000
         C            1.223643536163    -0.823929028328     0.773512163183    12.000000000000
         C            2.445666469606    -1.538296940071     0.761762150423    12.000000000000
         C            3.676862523121    -0.835361082620     0.757621566028    12.000000000000
         C            6.132244666694    -0.848632490914     0.756093591816    12.000000000000
         C            4.903514965779    -1.553111171605     0.769934666356    12.000000000000
         C            8.599010668965     0.523950215603     0.761405643831    12.000000000000
         C            8.591741308375    -0.833504518258     0.763142024092    12.000000000000
         C            7.364858584664    -1.578986316670     0.762911847399    12.000000000000
         H           -9.528310151544     1.168193798128     0.759715341236     1.007825032230
         H            9.541406794881     1.065918837380     0.760353611569     1.007825032230
         C           -7.369842089494    -2.888198796998     0.765543321411    12.000000000000
         C           -4.924603288776    -2.917090908405     0.757811688975    12.000000000000
         C           -6.166626675393    -3.625305843890     0.764113529134    12.000000000000
         C           -3.702514539430    -3.633335200185     0.768135758161    12.000000000000
         C           -2.467651164839    -2.929979613868     0.756091119805    12.000000000000
         C           -0.015137653833    -2.941795296464     0.756372708313    12.000000000000
         C           -1.247126020952    -3.643385826627     0.767936661722    12.000000000000
         C            1.209240889918    -3.656568329708     0.770475691513    12.000000000000
         C            2.437331842429    -2.956295389240     0.756335933202    12.000000000000
         C            4.894298164045    -2.969776619350     0.757156673273    12.000000000000
         C            3.664611075316    -3.672873496596     0.770036093214    12.000000000000
         C            6.128634835020    -3.691237708782     0.763381935171    12.000000000000
         C            7.339668484970    -2.967066958435     0.764897161253    12.000000000000
         H           -9.541453290984    -1.283217117729     0.764677808957     1.007825032230
         H            9.528257688346    -1.385572724969     0.764391831853     1.007825032230
         H           -8.315169223574    -3.426803504277     0.769715549942     1.007825032230
         H            8.279150962767    -3.515794440958     0.769236717236     1.007825032230
         C           -6.144998368428    -5.036300923848     0.765439527194    12.000000000000
         C           -3.706787527723    -5.049915365182     0.755618559106    12.000000000000
         C           -4.955594237727    -5.752147624559     0.763585693751    12.000000000000
         C           -2.486125505952    -5.763439225474     0.768558230151    12.000000000000
         C           -1.254062515205    -5.064775701066     0.757382624165    12.000000000000
         C            1.201008394143    -5.077934039257     0.758563748423    12.000000000000
         C           -0.030340854139    -5.778173954203     0.766406948087    12.000000000000
         C            3.653745921603    -5.089397426479     0.759321748171    12.000000000000
         C            2.425488516150    -5.789828286592     0.768698678723    12.000000000000
         C            6.091961438086    -5.101911614451     0.765676161845    12.000000000000
         C            4.894972264885    -5.805002072022     0.764439966015    12.000000000000
         H           -7.089896567766    -5.575653493303     0.769842288876     1.007825032230
         H            7.031051029475    -5.651312187397     0.769255941609     1.007825032230
         C           -4.923549501924    -7.187474750742     0.763030924847    12.000000000000
         C           -2.485346267963    -7.196381728994     0.760521032411    12.000000000000
         C           -3.751690071504    -7.872600808701     0.760715711336    12.000000000000
         C           -0.037953136713    -7.208118525534     0.760736757558    12.000000000000
         C           -1.277960280127    -7.881558035731     0.758752064797    12.000000000000
         C            2.409440141001    -7.222675663067     0.761599958369    12.000000000000
         C            1.194745757428    -7.894839016627     0.759447667488    12.000000000000
         C            4.847616872773    -7.239915761644     0.764106773029    12.000000000000
         C            3.668467426150    -7.912441644008     0.761758338665    12.000000000000
         H           -5.869944530142    -7.722484249106     0.764574961712     1.007825032230
         H            5.788245445663    -7.784985840379     0.765233892511     1.007825032230
         H           -3.753531119175    -8.959725220301     0.758879796907     1.007825032230
         H           -1.284308585620    -8.969529043562     0.754324680938     1.007825032230
         H            1.189217394970    -8.982814271654     0.755355030797     1.007825032230
         H            3.658542435098    -8.999514285118     0.760103797242     1.007825032230

  Charge       = 0
  Multiplicity = 1
  Basis Set: JUN-CC-PVDZ
    Blend: JUN-CC-PVDZ
  Basis Set: (JUN-CC-PVDZ AUX)
    Blend: JUN-CC-PVDZ-JKFIT

    Orbital Energies [Eh]
    ---------------------

    Doubly Occupied:

       1A    -11.264046     2A    -11.263733     3A    -11.263731
       4A    -11.263391     5A    -11.263388     6A    -11.263353
       7A    -11.263196     8A    -11.263169     9A    -11.263167
      10A    -11.263011    11A    -11.262851    12A    -11.262847
      13A    -11.262368    14A    -11.262365    15A    -11.262290
      16A    -11.262290    17A    -11.262240    18A    -11.262204
      19A    -11.262159    20A    -11.262120    21A    -11.262119
      22A    -11.261964    23A    -11.261960    24A    -11.261841
      25A    -11.261826    26A    -11.261812    27A    -11.261808
      28A    -11.261761    29A    -11.261753    30A    -11.261681
      31A    -11.261654    32A    -11.261651    33A    -11.261625
      34A    -11.261624    35A    -11.261603    36A    -11.261556
      37A    -11.261416    38A    -11.261404    39A    -11.261398
      40A    -11.261391    41A    -11.261386    42A    -11.261377
      43A    -11.261374    44A    -11.261359    45A    -11.261354
      46A    -11.261332    47A    -11.261328    48A    -11.261323
      49A    -11.261171    50A    -11.261141    51A    -11.261138
      52A    -11.261058    53A    -11.261057    54A    -11.260986
      55A    -11.260016    56A    -11.260003    57A    -11.260000
      58A    -11.259972    59A    -11.259969    60A    -11.259954
      61A    -11.259394    62A    -11.259369    63A    -11.259366
      64A    -11.259315    65A    -11.259312    66A    -11.259283
      67A    -11.259020    68A    -11.259003    69A    -11.259001
      70A    -11.258974    71A    -11.258971    72A    -11.258960
      73A    -11.254590    74A    -11.254588    75A    -11.254587
      76A    -11.254584    77A    -11.254578    78A    -11.254576
      79A    -11.253740    80A    -11.253738    81A    -11.253736
      82A    -11.253734    83A    -11.253732    84A    -11.253727
      85A    -11.253656    86A    -11.253654    87A    -11.253651
      88A    -11.253650    89A    -11.253648    90A    -11.253642
      91A    -11.253118    92A    -11.253116    93A    -11.253115
      94A    -11.253112    95A    -11.253106    96A    -11.253104
      97A     -1.254135    98A     -1.239140    99A     -1.239139
     100A     -1.220583   101A     -1.220578   102A     -1.215611
     103A     -1.201144   104A     -1.195714   105A     -1.188300
     106A     -1.188299   107A     -1.173864   108A     -1.173861
     109A     -1.155773   110A     -1.155769   111A     -1.152880
     112A     -1.144818   113A     -1.144815   114A     -1.128696
     115A     -1.114855   116A     -1.113260   117A     -1.112641
     118A     -1.112626   119A     -1.111708   120A     -1.088558
     121A     -1.088543   122A     -1.077056   123A     -1.077055
     124A     -1.067752   125A     -1.067722   126A     -1.065123
     127A     -1.046917   128A     -1.046910   129A     -1.040606
     130A     -1.038829   131A     -1.038828   132A     -1.025391
     133A     -1.021563   134A     -1.021513   135A     -1.007289
     136A     -1.006932   137A     -1.003908   138A     -1.000633
     139A     -1.000585   140A     -0.991164   141A     -0.971122
     142A     -0.971073   143A     -0.955989   144A     -0.955934
     145A     -0.905760   146A     -0.905719   147A     -0.905636
     148A     -0.905596   149A     -0.904517   150A     -0.892531
     151A     -0.892472   152A     -0.890517   153A     -0.890460
     154A     -0.889590   155A     -0.872318   156A     -0.869133
     157A     -0.851647   158A     -0.848012   159A     -0.847990
     160A     -0.845748   161A     -0.843151   162A     -0.834682
     163A     -0.834669   164A     -0.828211   165A     -0.828207
     166A     -0.784672   167A     -0.784661   168A     -0.783800
     169A     -0.783774   170A     -0.782418   171A     -0.782398
     172A     -0.782182   173A     -0.767105   174A     -0.760953
     175A     -0.750730   176A     -0.733584   177A     -0.727188
     178A     -0.727174   179A     -0.725213   180A     -0.724655
     181A     -0.724636   182A     -0.718659   183A     -0.713920
     184A     -0.713914   185A     -0.699692   186A     -0.699680
     187A     -0.686291   188A     -0.686057   189A     -0.686054
     190A     -0.682279   191A     -0.682269   192A     -0.678916
     193A     -0.653745   194A     -0.650993   195A     -0.650963
     196A     -0.649968   197A     -0.649952   198A     -0.649665
     199A     -0.641087   200A     -0.641060   201A     -0.640189
     202A     -0.639254   203A     -0.636160   204A     -0.636133
     205A     -0.629259   206A     -0.617828   207A     -0.615399
     208A     -0.615379   209A     -0.608911   210A     -0.608904
     211A     -0.599186   212A     -0.599148   213A     -0.598869
     214A     -0.598742   215A     -0.598716   216A     -0.598197
     217A     -0.595166   218A     -0.595153   219A     -0.594838
     220A     -0.594400   221A     -0.592086   222A     -0.592083
     223A     -0.587556   224A     -0.577873   225A     -0.577863
     226A     -0.575731   227A     -0.575727   228A     -0.573486
     229A     -0.569562   230A     -0.568295   231A     -0.568271
     232A     -0.566875   233A     -0.566865   234A     -0.560993
     235A     -0.558853   236A     -0.558834   237A     -0.558509
     238A     -0.554486   239A     -0.550626   240A     -0.547552
     241A     -0.544336   242A     -0.535033   243A     -0.534995
     244A     -0.533650   245A     -0.533627   246A     -0.528176
     247A     -0.528161   248A     -0.527953   249A     -0.517315
     250A     -0.517281   251A     -0.515421   252A     -0.515416
     253A     -0.509738   254A     -0.509723   255A     -0.498133
     256A     -0.496565   257A     -0.496539   258A     -0.493839
     259A     -0.493829   260A     -0.489472   261A     -0.481547
     262A     -0.477483   263A     -0.477480   264A     -0.474099
     265A     -0.469566   266A     -0.466645   267A     -0.466640
     268A     -0.458872   269A     -0.446856   270A     -0.446795
     271A     -0.441096   272A     -0.440820   273A     -0.440797
     274A     -0.434751   275A     -0.433968   276A     -0.407444
     277A     -0.407420   278A     -0.386480   279A     -0.386432
     280A     -0.385793   281A     -0.385792   282A     -0.383825
     283A     -0.354395   284A     -0.354378   285A     -0.350732
     286A     -0.338162   287A     -0.335662   288A     -0.335593
     289A     -0.332775   290A     -0.332769   291A     -0.307158
     292A     -0.302021   293A     -0.301958   294A     -0.300908
     295A     -0.286237   296A     -0.256523   297A     -0.253572
     298A     -0.253519   299A     -0.204330   300A     -0.204241

  @DF-RHF Final Energy: -3650.33781061519494

   => Energetics <=

    Nuclear Repulsion Energy =          15611.4211649754306563
    One-Electron Energy =              -36072.0811860798348789
    Two-Electron Energy =               16810.3222104892120115
    Total Energy =                      -3650.3378106151940301
 Dipole X            :         -0.0011005            0.0002112           -0.0008893
 Dipole Y            :        123.2128897         -123.2131634           -0.0002737
 Dipole Z            :       -864.4592010          864.4589611           -0.0002399
 Magnitude           :                                                    0.0009609

    SAPT Results
  --------------------------------------------------------------------------------------------------------
    Electrostatics                 -5.26061533 [mEh]      -3.30108595 [kcal/mol]     -13.81174363 [kJ/mol]
      Elst10,r                     -5.26061533 [mEh]      -3.30108595 [kcal/mol]     -13.81174363 [kJ/mol]

    Exchange                       -0.00002254 [mEh]      -0.00001414 [kcal/mol]      -0.00005917 [kJ/mol]
      Exch10                       -0.00002254 [mEh]      -0.00001414 [kcal/mol]      -0.00005917 [kJ/mol]
      Exch10(S^2)                  -0.00002254 [mEh]      -0.00001414 [kcal/mol]      -0.00005917 [kJ/mol]

    Induction                      -1.15976495 [mEh]      -0.72776349 [kcal/mol]      -3.04496245 [kJ/mol]
      Ind20,r                      -1.15170778 [mEh]      -0.72270754 [kcal/mol]      -3.02380837 [kJ/mol]
      Exch-Ind20,r                  0.00000763 [mEh]       0.00000479 [kcal/mol]       0.00002004 [kJ/mol]
      delta HF,r (2)               -0.00806480 [mEh]      -0.00506074 [kcal/mol]      -0.02117413 [kJ/mol]

    Dispersion                     -0.32059407 [mEh]      -0.20117581 [kcal/mol]      -0.84171961 [kJ/mol]
      Disp20                       -0.32059769 [mEh]      -0.20117809 [kcal/mol]      -0.84172911 [kJ/mol]
      Exch-Disp20                   0.00000362 [mEh]       0.00000227 [kcal/mol]       0.00000950 [kJ/mol]
      Disp20 (SS)                  -0.16029884 [mEh]      -0.10058904 [kcal/mol]      -0.42086456 [kJ/mol]
      Disp20 (OS)                  -0.16029884 [mEh]      -0.10058904 [kcal/mol]      -0.42086456 [kJ/mol]
      Exch-Disp20 (SS)              0.00000270 [mEh]       0.00000169 [kcal/mol]       0.00000709 [kJ/mol]
      Exch-Disp20 (OS)              0.00000092 [mEh]       0.00000058 [kcal/mol]       0.00000241 [kJ/mol]

  Total HF                         -6.42040281 [mEh]      -4.02886359 [kcal/mol]     -16.85676525 [kJ/mol]
  Total SAPT0                      -6.74099688 [mEh]      -4.23003940 [kcal/mol]     -17.69848486 [kJ/mol]

  Special recipe for scaled SAPT0 (see Manual):
    Electrostatics sSAPT0          -5.26061533 [mEh]      -3.30108595 [kcal/mol]     -13.81174363 [kJ/mol]
    Exchange sSAPT0                -0.00002254 [mEh]      -0.00001414 [kcal/mol]      -0.00005917 [kJ/mol]
    Induction sSAPT0               -1.15976495 [mEh]      -0.72776349 [kcal/mol]      -3.04496245 [kJ/mol]
    Dispersion sSAPT0              -0.32059407 [mEh]      -0.20117581 [kcal/mol]      -0.84171961 [kJ/mol]
  Total sSAPT0                     -6.74099688 [mEh]      -4.23003940 [kcal/mol]     -17.69848486 [kJ/mol]
  --------------------------------------------------------------------------------------------------------

*** Psi4 exiting successfully. Buy a developer a beer!
