                               Psi4 1.9 release

  ==> Input File <==

--------------------------------------------------------------------------
memory 32 GB # how much memory is available ! Depends on the nodes/cores !

molecule dimer {
# monomer A
+1 1    # Charge and multiplicity
C  0.680067 -1.215929 5.008042
C -0.680504 -1.215545 5.006014
N -1.085635  0.102779 5.005016
C  0.000108  0.884180 5.001740
C -2.477365  0.570758 4.955610
N  1.085222  0.102779 5.005016
H  1.385146 -2.033368 5.015870
H -1.385302 -2.033214 5.006204
H -0.000009  1.965269 4.999993
C  2.478117  0.567877 5.021908
H  2.490592  1.658130 4.994563
H  2.967028  0.220701 5.935354
H  3.001428  0.176405 4.146425
H -2.857359  0.490799 3.933539
H -3.082679 -0.042306 5.625694
H -2.518128  1.610706 5.282594
--
# monomer B
0 1     # Charge and multiplicity
C   1.22531237526482      0.70753866091955      0.00613762728373
C   1.22532433589282     -0.70753852257020     -0.00619318228664
C   -0.00000567409046      1.41496628609039     -0.00672680580738
C   2.45644923379077      1.41832825917820      0.00902448468363
C   0.00001130712078     -1.41497612663474      0.00347275151708
C   -1.22530046906674      0.70754574598412      0.00838914760619
C   2.45643823516184     -1.41832293188077     -0.00843833914343
C   -0.00000085313587      2.83680140328112     -0.00913035594137
C   3.68182717731192      0.70931832800114     -0.00808954934571
C   2.45512052870677      2.83422403348893     -0.00819210630633
C   3.68182158506039     -0.70933346742900      0.00798293467272
C   -1.22531311884624     -0.70752714354401     -0.00512042085974
C   1.22670006104402      3.54346985599427      0.00816696660346
C   0.00000526469929     -2.83678176723568      0.00832091913869
C   -2.45643555300670      1.41831729028492      0.00842454345199
C   2.45512389762097     -2.83422965658853      0.00783102630520
C   -1.22671388474763      3.54346943575023      0.00827029982280
C   4.91451777504333      1.42717324448953     -0.00160886631602
C   3.69315067131765      3.54279566454522     -0.00155906667985
C   -2.45643712022637     -1.41831290883911     -0.00846337726810
C   1.22670532178455     -3.54347386990643     -0.00780316414624
C   -2.45512491866593      2.83421703463423     -0.00818572995999
C   4.91452486062398     -1.42718653794377      0.00136387641845
C   1.22142509354026      4.97013443726031      0.00150231067809
C   4.89300870916237      2.82518837202648     -0.00039219795739
C   -1.22669652864725     -3.54347062507680     -0.00753595973677
C   -3.68181849668397      0.70932533873199     -0.00807686886569
C   3.69314758099218     -3.54280096939050      0.00148176697923
C   -1.22143177215231      4.97012866986289      0.00168580605083
C   6.13477145276790      0.68054831910577     -0.00083909176631
C   3.65678936045204      4.97295361556775     -0.00065042889723
C   -2.45512642789169     -2.83421472106065      0.00758666850712
C   -3.68181869921921     -0.70932533146830      0.00810055625144
C   4.89301309775526     -2.82519973363176      0.00021895393805
C   -0.00000059327114      5.65044773803267      0.00045449734393
C   6.13477559217374     -0.68055448207492      0.00042622874941
C   2.47813196269732      5.65357712333155      0.00063835075260
C   1.22142288457925     -4.97012668293268     -0.00129718634452
C   -3.69316190412301      3.54279732619245     -0.00139355922051
C   -1.22142804110313     -4.97011793159564     -0.00140994817719
C   -4.91452132810043      1.42717581899491     -0.00153192130862
C   3.65678749952045     -4.97295485423912      0.00080007163680
C   -2.47813805026426      5.65357479452875      0.00092287576113
C   -3.69314125872231     -3.54278984697859      0.00136564082345
C   -4.91451200321153     -1.42718062802730      0.00139857359209
C   -0.00000552908399     -5.65043791501335      0.00005899322272
C   -4.89302000425900      2.82518897091939     -0.00040227981744
C   2.47812647313991     -5.65357317188818     -0.00029052915548
C   -3.65679823041642      4.97295655404175     -0.00047374852278
C   -4.89299899901461     -2.82519139505969      0.00006491824035
C   -2.47812801824129     -5.65356579800621     -0.00056571680280
C   -6.13477002348955      0.68054913825639     -0.00086464346868
C   -3.65678835334731     -4.97294365097028      0.00058578382008
C   -6.13476456307132     -0.68055354348201      0.00040575295444
H   5.83528897565761      3.36927626695423      0.00396712770529
H   7.07385965258860      1.22821762089947     -0.00037744837300
H   4.60066374401555      5.51238117445323     -0.00014522814529
H   5.83528386714679     -3.36930568472863     -0.00423551337640
H   -0.00001167146422      6.73853104613662     -0.00389474766392
H   7.07386165167227     -1.22822657074368     -0.00008250934481
H   2.47331421164041      6.74068466339473      0.00017162982210
H   4.60066897122302     -5.51237575717576      0.00039007446835
H   -2.47331820069565      6.74068209160650      0.00047297644710
H   -0.00000978838621     -6.73852780445195      0.00458867820736
H   -5.83530143450167      3.36927132229595      0.00410314985360
H   2.47330840367253     -6.74068500242887      0.00027980126949
H   -4.60067436136587      5.51237839860371      0.00002010017831
H   -5.83527902699321     -3.36928859177951     -0.00451481925734
H   -2.47329986759855     -6.74067870613986     -0.00016951527498
H   -7.07385728692578      1.22822084484047     -0.00046143985387
H   -4.60067330624313     -5.51236229778631      0.00021776644566
H   -7.07385645456741     -1.22822025997701     -0.00017736581114

    units angstrom      # Angstroms are the default
    no_reorient         # Geometry fixed, default
    symmetry c1         # C1 symmetry, default
}

set {
    scf_type DF         # Density fitting, faster than exact integrals
    freeze_core True    # Freeze core electrons
    basis jun-cc-pVDZ   # Jun-cc-pVDZ basis set, recommended for sSAPT0 in https://doi.org/10.1063/1.4867135
}

energy('ssapt0')        # Compute sSAPT0 energy, includes also SAPT0
--------------------------------------------------------------------------

  //              Dimer HF             //
    Molecular point group: c1
  Charge       = 1
  Multiplicity = 1
  Basis Set: JUN-CC-PVDZ
    Blend: JUN-CC-PVDZ
  Basis Set: (JUN-CC-PVDZ AUX)
    Blend: JUN-CC-PVDZ-JKFIT
  @DF-RHF Final Energy: -2359.20689913764636
    Total Energy =                      -2359.2068991376454505
 Dipole X            :          0.0037674            0.0006313            0.0043987
 Dipole Y            :         -1.5541046            1.8864948            0.3323903
 Dipole Z            :        -18.9336364           26.0074687            7.0738323
 Magnitude           :                                                    7.0816386
  //            Monomer A HF           //
    Molecular point group: c1
  Multiplicity = 1
  Basis Set: JUN-CC-PVDZ
    Blend: JUN-CC-PVDZ
  Basis Set: (JUN-CC-PVDZ AUX)
    Blend: JUN-CC-PVDZ-JKFIT
  @DF-RHF Final Energy:  -303.29780623975086
    Total Energy =                       -303.2978062397508552
  //            Monomer B HF           //
    Molecular point group: c1

    Geometry (in Angstrom), charge = 0, multiplicity = 1:

       Center              X                  Y                   Z               Mass
    ------------   -----------------  -----------------  -----------------  -----------------
      Gh(C)           0.680066520158    -1.215933861162     4.372074859057    12.000000000000
      Gh(C)          -0.680504479842    -1.215549861162     4.370046859057    12.000000000000
      Gh(N)          -1.085635479842     0.102774138838     4.369048859057    14.003074004430
      Gh(C)           0.000107520158     0.884175138838     4.365772859057    12.000000000000
      Gh(C)          -2.477365479842     0.570753138838     4.319642859057    12.000000000000
      Gh(N)           1.085221520158     0.102774138838     4.369048859057    14.003074004430
      Gh(H)           1.385145520158    -2.033372861162     4.379902859057     1.007825032230
      Gh(H)          -1.385302479842    -2.033218861162     4.370236859057     1.007825032230
      Gh(H)          -0.000009479842     1.965264138838     4.364025859057     1.007825032230
      Gh(C)           2.478116520158     0.567872138838     4.385940859057    12.000000000000
      Gh(H)           2.490591520158     1.658125138838     4.358595859057     1.007825032230
      Gh(H)           2.967027520158     0.220696138838     5.299386859057     1.007825032230
      Gh(H)           3.001427520158     0.176400138838     3.510457859057     1.007825032230
      Gh(H)          -2.857359479842     0.490794138838     3.297571859057     1.007825032230
      Gh(H)          -3.082679479842    -0.042310861162     4.989726859057     1.007825032230
      Gh(H)          -2.518128479842     1.610701138838     4.646626859057     1.007825032230
         C            1.225311895423     0.707533799757    -0.629829513660    12.000000000000
         C            1.225323856051    -0.707543383733    -0.642160323230    12.000000000000
         C           -0.000006153932     1.414961424928    -0.642693946751    12.000000000000
         C            2.456448753949     1.418323398016    -0.626942656260    12.000000000000
         C            0.000010827279    -1.414980987797    -0.632494389426    12.000000000000
         C           -1.225300948908     0.707540884822    -0.627577993337    12.000000000000
         C            2.456437755320    -1.418327793043    -0.644405480087    12.000000000000
         C           -0.000001332978     2.836796542119    -0.645097496885    12.000000000000
         C            3.681826697470     0.709313466839    -0.644056690289    12.000000000000
         C            2.455120048865     2.834219172327    -0.644159247250    12.000000000000
         C            3.681821105219    -0.709338328591    -0.627984206271    12.000000000000
         C           -1.225313598688    -0.707532004706    -0.641087561803    12.000000000000
         C            1.226699581202     3.543464994832    -0.627800174340    12.000000000000
         C            0.000004784858    -2.836786628398    -0.627646221805    12.000000000000
         C           -2.456436032848     1.418312429123    -0.627542597491    12.000000000000
         C            2.455123417779    -2.834234517751    -0.628136114638    12.000000000000
         C           -1.226714364589     3.543464574588    -0.627696841121    12.000000000000
         C            4.914517295202     1.427168383327    -0.637576007259    12.000000000000
         C            3.693150191476     3.542790803383    -0.637526207623    12.000000000000
         C           -2.456437600068    -1.418317770001    -0.644430518212    12.000000000000
         C            1.226704841943    -3.543478731069    -0.643770305090    12.000000000000
         C           -2.455125398508     2.834212173472    -0.644152870903    12.000000000000
         C            4.914524380782    -1.427191399106    -0.634603264525    12.000000000000
         C            1.221424613699     4.970129576098    -0.634464830265    12.000000000000
         C            4.893008229321     2.825183510864    -0.636359338901    12.000000000000
         C           -1.226697008489    -3.543475486239    -0.643503100680    12.000000000000
         C           -3.681818976526     0.709320477570    -0.644044009809    12.000000000000
         C            3.693147101150    -3.542805830553    -0.634485373964    12.000000000000
         C           -1.221432251994     4.970123808701    -0.634281334893    12.000000000000
         C            6.134770972926     0.680543457943    -0.636806232710    12.000000000000
         C            3.656788880610     4.972948754405    -0.636617569841    12.000000000000
         C           -2.455126907733    -2.834219582223    -0.628380472436    12.000000000000
         C           -3.681819179061    -0.709330192631    -0.627866584692    12.000000000000
         C            4.893012617914    -2.825204594794    -0.635748187005    12.000000000000
         C           -0.000001073113     5.650442876870    -0.635512643600    12.000000000000
         C            6.134775112332    -0.680559343237    -0.635540912194    12.000000000000
         C            2.478131482856     5.653572262169    -0.635328790191    12.000000000000
         C            1.221422404738    -4.970131544095    -0.637264327288    12.000000000000
         C           -3.693162383965     3.542792465030    -0.637360700164    12.000000000000
         C           -1.221428520945    -4.970122792758    -0.637377089121    12.000000000000
         C           -4.914521807942     1.427170957833    -0.637499062252    12.000000000000
         C            3.656787019679    -4.972959715401    -0.635167069307    12.000000000000
         C           -2.478138530106     5.653569933366    -0.635044265182    12.000000000000
         C           -3.693141738564    -3.542794708141    -0.634601500120    12.000000000000
         C           -4.914512483053    -1.427185489190    -0.634568567351    12.000000000000
         C           -0.000006008926    -5.650442776176    -0.635908147721    12.000000000000
         C           -4.893020484101     2.825184109757    -0.636369420761    12.000000000000
         C            2.478125993298    -5.653578033051    -0.636257670099    12.000000000000
         C           -3.656798710258     4.972951692879    -0.636440889466    12.000000000000
         C           -4.892999478856    -2.825196256222    -0.635902222703    12.000000000000
         C           -2.478128498083    -5.653570659169    -0.636532857746    12.000000000000
         C           -6.134770503331     0.680544277094    -0.636831784412    12.000000000000
         C           -3.656788833189    -4.972948512133    -0.635381357123    12.000000000000
         C           -6.134765042913    -0.680558404644    -0.635561387989    12.000000000000
         H            5.835288495816     3.369271405792    -0.632000013238     1.007825032230
         H            7.073859172747     1.228212759737    -0.636344589316     1.007825032230
         H            4.600663264174     5.512376313291    -0.636112369089     1.007825032230
         H            5.835283387305    -3.369310545891    -0.640202654320     1.007825032230
         H           -0.000012151306     6.738526184974    -0.639861888607     1.007825032230
         H            7.073861171831    -1.228231431906    -0.636049650288     1.007825032230
         H            2.473313731799     6.740679802232    -0.635795511121     1.007825032230
         H            4.600668491381    -5.512380618338    -0.635577066475     1.007825032230
         H           -2.473318680537     6.740677230444    -0.635494164496     1.007825032230
         H           -0.000010268228    -6.738532665614    -0.631378462736     1.007825032230
         H           -5.835301914343     3.369266461134    -0.631863991090     1.007825032230
         H            2.473307923831    -6.740689863591    -0.635687339674     1.007825032230
         H           -4.600674841208     5.512373537441    -0.635947040765     1.007825032230
         H           -5.835279506835    -3.369293452942    -0.640481960201     1.007825032230
         H           -2.473300347440    -6.740683567302    -0.636136656218     1.007825032230
         H           -7.073857766768     1.228215983678    -0.636428580797     1.007825032230
         H           -4.600673786085    -5.512367158949    -0.635749374498     1.007825032230
         H           -7.073856934409    -1.228225121139    -0.636144506755     1.007825032230

  Charge       = 0
  Multiplicity = 1
  Basis Set: JUN-CC-PVDZ
    Blend: JUN-CC-PVDZ
  Basis Set: (JUN-CC-PVDZ AUX)
    Blend: JUN-CC-PVDZ-JKFIT

    Orbital Energies [Eh]
    ---------------------

    Doubly Occupied:

       1A    -11.260560     2A    -11.260121     3A    -11.260109
       4A    -11.259401     5A    -11.259394     6A    -11.259223
       7A    -11.259008     8A    -11.258933     9A    -11.258927
      10A    -11.258599    11A    -11.258598    12A    -11.258518
      13A    -11.258457    14A    -11.258452    15A    -11.258447
      16A    -11.258419    17A    -11.258411    18A    -11.258394
      19A    -11.258389    20A    -11.258378    21A    -11.258374
      22A    -11.258288    23A    -11.258287    24A    -11.258001
      25A    -11.257320    26A    -11.257263    27A    -11.257253
      28A    -11.257129    29A    -11.257118    30A    -11.257040
      31A    -11.256417    32A    -11.256353    33A    -11.256338
      34A    -11.256243    35A    -11.256229    36A    -11.256188
      37A    -11.252274    38A    -11.252272    39A    -11.252269
      40A    -11.252268    41A    -11.252265    42A    -11.252259
      43A    -11.251382    44A    -11.251379    45A    -11.251376
      46A    -11.251371    47A    -11.251369    48A    -11.251364
      49A    -11.250836    50A    -11.250833    51A    -11.250831
      52A    -11.250829    53A    -11.250826    54A    -11.250820
      55A     -1.244024    56A     -1.219787    57A     -1.219774
      58A     -1.189514    59A     -1.189504    60A     -1.180914
      61A     -1.157534    62A     -1.148951    63A     -1.135469
      64A     -1.135451    65A     -1.113169    66A     -1.113165
      67A     -1.082399    68A     -1.082391    69A     -1.078570
      70A     -1.065960    71A     -1.065953    72A     -1.039367
      73A     -1.024236    74A     -1.021737    75A     -1.021685
      76A     -1.017702    77A     -1.012774    78A     -0.986988
      79A     -0.986941    80A     -0.961855    81A     -0.961804
      82A     -0.894263    83A     -0.894235    84A     -0.887891
      85A     -0.886144    86A     -0.886093    87A     -0.881357
      88A     -0.881309    89A     -0.861870    90A     -0.837390
      91A     -0.818174    92A     -0.816576    93A     -0.812096
      94A     -0.812093    95A     -0.794665    96A     -0.794651
      97A     -0.746575    98A     -0.744821    99A     -0.733377
     100A     -0.733374   101A     -0.732154   102A     -0.732128
     103A     -0.716462   104A     -0.698947   105A     -0.698927
     106A     -0.693555   107A     -0.693529   108A     -0.661203
     109A     -0.653080   110A     -0.651117   111A     -0.650228
     112A     -0.650224   113A     -0.639331   114A     -0.639320
     115A     -0.629678   116A     -0.627484   117A     -0.627471
     118A     -0.606473   119A     -0.605794   120A     -0.601619
     121A     -0.599708   122A     -0.599664   123A     -0.593594
     124A     -0.591180   125A     -0.591159   126A     -0.585257
     127A     -0.576433   128A     -0.576389   129A     -0.567299
     130A     -0.567285   131A     -0.565921   132A     -0.565906
     133A     -0.558687   134A     -0.554821   135A     -0.554815
     136A     -0.538565   137A     -0.538563   138A     -0.538223
     139A     -0.538211   140A     -0.529680   141A     -0.528162
     142A     -0.522844   143A     -0.522827   144A     -0.500475
     145A     -0.495610   146A     -0.493203   147A     -0.487825
     148A     -0.485029   149A     -0.481718   150A     -0.481712
     151A     -0.470343   152A     -0.470328   153A     -0.450973
     154A     -0.450900   155A     -0.439063   156A     -0.439056
     157A     -0.404753   158A     -0.404719   159A     -0.403369
     160A     -0.375417   161A     -0.375411   162A     -0.349123
     163A     -0.337572   164A     -0.336530   165A     -0.336511
     166A     -0.311086   167A     -0.298089   168A     -0.284330
     169A     -0.284281   170A     -0.224902   171A     -0.224841

  @DF-RHF Final Energy: -2055.89380557200138

   => Energetics <=

    Nuclear Repulsion Energy =           6452.5568002797772351
    One-Electron Energy =              -15636.4910397772055148
    Two-Electron Energy =                7128.0404339254273509
    Total Energy =                      -2055.8938055720009288
 Dipole X            :         -0.0001502           -0.0000085           -0.0001587
 Dipole Y            :          0.0031495           -0.0028843            0.0002653
 Dipole Z            :        411.0077675         -411.0183156           -0.0105481
 Magnitude           :                                                    0.0105526

    SAPT Results
  --------------------------------------------------------------------------------------------------------
    Electrostatics                -10.63427312 [mEh]      -6.67310713 [kcal/mol]     -27.92028024 [kJ/mol]
      Elst10,r                    -10.63427312 [mEh]      -6.67310713 [kcal/mol]     -27.92028024 [kJ/mol]

    Exchange                        0.11558104 [mEh]       0.07252820 [kcal/mol]       0.30345797 [kJ/mol]
      Exch10                        0.11558104 [mEh]       0.07252820 [kcal/mol]       0.30345797 [kJ/mol]
      Exch10(S^2)                   0.11557974 [mEh]       0.07252738 [kcal/mol]       0.30345456 [kJ/mol]

    Induction                      -4.76863381 [mEh]      -2.99236289 [kcal/mol]     -12.52004634 [kJ/mol]
      Ind20,r                      -4.62557302 [mEh]      -2.90259089 [kcal/mol]     -12.14444029 [kJ/mol]
      Exch-Ind20,r                  0.02360088 [mEh]       0.01480978 [kcal/mol]       0.06196411 [kJ/mol]
      delta HF,r (2)               -0.16666167 [mEh]      -0.10458178 [kcal/mol]      -0.43757016 [kJ/mol]

    Dispersion                     -6.08006142 [mEh]      -3.81529614 [kcal/mol]     -15.96319907 [kJ/mol]
      Disp20                       -6.10445068 [mEh]      -3.83060063 [kcal/mol]     -16.02723304 [kJ/mol]
      Exch-Disp20                   0.02438925 [mEh]       0.01530449 [kcal/mol]       0.06403397 [kJ/mol]
      Disp20 (SS)                  -3.05222534 [mEh]      -1.91530032 [kcal/mol]      -8.01361652 [kJ/mol]
      Disp20 (OS)                  -3.05222534 [mEh]      -1.91530032 [kcal/mol]      -8.01361652 [kJ/mol]
      Exch-Disp20 (SS)              0.01644395 [mEh]       0.01031874 [kcal/mol]       0.04317359 [kJ/mol]
      Exch-Disp20 (OS)              0.00794530 [mEh]       0.00498575 [kcal/mol]       0.02086038 [kJ/mol]

  Total HF                        -15.28732589 [mEh]      -9.59294183 [kcal/mol]     -40.13686860 [kJ/mol]
  Total SAPT0                     -21.36738732 [mEh]     -13.40823797 [kcal/mol]     -56.10006767 [kJ/mol]

  Special recipe for scaled SAPT0 (see Manual):
    Electrostatics sSAPT0         -10.63427312 [mEh]      -6.67310713 [kcal/mol]     -27.92028024 [kJ/mol]
    Exchange sSAPT0                 0.11558104 [mEh]       0.07252820 [kcal/mol]       0.30345797 [kJ/mol]
    Induction sSAPT0               -4.76863301 [mEh]      -2.99236239 [kcal/mol]     -12.52004425 [kJ/mol]
    Dispersion sSAPT0              -6.08006060 [mEh]      -3.81529563 [kcal/mol]     -15.96319691 [kJ/mol]
  Total sSAPT0                    -21.36738570 [mEh]     -13.40823696 [kcal/mol]     -56.10006343 [kJ/mol]
  --------------------------------------------------------------------------------------------------------

*** Psi4 exiting successfully. Buy a developer a beer!
