                               Psi4 1.9 release

  ==> Input File <==

--------------------------------------------------------------------------
memory 32 GB # how much memory is available ! Depends on the nodes/cores !

molecule dimer {
# monomer A
+1 1    # Charge and multiplicity
C  0.680067 -0.008042  -9.215929
C -0.680504 -0.006014  -9.215545
N -1.085635 -0.005016  -7.897221
C  0.000108 -0.001740  -7.115820
C -2.477365  0.044390  -7.429242
N  1.085222 -0.005016  -7.897221
H  1.385146 -0.015870 -10.033368
H -1.385302 -0.006204 -10.033214
H -0.000009  0.000007  -6.034731
C  2.478117 -0.021908  -7.432123
H  2.490592  0.005437  -6.341870
H  2.967028 -0.935354  -7.779299
H  3.001428  0.853575  -7.823595
H -2.857359  1.066461  -7.509201
H -3.082679 -0.625694  -8.042306
H -2.518128 -0.282594  -6.389294
--
# monomer B
0 1     # Charge and multiplicity
C   1.22531237526482      0.70753866091955      0.00613762728373
C   1.22532433589282     -0.70753852257020     -0.00619318228664
C   -0.00000567409046      1.41496628609039     -0.00672680580738
C   2.45644923379077      1.41832825917820      0.00902448468363
C   0.00001130712078     -1.41497612663474      0.00347275151708
C   -1.22530046906674      0.70754574598412      0.00838914760619
C   2.45643823516184     -1.41832293188077     -0.00843833914343
C   -0.00000085313587      2.83680140328112     -0.00913035594137
C   3.68182717731192      0.70931832800114     -0.00808954934571
C   2.45512052870677      2.83422403348893     -0.00819210630633
C   3.68182158506039     -0.70933346742900      0.00798293467272
C   -1.22531311884624     -0.70752714354401     -0.00512042085974
C   1.22670006104402      3.54346985599427      0.00816696660346
C   0.00000526469929     -2.83678176723568      0.00832091913869
C   -2.45643555300670      1.41831729028492      0.00842454345199
C   2.45512389762097     -2.83422965658853      0.00783102630520
C   -1.22671388474763      3.54346943575023      0.00827029982280
C   4.91451777504333      1.42717324448953     -0.00160886631602
C   3.69315067131765      3.54279566454522     -0.00155906667985
C   -2.45643712022637     -1.41831290883911     -0.00846337726810
C   1.22670532178455     -3.54347386990643     -0.00780316414624
C   -2.45512491866593      2.83421703463423     -0.00818572995999
C   4.91452486062398     -1.42718653794377      0.00136387641845
C   1.22142509354026      4.97013443726031      0.00150231067809
C   4.89300870916237      2.82518837202648     -0.00039219795739
C   -1.22669652864725     -3.54347062507680     -0.00753595973677
C   -3.68181849668397      0.70932533873199     -0.00807686886569
C   3.69314758099218     -3.54280096939050      0.00148176697923
C   -1.22143177215231      4.97012866986289      0.00168580605083
C   6.13477145276790      0.68054831910577     -0.00083909176631
C   3.65678936045204      4.97295361556775     -0.00065042889723
C   -2.45512642789169     -2.83421472106065      0.00758666850712
C   -3.68181869921921     -0.70932533146830      0.00810055625144
C   4.89301309775526     -2.82519973363176      0.00021895393805
C   -0.00000059327114      5.65044773803267      0.00045449734393
C   6.13477559217374     -0.68055448207492      0.00042622874941
C   2.47813196269732      5.65357712333155      0.00063835075260
C   1.22142288457925     -4.97012668293268     -0.00129718634452
C   -3.69316190412301      3.54279732619245     -0.00139355922051
C   -1.22142804110313     -4.97011793159564     -0.00140994817719
C   -4.91452132810043      1.42717581899491     -0.00153192130862
C   3.65678749952045     -4.97295485423912      0.00080007163680
C   -2.47813805026426      5.65357479452875      0.00092287576113
C   -3.69314125872231     -3.54278984697859      0.00136564082345
C   -4.91451200321153     -1.42718062802730      0.00139857359209
C   -0.00000552908399     -5.65043791501335      0.00005899322272
C   -4.89302000425900      2.82518897091939     -0.00040227981744
C   2.47812647313991     -5.65357317188818     -0.00029052915548
C   -3.65679823041642      4.97295655404175     -0.00047374852278
C   -4.89299899901461     -2.82519139505969      0.00006491824035
C   -2.47812801824129     -5.65356579800621     -0.00056571680280
C   -6.13477002348955      0.68054913825639     -0.00086464346868
C   -3.65678835334731     -4.97294365097028      0.00058578382008
C   -6.13476456307132     -0.68055354348201      0.00040575295444
H   5.83528897565761      3.36927626695423      0.00396712770529
H   7.07385965258860      1.22821762089947     -0.00037744837300
H   4.60066374401555      5.51238117445323     -0.00014522814529
H   5.83528386714679     -3.36930568472863     -0.00423551337640
H   -0.00001167146422      6.73853104613662     -0.00389474766392
H   7.07386165167227     -1.22822657074368     -0.00008250934481
H   2.47331421164041      6.74068466339473      0.00017162982210
H   4.60066897122302     -5.51237575717576      0.00039007446835
H   -2.47331820069565      6.74068209160650      0.00047297644710
H   -0.00000978838621     -6.73852780445195      0.00458867820736
H   -5.83530143450167      3.36927132229595      0.00410314985360
H   2.47330840367253     -6.74068500242887      0.00027980126949
H   -4.60067436136587      5.51237839860371      0.00002010017831
H   -5.83527902699321     -3.36928859177951     -0.00451481925734
H   -2.47329986759855     -6.74067870613986     -0.00016951527498
H   -7.07385728692578      1.22822084484047     -0.00046143985387
H   -4.60067330624313     -5.51236229778631      0.00021776644566
H   -7.07385645456741     -1.22822025997701     -0.00017736581114

    units angstrom      # Angstroms are the default
    no_reorient         # Geometry fixed, default
    symmetry c1         # C1 symmetry, default
}

set {
    scf_type DF         # Density fitting, faster than exact integrals
    freeze_core True    # Freeze core electrons
    basis jun-cc-pVDZ   # Jun-cc-pVDZ basis set, recommended for sSAPT0 in https://doi.org/10.1063/1.4867135
}

energy('ssapt0')        # Compute sSAPT0 energy, includes also SAPT0
--------------------------------------------------------------------------

  //              Dimer HF             //
    Molecular point group: c1
  Charge       = 1
  Multiplicity = 1
  Basis Set: JUN-CC-PVDZ
    Blend: JUN-CC-PVDZ
  Basis Set: (JUN-CC-PVDZ AUX)
    Blend: JUN-CC-PVDZ-JKFIT
  @DF-RHF Final Energy: -2359.19704216095079
    Total Energy =                      -2359.1970421609512414
 Dipole X            :         -0.0011135            0.0006313           -0.0004822
 Dipole Y            :         -0.0479511            0.0560211            0.0080700
 Dipole Z            :         27.8313868          -39.8145932          -11.9832063
 Magnitude           :                                                   11.9832091
  //            Monomer A HF           //
    Molecular point group: c1
  Multiplicity = 1
  Basis Set: JUN-CC-PVDZ
    Blend: JUN-CC-PVDZ
  Basis Set: (JUN-CC-PVDZ AUX)
    Blend: JUN-CC-PVDZ-JKFIT
  @DF-RHF Final Energy:  -303.29719890100881
    Total Energy =                       -303.2971989010088123
  //            Monomer B HF           //
    Molecular point group: c1

    Geometry (in Angstrom), charge = 0, multiplicity = 1:

       Center              X                  Y                   Z               Mass
    ------------   -----------------  -----------------  -----------------  -----------------
      Gh(C)           0.680066520158    -0.008042372515    -8.198380356379    12.000000000000
      Gh(C)          -0.680504479842    -0.006014372515    -8.197996356379    12.000000000000
      Gh(N)          -1.085635479842    -0.005016372515    -6.879672356379    14.003074004430
      Gh(C)           0.000107520158    -0.001740372515    -6.098271356379    12.000000000000
      Gh(C)          -2.477365479842     0.044389627485    -6.411693356379    12.000000000000
      Gh(N)           1.085221520158    -0.005016372515    -6.879672356379    14.003074004430
      Gh(H)           1.385145520158    -0.015870372515    -9.015819356379     1.007825032230
      Gh(H)          -1.385302479842    -0.006204372515    -9.015665356379     1.007825032230
      Gh(H)          -0.000009479842     0.000006627485    -5.017182356379     1.007825032230
      Gh(C)           2.478116520158    -0.021908372515    -6.414574356379    12.000000000000
      Gh(H)           2.490591520158     0.005436627485    -5.324321356379     1.007825032230
      Gh(H)           2.967027520158    -0.935354372515    -6.761750356379     1.007825032230
      Gh(H)           3.001427520158     0.853574627485    -6.806046356379     1.007825032230
      Gh(H)          -2.857359479842     1.066460627485    -6.491652356379     1.007825032230
      Gh(H)          -3.082679479842    -0.625694372515    -7.024757356379     1.007825032230
      Gh(H)          -2.518128479842    -0.282594372515    -5.371745356379     1.007825032230
         C            1.225311895423     0.707538288405     1.023686270905    12.000000000000
         C            1.225323856051    -0.707538895085     1.011355461334    12.000000000000
         C           -0.000006153932     1.414965913575     1.010821837813    12.000000000000
         C            2.456448753949     1.418327886663     1.026573128304    12.000000000000
         C            0.000010827279    -1.414976499150     1.021021395138    12.000000000000
         C           -1.225300948908     0.707545373469     1.025937791227    12.000000000000
         C            2.456437755320    -1.418323304396     1.009110304477    12.000000000000
         C           -0.000001332978     2.836801030766     1.008418287679    12.000000000000
         C            3.681826697470     0.709317955486     1.009459094275    12.000000000000
         C            2.455120048865     2.834223660974     1.009356537315    12.000000000000
         C            3.681821105219    -0.709333839944     1.025531578294    12.000000000000
         C           -1.225313598688    -0.707527516059     1.012428222761    12.000000000000
         C            1.226699581202     3.543469483479     1.025715610224    12.000000000000
         C            0.000004784858    -2.836782139751     1.025869562760    12.000000000000
         C           -2.456436032848     1.418316917770     1.025973187073    12.000000000000
         C            2.455123417779    -2.834230029103     1.025379669926    12.000000000000
         C           -1.226714364589     3.543469063235     1.025818943444    12.000000000000
         C            4.914517295202     1.427172871975     1.015939777305    12.000000000000
         C            3.693150191476     3.542795292030     1.015989576941    12.000000000000
         C           -2.456437600068    -1.418313281354     1.009085266353    12.000000000000
         C            1.226704841943    -3.543474242421     1.009745479475    12.000000000000
         C           -2.455125398508     2.834216662119     1.009362913661    12.000000000000
         C            4.914524380782    -1.427186910459     1.018912520039    12.000000000000
         C            1.221424613699     4.970134064745     1.019050954299    12.000000000000
         C            4.893008229321     2.825187999512     1.017156445663    12.000000000000
         C           -1.226697008489    -3.543470997592     1.010012683884    12.000000000000
         C           -3.681818976526     0.709324966217     1.009471774755    12.000000000000
         C            3.693147101150    -3.542801341905     1.019030410600    12.000000000000
         C           -1.221432251994     4.970128297348     1.019234449672    12.000000000000
         C            6.134770972926     0.680547946591     1.016709551855    12.000000000000
         C            3.656788880610     4.972953243053     1.016898214724    12.000000000000
         C           -2.455126907733    -2.834215093576     1.025135312128    12.000000000000
         C           -3.681819179061    -0.709325703983     1.025649199872    12.000000000000
         C            4.893012617914    -2.825200106147     1.017767597559    12.000000000000
         C           -0.000001073113     5.650447365518     1.018003140965    12.000000000000
         C            6.134775112332    -0.680554854590     1.017974872370    12.000000000000
         C            2.478131482856     5.653576750817     1.018186994373    12.000000000000
         C            1.221422404738    -4.970127055448     1.016251457276    12.000000000000
         C           -3.693162383965     3.542796953677     1.016155084400    12.000000000000
         C           -1.221428520945    -4.970118304111     1.016138695444    12.000000000000
         C           -4.914521807942     1.427175446480     1.016016722312    12.000000000000
         C            3.656787019679    -4.972955226754     1.018348715258    12.000000000000
         C           -2.478138530106     5.653574422014     1.018471519382    12.000000000000
         C           -3.693141738564    -3.542790219494     1.018914284444    12.000000000000
         C           -4.914512483053    -1.427181000542     1.018947217213    12.000000000000
         C           -0.000006008926    -5.650438287528     1.017607636844    12.000000000000
         C           -4.893020484101     2.825188598404     1.017146363803    12.000000000000
         C            2.478125993298    -5.653573544403     1.017258114465    12.000000000000
         C           -3.656798710258     4.972956181527     1.017074895098    12.000000000000
         C           -4.892999478856    -2.825191767575     1.017613561861    12.000000000000
         C           -2.478128498083    -5.653566170521     1.016982926818    12.000000000000
         C           -6.134770503331     0.680548765741     1.016684000152    12.000000000000
         C           -3.656788833189    -4.972944023485     1.018134427441    12.000000000000
         C           -6.134765042913    -0.680553915997     1.017954396575    12.000000000000
         H            5.835288495816     3.369275894439     1.021515771326     1.007825032230
         H            7.073859172747     1.228217248385     1.017171195248     1.007825032230
         H            4.600663264174     5.512380801938     1.017403415476     1.007825032230
         H            5.835283387305    -3.369306057244     1.013313130244     1.007825032230
         H           -0.000012151306     6.738530673622     1.013653895957     1.007825032230
         H            7.073861171831    -1.228226943259     1.017466134276     1.007825032230
         H            2.473313731799     6.740684290880     1.017720273443     1.007825032230
         H            4.600668491381    -5.512376129691     1.017938718089     1.007825032230
         H           -2.473318680537     6.740681719092     1.018021620068     1.007825032230
         H           -0.000010268228    -6.738528176967     1.022137321828     1.007825032230
         H           -5.835301914343     3.369270949781     1.021651793474     1.007825032230
         H            2.473307923831    -6.740685374944     1.017828444890     1.007825032230
         H           -4.600674841208     5.512378026089     1.017568743799     1.007825032230
         H           -5.835279506835    -3.369288964294     1.013033824364     1.007825032230
         H           -2.473300347440    -6.740679078655     1.017379128346     1.007825032230
         H           -7.073857766768     1.228220472326     1.017087203767     1.007825032230
         H           -4.600673786085    -5.512362670301     1.017766410067     1.007825032230
         H           -7.073856934409    -1.228220632492     1.017371277810     1.007825032230

  Charge       = 0
  Multiplicity = 1
  Basis Set: JUN-CC-PVDZ
    Blend: JUN-CC-PVDZ
  Basis Set: (JUN-CC-PVDZ AUX)
    Blend: JUN-CC-PVDZ-JKFIT

    Orbital Energies [Eh]
    ---------------------

    Doubly Occupied:

       1A    -11.260662     2A    -11.260219     3A    -11.260217
       4A    -11.259509     5A    -11.259508     6A    -11.259339
       7A    -11.259131     8A    -11.259054     9A    -11.259052
      10A    -11.258728    11A    -11.258725    12A    -11.258657
      13A    -11.258595    14A    -11.258589    15A    -11.258587
      16A    -11.258558    17A    -11.258552    18A    -11.258536
      19A    -11.258522    20A    -11.258517    21A    -11.258511
      22A    -11.258412    23A    -11.258408    24A    -11.258108
      25A    -11.257451    26A    -11.257390    27A    -11.257388
      28A    -11.257253    29A    -11.257253    30A    -11.257168
      31A    -11.256546    32A    -11.256475    33A    -11.256475
      34A    -11.256365    35A    -11.256365    36A    -11.256318
      37A    -11.252395    38A    -11.252394    39A    -11.252392
      40A    -11.252391    41A    -11.252388    42A    -11.252387
      43A    -11.251527    44A    -11.251525    45A    -11.251523
      46A    -11.251518    47A    -11.251517    48A    -11.251513
      49A    -11.250956    50A    -11.250955    51A    -11.250954
      52A    -11.250952    53A    -11.250949    54A    -11.250948
      55A     -1.244283    56A     -1.220005    57A     -1.220005
      58A     -1.189714    59A     -1.189707    60A     -1.181153
      61A     -1.157716    62A     -1.149146    63A     -1.135693
      64A     -1.135685    65A     -1.113348    66A     -1.113344
      67A     -1.082619    68A     -1.082611    69A     -1.078800
      70A     -1.066132    71A     -1.066127    72A     -1.039570
      73A     -1.024478    74A     -1.021980    75A     -1.021936
      76A     -1.017880    77A     -1.012942    78A     -0.987210
      79A     -0.987164    80A     -0.962041    81A     -0.961991
      82A     -0.894459    83A     -0.894433    84A     -0.888152
      85A     -0.886398    86A     -0.886342    87A     -0.881589
      88A     -0.881541    89A     -0.862065    90A     -0.837545
      91A     -0.818381    92A     -0.816820    93A     -0.812328
      94A     -0.812319    95A     -0.794847    96A     -0.794836
      97A     -0.746827    98A     -0.745054    99A     -0.733619
     100A     -0.733612   101A     -0.732345   102A     -0.732321
     103A     -0.716689   104A     -0.699142   105A     -0.699129
     106A     -0.693767   107A     -0.693749   108A     -0.661392
     109A     -0.653320   110A     -0.651366   111A     -0.650409
     112A     -0.650403   113A     -0.639522   114A     -0.639518
     115A     -0.629903   116A     -0.627713   117A     -0.627699
     118A     -0.606459   119A     -0.605929   120A     -0.601855
     121A     -0.599912   122A     -0.599877   123A     -0.593813
     124A     -0.591441   125A     -0.591428   126A     -0.585413
     127A     -0.576422   128A     -0.576410   129A     -0.567471
     130A     -0.567456   131A     -0.566153   132A     -0.566135
     133A     -0.558929   134A     -0.555014   135A     -0.555008
     136A     -0.538752   137A     -0.538750   138A     -0.538283
     139A     -0.538279   140A     -0.529887   141A     -0.528209
     142A     -0.523043   143A     -0.523034   144A     -0.500661
     145A     -0.495714   146A     -0.493399   147A     -0.487942
     148A     -0.485256   149A     -0.481937   150A     -0.481930
     151A     -0.470430   152A     -0.470418   153A     -0.451237
     154A     -0.451161   155A     -0.439183   156A     -0.439174
     157A     -0.404863   158A     -0.404840   159A     -0.403485
     160A     -0.375538   161A     -0.375535   162A     -0.349242
     163A     -0.337707   164A     -0.336674   165A     -0.336619
     166A     -0.311218   167A     -0.298206   168A     -0.284473
     169A     -0.284420   170A     -0.225042   171A     -0.224977

  @DF-RHF Final Energy: -2055.89174489266225

   => Energetics <=

    Nuclear Repulsion Energy =           6452.5568002797781446
    One-Electron Energy =              -15636.4294489982821688
    Two-Electron Energy =                7127.9809038258426881
    Total Energy =                      -2055.8917448926622455
 Dipole X            :          0.0001064           -0.0000085            0.0000979
 Dipole Y            :         -0.0000300            0.0000167           -0.0000133
 Dipole Z            :       -657.6239176          657.6263405            0.0024230
 Magnitude           :                                                    0.0024250

    SAPT Results
  --------------------------------------------------------------------------------------------------------
    Electrostatics                 -6.37227456 [mEh]      -3.99866265 [kcal/mol]     -16.73040455 [kJ/mol]
      Elst10,r                     -6.37227456 [mEh]      -3.99866265 [kcal/mol]     -16.73040455 [kJ/mol]

    Exchange                       -0.00021116 [mEh]      -0.00013251 [kcal/mol]      -0.00055441 [kJ/mol]
      Exch10                       -0.00021116 [mEh]      -0.00013251 [kcal/mol]      -0.00055441 [kJ/mol]
      Exch10(S^2)                  -0.00021116 [mEh]      -0.00013251 [kcal/mol]      -0.00055441 [kJ/mol]

    Induction                      -1.72588156 [mEh]      -1.08300703 [kcal/mol]      -4.53130141 [kJ/mol]
      Ind20,r                      -1.70008122 [mEh]      -1.06681707 [kcal/mol]      -4.46356262 [kJ/mol]
      Exch-Ind20,r                  0.00009991 [mEh]       0.00006270 [kcal/mol]       0.00026232 [kJ/mol]
      delta HF,r (2)               -0.02590025 [mEh]      -0.01625265 [kcal/mol]      -0.06800111 [kJ/mol]

    Dispersion                     -0.77732847 [mEh]      -0.48778098 [kcal/mol]      -2.04087561 [kJ/mol]
      Disp20                       -0.77737516 [mEh]      -0.48781028 [kcal/mol]      -2.04099821 [kJ/mol]
      Exch-Disp20                   0.00004670 [mEh]       0.00002930 [kcal/mol]       0.00012260 [kJ/mol]
      Disp20 (SS)                  -0.38868758 [mEh]      -0.24390514 [kcal/mol]      -1.02049910 [kJ/mol]
      Disp20 (OS)                  -0.38868758 [mEh]      -0.24390514 [kcal/mol]      -1.02049910 [kJ/mol]
      Exch-Disp20 (SS)              0.00003475 [mEh]       0.00002181 [kcal/mol]       0.00009124 [kJ/mol]
      Exch-Disp20 (OS)              0.00001195 [mEh]       0.00000750 [kcal/mol]       0.00003137 [kJ/mol]

  Total HF                         -8.09836728 [mEh]      -5.08180219 [kcal/mol]     -21.26226036 [kJ/mol]
  Total SAPT0                      -8.87569575 [mEh]      -5.56958317 [kcal/mol]     -23.30313597 [kJ/mol]

  Special recipe for scaled SAPT0 (see Manual):
    Electrostatics sSAPT0          -6.37227456 [mEh]      -3.99866265 [kcal/mol]     -16.73040455 [kJ/mol]
    Exchange sSAPT0                -0.00021116 [mEh]      -0.00013251 [kcal/mol]      -0.00055441 [kJ/mol]
    Induction sSAPT0               -1.72588156 [mEh]      -1.08300703 [kcal/mol]      -4.53130141 [kJ/mol]
    Dispersion sSAPT0              -0.77732847 [mEh]      -0.48778098 [kcal/mol]      -2.04087561 [kJ/mol]
  Total sSAPT0                     -8.87569575 [mEh]      -5.56958317 [kcal/mol]     -23.30313597 [kJ/mol]
  --------------------------------------------------------------------------------------------------------

*** Psi4 exiting successfully. Buy a developer a beer!
