                               Psi4 1.9 release

  ==> Input File <==

--------------------------------------------------------------------------
memory 64 GB # how much memory is available ! Depends on the nodes/cores !

molecule dimer {
# monomer A
+1 1    # Charge and multiplicity
C  0.680067 -1.215929 3.208042
C -0.680504 -1.215545 3.206014
N -1.085635  0.102779 3.205016
C  0.000108  0.884180 3.201740
C -2.477365  0.570758 3.155610
N  1.085222  0.102779 3.205016
H  1.385146 -2.033368 3.215870
H -1.385302 -2.033214 3.206204
H -0.000009  1.965269 3.199993
C  2.478117  0.567877 3.221908
H  2.490592  1.658130 3.194563
H  2.967028  0.220701 4.135354
H  3.001428  0.176405 2.346425
H -2.857359  0.490799 2.133539
H -3.082679 -0.042306 3.825694
H -2.518128  1.610706 3.482594
--
# monomer B
0 1     # Charge and multiplicity
C   -3.66844126402057      7.80375217008252      0.00190004133558
C   -4.84759871934653      7.13124183134024     -0.00046653359696
C   -4.89495929917518      5.69633040353158     -0.00103944469517
C   -3.65374067877320      4.98073034095895      0.00662099703436
C   -2.40942512149445      7.11398103667468      0.00209438359570
C   -2.42547734410473      5.68112195090346     -0.00491050527438
C   -1.19474401643570      7.78614419430947      0.00356656413763
C   0.03795902893699      7.09942164575698      0.00139585983271
C   0.03033258741920      5.66948955970466     -0.00408752508301
C   -1.20098450790502      4.96927034791531      0.00488220885047
C   1.27795782581485      7.77285944319479      0.00277170839332
C   2.48535808472416      7.08769688523756      0.00049722048857
C   2.48612868491717      5.65477081024076     -0.00644052849921
C   1.25408291964399      4.95607811366431      0.00518741308898
C   3.75171459140595      7.76391215098033      0.00062407186893
C   4.92356605618520      7.07878077698995     -0.00143240883900
C   4.95560727132542      5.64344746336949     -0.00159282164606
C   3.70680153420475      4.94121020833308      0.00349873852374
H   -3.65852113775815      8.89082741913536      0.00358502958574
H   -1.18921332975660      8.87412108735996      0.00753844057883
H   1.28429423888630      8.86083343548850      0.00693053253426
H   3.75354208679975      8.85103527897216      0.00214659618464
H   5.86995870320703      7.61379483465560     -0.00235777588134
H   -5.78823170750226      7.67630221293400     -0.00202638095293
C   -6.09197395869619      4.99326001364347     -0.00291168518608
C   -6.12866148031747      3.58258016879823     -0.00171050815740
C   -3.66457974004527      3.56418217974434     -0.00463560277484
C   -4.89429820469869      2.86108077590057      0.00453338221034
C   -2.43733499489796      2.84761165708481      0.00719617576166
C   -1.20922785759670      3.54788693497833     -0.00648285103018
C   1.24714157216223      3.53468075142962     -0.00729145743546
C   0.01517603956900      2.83311183930540      0.00439272578912
C   2.46764517244071      2.82128997725533      0.00449278391269
C   3.70254947457969      3.52466015442405     -0.00899517692985
C   6.14498038638375      4.92757236613191     -0.00282626685777
C   6.16658835886151      3.51658447594213     -0.00065971342101
C   4.92460995845939      2.80840792535402      0.00587903281610
H   7.08990550964105      5.46688776622306     -0.00658814770723
H   -7.03104175110130      5.54268795285765     -0.00714490013730
C   -7.33969804112295      2.85841153457957     -0.00333767559888
C   -7.36488195805880      1.47032337158330     -0.00157213747140
C   -4.90350460894690      1.44442681216000     -0.00628840166334
C   -6.13225715261081      0.73993935705394      0.00600164231964
C   -3.67687480051673      0.72669714267312      0.00433931473643
C   -2.44565658606518      1.42964113326212     -0.00597039546461
C   -1.22360068130162      0.71532450163492      0.00545886906656
C   0.00763786931376      1.41738314923765      0.00392452278437
C   1.23121980774686      0.70211669058719     -0.01490206287210
C   2.46082110053113      1.40329203612573      0.00460244601878
C   3.68443025419614      0.68719842821222      0.00377365974158
C   4.91870890153864      1.39173456118907     -0.00862816189375
C   7.36980207796101      2.77948220318441     -0.00242013321349
C   7.38016266612146      1.39121750785509     -0.00087345036788
C   6.13979953912259      0.67411862320065      0.00545489144369
H   -8.27919079934664      3.40711804112415     -0.00763522772059
H   8.31511347147953      3.31811809662368     -0.00663070901292
C   -8.59175593758115      0.72483255304480     -0.00123170985383
C   -8.59902460370342     -0.63263980622873      0.00089141472904
C   -6.13981313911873     -0.67413663715361     -0.00609792660607
C   -7.38018411213749     -1.39126618958160      0.00131813493501
C   -4.91868448025621     -1.39175501803000      0.00624257154343
C   -3.68443829568458     -0.68723731573599     -0.00478966852105
C   -2.46081704024768     -1.40334517882457      0.00575341766833
C   -1.23116201232071     -0.70217386488055     -0.00636696112346
C   -0.00756962538737     -1.41741884941102      0.00108956317991
C   1.22364771588843     -0.71527537726392      0.01109518512883
C   2.44567064933149     -1.42964328900682     -0.00065482763106
C   3.67686670284649     -0.72670743155550     -0.00479541202602
C   6.13224884641929     -0.73997883984993     -0.00632338623858
C   4.90351914550401     -1.44445752054090      0.00751768830159
C   8.59901484869081      0.63260386666793     -0.00101133422380
C   8.59174548810050     -0.72485086719319      0.00072504603735
C   7.36486276438985     -1.47033266560598      0.00049486934466
H   -9.52830597181814      1.27684744919284     -0.00270163681798
H   9.54141097460619      1.17457248844457     -0.00206336648518
C   -7.36983790976868     -2.77954514593389      0.00312634335708
C   -4.92459910905015     -2.80843725734101     -0.00460528907921
C   -6.16662249566744     -3.51665219282533      0.00169655107992
C   -3.70251035970491     -3.52468154912026      0.00571878010666
C   -2.46764698511392     -2.82132596280400     -0.00632585824990
C   -0.01513347410770     -2.83314164539971     -0.00604426974092
C   -1.24712184122656     -3.53473217556300      0.00551968366725
C   1.20924506964357     -3.54791467864352      0.00805871345849
C   2.43733602215464     -2.84764173817541     -0.00608104485234
C   4.89430234377080     -2.86112296828604     -0.00526030478103
C   3.66461525504104     -3.56421984553201      0.00761911515957
C   6.12863901474565     -3.58258405771778      0.00096495711699
C   7.33967266469532     -2.85841330737039      0.00248018319869
H   -9.54144911125902     -1.17456346666430      0.00226083090216
H   9.52826186807155     -1.27691907390448      0.00197485379837
H   -8.31516504384864     -3.31814985321231      0.00729857188773
H   8.27915514249207     -3.40714078989363      0.00681973918158
C   -6.14499418870218     -4.92764727278338      0.00302254913999
C   -3.70678334799751     -4.94126171411716     -0.00679841894792
C   -4.95559005800169     -5.64349397349412      0.00116871569699
C   -2.48612132622665     -5.65478557440947      0.00614125209662
C   -1.25405833548005     -4.95612205000132     -0.00503435388927
C   1.20101257386816     -4.96928038819302     -0.00385322963129
C   -0.03033667441341     -5.66952030313900      0.00398997003238
C   3.65375010132847     -4.98074377541453     -0.00309522988330
C   2.42549269587528     -5.68117463552727      0.00628170066869
C   6.09196561781097     -4.99325796338655      0.00325918379042
C   4.89497644461045     -5.69634842095790      0.00202298796027
H   -7.08989238804069     -5.46699984223871      0.00742531082125
H   7.03105520920009     -5.54265853633254      0.00683896355417
C   -4.92354532219813     -7.07882109967734      0.00061394679214
C   -2.48534208823777     -7.08772807792913     -0.00189594564379
C   -3.75168589177895     -7.76394715763627     -0.00170126671874
C   -0.03794895698805     -7.09946487446944     -0.00168022049625
C   -1.27795610040136     -7.77290438466689     -0.00366491325785
C   2.40944432072629     -7.11402201200282     -0.00081701968533
C   1.19474993715296     -7.78618536556242     -0.00296931056689
C   4.84762105249800     -7.13126211057943      0.00168979497423
C   3.66847160587561     -7.80378799294376     -0.00065863938960
H   -5.86994035041618     -7.61383059804164      0.00215798365757
H   5.78824962538815     -7.67633218931421      0.00281691445618
H   -3.75352693944918     -8.85107156923607     -0.00353718114765
H   -1.28430440589466     -8.86087539249706     -0.00809229711623
H   1.18922157469537     -8.87416062058945     -0.00706194725726
H   3.65854661482387     -8.89086063405326     -0.00231318081200

    units angstrom      # Angstroms are the default
    no_reorient         # Geometry fixed, default
    symmetry c1         # C1 symmetry, default
}

set {
    scf_type DF         # Density fitting, faster than exact integrals
    freeze_core True    # Freeze core electrons
    basis jun-cc-pVDZ   # Jun-cc-pVDZ basis set, recommended for sSAPT0 in https://doi.org/10.1063/1.4867135
}

energy('ssapt0')        # Compute sSAPT0 energy, includes also SAPT0
--------------------------------------------------------------------------

  //              Dimer HF             //
    Molecular point group: c1
  Charge       = 1
  Multiplicity = 1
  Basis Set: JUN-CC-PVDZ
    Blend: JUN-CC-PVDZ
  Basis Set: (JUN-CC-PVDZ AUX)
    Blend: JUN-CC-PVDZ-JKFIT
  @DF-RHF Final Energy: -3953.64427865594644
    Total Energy =                      -3953.6442786559455271
 Dipole X            :         -0.0000728            0.0004804            0.0004076
 Dipole Y            :         -1.6457145            1.8866171            0.2409026
 Dipole Z            :        -15.6506839           19.3777210            3.7270371
 Magnitude           :                                                    3.7348145
  //            Monomer A HF           //
    Molecular point group: c1
  Multiplicity = 1
  Basis Set: JUN-CC-PVDZ
    Blend: JUN-CC-PVDZ
  Basis Set: (JUN-CC-PVDZ AUX)
    Blend: JUN-CC-PVDZ-JKFIT
  @DF-RHF Final Energy:  -303.29957758611852
    Total Energy =                       -303.2995775861185166
  //            Monomer B HF           //
    Molecular point group: c1

    Geometry (in Angstrom), charge = 0, multiplicity = 1:

       Center              X                  Y                   Z               Mass
    ------------   -----------------  -----------------  -----------------  -----------------
      Gh(C)           0.680062820275    -1.215917226251     2.964063607076    12.000000000000
      Gh(C)          -0.680508179725    -1.215533226251     2.962035607076    12.000000000000
      Gh(N)          -1.085639179725     0.102790773749     2.961037607076    14.003074004430
      Gh(C)           0.000103820275     0.884191773749     2.957761607076    12.000000000000
      Gh(C)          -2.477369179725     0.570769773749     2.911631607076    12.000000000000
      Gh(N)           1.085217820275     0.102790773749     2.961037607076    14.003074004430
      Gh(H)           1.385141820275    -2.033356226251     2.971891607076     1.007825032230
      Gh(H)          -1.385306179725    -2.033202226251     2.962225607076     1.007825032230
      Gh(H)          -0.000013179725     1.965280773749     2.956014607076     1.007825032230
      Gh(C)           2.478112820275     0.567888773749     2.977929607076    12.000000000000
      Gh(H)           2.490587820275     1.658141773750     2.950584607076     1.007825032230
      Gh(H)           2.967023820275     0.220712773749     3.891375607076     1.007825032230
      Gh(H)           3.001423820275     0.176416773749     2.102446607076     1.007825032230
      Gh(H)          -2.857363179725     0.490810773749     1.889560607076     1.007825032230
      Gh(H)          -3.082683179725    -0.042294226251     3.581715607076     1.007825032230
      Gh(H)          -2.518132179725     1.610717773749     3.238615607076     1.007825032230
         C           -3.668445443746     7.803763943832    -0.242078351588    12.000000000000
         C           -4.847602899072     7.131253605090    -0.244444926521    12.000000000000
         C           -4.894963478901     5.696342177281    -0.245017837619    12.000000000000
         C           -3.653744858499     4.980742114708    -0.237357395890    12.000000000000
         C           -2.409429301220     7.113992810424    -0.241884009328    12.000000000000
         C           -2.425481523830     5.681133724653    -0.248888898198    12.000000000000
         C           -1.194748196161     7.786155968059    -0.240411828786    12.000000000000
         C            0.037954849212     7.099433419506    -0.242582533091    12.000000000000
         C            0.030328407694     5.669501333454    -0.248065918007    12.000000000000
         C           -1.200988687630     4.969282121665    -0.239096184074    12.000000000000
         C            1.277953646089     7.772871216944    -0.241206684531    12.000000000000
         C            2.485353904999     7.087708658987    -0.243481172436    12.000000000000
         C            2.486124505192     5.654782583990    -0.250418921423    12.000000000000
         C            1.254078739919     4.956089887414    -0.238790979835    12.000000000000
         C            3.751710411681     7.763923924730    -0.243354321055    12.000000000000
         C            4.923561876460     7.078792550739    -0.245410801763    12.000000000000
         C            4.955603091600     5.643459237119    -0.245571214570    12.000000000000
         C            3.706797354479     4.941221982083    -0.240479654400    12.000000000000
         H           -3.658525317484     8.890839192885    -0.240393363338     1.007825032230
         H           -1.189217509482     8.874132861109    -0.236439952345     1.007825032230
         H            1.284290059161     8.860845209238    -0.237047860390     1.007825032230
         H            3.753537907074     8.851047052722    -0.241831796739     1.007825032230
         H            5.869954523482     7.613806608405    -0.246336168805     1.007825032230
         H           -5.788235887228     7.676313986684    -0.246004773877     1.007825032230
         C           -6.091978138422     4.993271787393    -0.246890078110    12.000000000000
         C           -6.128665660043     3.582591942548    -0.245688901081    12.000000000000
         C           -3.664583919771     3.564193953494    -0.248613995699    12.000000000000
         C           -4.894302384424     2.861092549650    -0.239445010714    12.000000000000
         C           -2.437339174623     2.847623430834    -0.236782217162    12.000000000000
         C           -1.209232037322     3.547898708728    -0.250461243954    12.000000000000
         C            1.247137392437     3.534692525179    -0.251269850360    12.000000000000
         C            0.015171859844     2.833123613055    -0.239585667135    12.000000000000
         C            2.467640992715     2.821301751005    -0.239485609011    12.000000000000
         C            3.702545294854     3.524671928174    -0.252973569854    12.000000000000
         C            6.144976206658     4.927584139881    -0.246804659782    12.000000000000
         C            6.166584179136     3.516596249692    -0.244638106345    12.000000000000
         C            4.924605778734     2.808419699104    -0.238099360108    12.000000000000
         H            7.089901329916     5.466899539973    -0.250566540631     1.007825032230
         H           -7.031045930827     5.542699726607    -0.251123293061     1.007825032230
         C           -7.339702220848     2.858423308329    -0.247316068523    12.000000000000
         C           -7.364886137784     1.470335145333    -0.245550530395    12.000000000000
         C           -4.903508788672     1.444438585909    -0.250266794587    12.000000000000
         C           -6.132261332336     0.739951130803    -0.237976750604    12.000000000000
         C           -3.676878980242     0.726708916423    -0.239639078188    12.000000000000
         C           -2.445660765791     1.429652907012    -0.249948788389    12.000000000000
         C           -1.223604861027     0.715336275384    -0.238519523858    12.000000000000
         C            0.007633689588     1.417394922987    -0.240053870140    12.000000000000
         C            1.231215628021     0.702128464337    -0.258880455796    12.000000000000
         C            2.460816920806     1.403303809875    -0.239375946905    12.000000000000
         C            3.684426074471     0.687210201962    -0.240204733182    12.000000000000
         C            4.918704721813     1.391746334939    -0.252606554818    12.000000000000
         C            7.369797898236     2.779493976934    -0.246398526138    12.000000000000
         C            7.380158486396     1.391229281605    -0.244851843292    12.000000000000
         C            6.139795359397     0.674130396950    -0.238523501480    12.000000000000
         H           -8.279194979072     3.407129814874    -0.251613620645     1.007825032230
         H            8.315109291754     3.318129870373    -0.250609101937     1.007825032230
         C           -8.591760117307     0.724844326794    -0.245210102778    12.000000000000
         C           -8.599028783429    -0.632628032479    -0.243086978195    12.000000000000
         C           -6.139817318844    -0.674124863404    -0.250076319530    12.000000000000
         C           -7.380188291863    -1.391254415832    -0.242660257989    12.000000000000
         C           -4.918688659982    -1.391743244281    -0.237735821381    12.000000000000
         C           -3.684442475410    -0.687225541986    -0.248768061445    12.000000000000
         C           -2.460821219973    -1.403333405075    -0.238224975256    12.000000000000
         C           -1.231166192046    -0.702162091131    -0.250345354048    12.000000000000
         C           -0.007573805113    -1.417407075662    -0.242888829744    12.000000000000
         C            1.223643536163    -0.715263603514    -0.232883207795    12.000000000000
         C            2.445666469606    -1.429631515257    -0.244633220555    12.000000000000
         C            3.676862523121    -0.726695657806    -0.248773804950    12.000000000000
         C            6.132244666694    -0.739967066100    -0.250301779163    12.000000000000
         C            4.903514965779    -1.444445746791    -0.236460704622    12.000000000000
         C            8.599010668965     0.632615640417    -0.244989727148    12.000000000000
         C            8.591741308375    -0.724839093444    -0.243253346887    12.000000000000
         C            7.364858584664    -1.470320891856    -0.243483523579    12.000000000000
         H           -9.528310151544     1.276859222942    -0.246680029742     1.007825032230
         H            9.541406794881     1.174584262194    -0.246041759409     1.007825032230
         C           -7.369842089494    -2.779533372184    -0.240852049567    12.000000000000
         C           -4.924603288776    -2.808425483592    -0.248583682003    12.000000000000
         C           -6.166626675393    -3.516640419076    -0.242281841844    12.000000000000
         C           -3.702514539430    -3.524669775371    -0.238259612817    12.000000000000
         C           -2.467651164839    -2.821314189055    -0.250304251174    12.000000000000
         C           -0.015137653833    -2.833129871650    -0.250022662665    12.000000000000
         C           -1.247126020952    -3.534720401814    -0.238458709257    12.000000000000
         C            1.209240889918    -3.547902904894    -0.235919679466    12.000000000000
         C            2.437331842429    -2.847629964426    -0.250059437776    12.000000000000
         C            4.894298164045    -2.861111194537    -0.249238697705    12.000000000000
         C            3.664611075316    -3.564208071783    -0.236359277765    12.000000000000
         C            6.128634835020    -3.582572283968    -0.243013435807    12.000000000000
         C            7.339668484970    -2.858401533621    -0.241498209725    12.000000000000
         H           -9.541453290984    -1.174551692915    -0.241717562022     1.007825032230
         H            9.528257688346    -1.276907300155    -0.242003539126     1.007825032230
         H           -8.315169223574    -3.318138079463    -0.236679821036     1.007825032230
         H            8.279150962767    -3.407129016144    -0.237158653742     1.007825032230
         C           -6.144998368428    -4.927635499034    -0.240955843784    12.000000000000
         C           -3.706787527723    -4.941249940368    -0.250776811872    12.000000000000
         C           -4.955594237727    -5.643482199745    -0.242809677227    12.000000000000
         C           -2.486125505952    -5.654773800660    -0.237837140827    12.000000000000
         C           -1.254062515205    -4.956110276252    -0.249012746813    12.000000000000
         C            1.201008394143    -4.969268614444    -0.247831622555    12.000000000000
         C           -0.030340854139    -5.669508529390    -0.239988422892    12.000000000000
         C            3.653745921603    -4.980732001665    -0.247073622807    12.000000000000
         C            2.425488516150    -5.681162861778    -0.237696692255    12.000000000000
         C            6.091961438086    -4.993246189637    -0.240719209134    12.000000000000
         C            4.894972264885    -5.696336647208    -0.241955404964    12.000000000000
         H           -7.089896567766    -5.466988068489    -0.236553082103     1.007825032230
         H            7.031051029475    -5.542646762583    -0.237139429370     1.007825032230
         C           -4.923549501924    -7.078809325928    -0.243364446132    12.000000000000
         C           -2.485346267963    -7.087716304180    -0.245874338568    12.000000000000
         C           -3.751690071504    -7.763935383887    -0.245679659643    12.000000000000
         C           -0.037953136713    -7.099453100720    -0.245658613420    12.000000000000
         C           -1.277960280127    -7.772892610917    -0.247643306182    12.000000000000
         C            2.409440141001    -7.114010238253    -0.244795412609    12.000000000000
         C            1.194745757428    -7.786173591813    -0.246947703491    12.000000000000
         C            4.847616872773    -7.131250336830    -0.242288597950    12.000000000000
         C            3.668467426150    -7.803776219194    -0.244637032314    12.000000000000
         H           -5.869944530142    -7.613818824292    -0.241820409267     1.007825032230
         H            5.788245445663    -7.676320415565    -0.241161478468     1.007825032230
         H           -3.753531119175    -8.851059795487    -0.247515574072     1.007825032230
         H           -1.284308585620    -8.860863618748    -0.252070690040     1.007825032230
         H            1.189217394970    -8.874148846840    -0.251040340181     1.007825032230
         H            3.658542435098    -8.890848860304    -0.246291573736     1.007825032230

  Charge       = 0
  Multiplicity = 1
  Basis Set: JUN-CC-PVDZ
    Blend: JUN-CC-PVDZ
  Basis Set: (JUN-CC-PVDZ AUX)
    Blend: JUN-CC-PVDZ-JKFIT

    Orbital Energies [Eh]
    ---------------------

    Doubly Occupied:

       1A    -11.264099     2A    -11.263757     3A    -11.263714
       4A    -11.263333     5A    -11.263320     6A    -11.263241
       7A    -11.263136     8A    -11.263131     9A    -11.263069
      10A    -11.262846    11A    -11.262750    12A    -11.262711
      13A    -11.262238    14A    -11.262233    15A    -11.262200
      16A    -11.262178    17A    -11.262058    18A    -11.262044
      19A    -11.262020    20A    -11.261955    21A    -11.261953
      22A    -11.261862    23A    -11.261852    24A    -11.261685
      25A    -11.261681    26A    -11.261652    27A    -11.261644
      28A    -11.261605    29A    -11.261598    30A    -11.261517
      31A    -11.261494    32A    -11.261475    33A    -11.261470
      34A    -11.261455    35A    -11.261447    36A    -11.261429
      37A    -11.261254    38A    -11.261241    39A    -11.261236
      40A    -11.261229    41A    -11.261220    42A    -11.261212
      43A    -11.261205    44A    -11.261187    45A    -11.261184
      46A    -11.261159    47A    -11.261154    48A    -11.261139
      49A    -11.260999    50A    -11.260984    51A    -11.260952
      52A    -11.260921    53A    -11.260885    54A    -11.260843
      55A    -11.259818    56A    -11.259800    57A    -11.259792
      58A    -11.259770    59A    -11.259760    60A    -11.259741
      61A    -11.259181    62A    -11.259159    63A    -11.259146
      64A    -11.259100    65A    -11.259095    66A    -11.259065
      67A    -11.258818    68A    -11.258796    69A    -11.258790
      70A    -11.258768    71A    -11.258759    72A    -11.258742
      73A    -11.254466    74A    -11.254456    75A    -11.254452
      76A    -11.254449    77A    -11.254446    78A    -11.254437
      79A    -11.253577    80A    -11.253561    81A    -11.253558
      82A    -11.253552    83A    -11.253551    84A    -11.253545
      85A    -11.253493    86A    -11.253477    87A    -11.253472
      88A    -11.253467    89A    -11.253464    90A    -11.253458
      91A    -11.252993    92A    -11.252983    93A    -11.252979
      94A    -11.252977    95A    -11.252974    96A    -11.252965
      97A     -1.253761    98A     -1.238847    99A     -1.238816
     100A     -1.220323   101A     -1.220310   102A     -1.215285
     103A     -1.200915   104A     -1.195468   105A     -1.187989
     106A     -1.187971   107A     -1.173642   108A     -1.173639
     109A     -1.155468   110A     -1.155465   111A     -1.152559
     112A     -1.144606   113A     -1.144605   114A     -1.128417
     115A     -1.114549   116A     -1.113048   117A     -1.112334
     118A     -1.112305   119A     -1.111508   120A     -1.088281
     121A     -1.088262   122A     -1.076851   123A     -1.076849
     124A     -1.067467   125A     -1.067426   126A     -1.064814
     127A     -1.046662   128A     -1.046649   129A     -1.040338
     130A     -1.038626   131A     -1.038620   132A     -1.025076
     133A     -1.021214   134A     -1.021153   135A     -1.007049
     136A     -1.006651   137A     -1.003664   138A     -1.000335
     139A     -1.000278   140A     -0.990971   141A     -0.970841
     142A     -0.970789   143A     -0.955764   144A     -0.955704
     145A     -0.905445   146A     -0.905402   147A     -0.905401
     148A     -0.905369   149A     -0.904140   150A     -0.892177
     151A     -0.892120   152A     -0.890193   153A     -0.890142
     154A     -0.889293   155A     -0.872100   156A     -0.868965
     157A     -0.851408   158A     -0.847696   159A     -0.847685
     160A     -0.845426   161A     -0.842850   162A     -0.834419
     163A     -0.834408   164A     -0.828010   165A     -0.828000
     166A     -0.784416   167A     -0.784406   168A     -0.783508
     169A     -0.783494   170A     -0.782133   171A     -0.782116
     172A     -0.781870   173A     -0.766845   174A     -0.760612
     175A     -0.750412   176A     -0.733366   177A     -0.726933
     178A     -0.726896   179A     -0.724924   180A     -0.724402
     181A     -0.724368   182A     -0.718315   183A     -0.713606
     184A     -0.713600   185A     -0.699443   186A     -0.699421
     187A     -0.685948   188A     -0.685826   189A     -0.685815
     190A     -0.682033   191A     -0.682026   192A     -0.678634
     193A     -0.653492   194A     -0.650732   195A     -0.650700
     196A     -0.649636   197A     -0.649633   198A     -0.649439
     199A     -0.640763   200A     -0.640720   201A     -0.639950
     202A     -0.639035   203A     -0.635866   204A     -0.635833
     205A     -0.628990   206A     -0.617714   207A     -0.615181
     208A     -0.615155   209A     -0.608660   210A     -0.608654
     211A     -0.599083   212A     -0.599056   213A     -0.598594
     214A     -0.598428   215A     -0.598414   216A     -0.597869
     217A     -0.594939   218A     -0.594923   219A     -0.594578
     220A     -0.594043   221A     -0.591800   222A     -0.591797
     223A     -0.587201   224A     -0.577693   225A     -0.577675
     226A     -0.575633   227A     -0.575626   228A     -0.573238
     229A     -0.569526   230A     -0.567977   231A     -0.567953
     232A     -0.566602   233A     -0.566594   234A     -0.560807
     235A     -0.558563   236A     -0.558521   237A     -0.558316
     238A     -0.554218   239A     -0.550496   240A     -0.547367
     241A     -0.544187   242A     -0.534961   243A     -0.534951
     244A     -0.533399   245A     -0.533384   246A     -0.527948
     247A     -0.527929   248A     -0.527606   249A     -0.517003
     250A     -0.516977   251A     -0.515269   252A     -0.515265
     253A     -0.509510   254A     -0.509498   255A     -0.497880
     256A     -0.496309   257A     -0.496265   258A     -0.493733
     259A     -0.493711   260A     -0.489370   261A     -0.481318
     262A     -0.477328   263A     -0.477327   264A     -0.473851
     265A     -0.469265   266A     -0.466362   267A     -0.466361
     268A     -0.458720   269A     -0.446483   270A     -0.446432
     271A     -0.440953   272A     -0.440699   273A     -0.440666
     274A     -0.434597   275A     -0.433814   276A     -0.407284
     277A     -0.407261   278A     -0.386296   279A     -0.386245
     280A     -0.385642   281A     -0.385638   282A     -0.383648
     283A     -0.354219   284A     -0.354191   285A     -0.350554
     286A     -0.338014   287A     -0.335509   288A     -0.335457
     289A     -0.332614   290A     -0.332608   291A     -0.306929
     292A     -0.301833   293A     -0.301776   294A     -0.300730
     295A     -0.286061   296A     -0.256389   297A     -0.253381
     298A     -0.253330   299A     -0.204153   300A     -0.204072

  @DF-RHF Final Energy: -3650.34261704863820

   => Energetics <=

    Nuclear Repulsion Energy =          15611.4211649754324753
    One-Electron Energy =              -36072.2198965839997982
    Two-Electron Energy =               16810.4561145599291194
    Total Energy =                      -3650.3426170486382034
 Dipole X            :          0.0008249            0.0002112            0.0010361
 Dipole Y            :          0.0026949           -0.0044281           -0.0017332
 Dipole Z            :        276.6241679         -276.6280140           -0.0038461
 Magnitude           :                                                    0.0043439

    SAPT Results
  --------------------------------------------------------------------------------------------------------
    Electrostatics                -29.51108647 [mEh]     -18.51848634 [kcal/mol]     -77.48134686 [kJ/mol]
      Elst10,r                    -29.51108647 [mEh]     -18.51848634 [kcal/mol]     -77.48134686 [kJ/mol]

    Exchange                       49.49875431 [mEh]      31.06093727 [kcal/mol]     129.95896154 [kJ/mol]
      Exch10                       49.49875431 [mEh]      31.06093727 [kcal/mol]     129.95896154 [kJ/mol]
      Exch10(S^2)                  49.21738896 [mEh]      30.88437784 [kcal/mol]     129.22023690 [kJ/mol]

    Induction                     -22.07168902 [mEh]     -13.85019397 [kcal/mol]     -57.94921155 [kJ/mol]
      Ind20,r                     -34.06848318 [mEh]     -21.37829596 [kcal/mol]     -89.44679028 [kJ/mol]
      Exch-Ind20,r                 16.70982669 [mEh]      10.48557455 [kcal/mol]      43.87164393 [kJ/mol]
      delta HF,r (2)               -4.71303253 [mEh]      -2.95747256 [kcal/mol]     -12.37406520 [kJ/mol]

    Dispersion                    -49.01860326 [mEh]     -30.75963794 [kcal/mol]    -128.69832513 [kJ/mol]
      Disp20                      -54.19673745 [mEh]     -34.00896620 [kcal/mol]    -142.29351457 [kJ/mol]
      Exch-Disp20                   5.17813419 [mEh]       3.24932826 [kcal/mol]      13.59518943 [kJ/mol]
      Disp20 (SS)                 -27.09836872 [mEh]     -17.00448310 [kcal/mol]     -71.14675728 [kJ/mol]
      Disp20 (OS)                 -27.09836872 [mEh]     -17.00448310 [kcal/mol]     -71.14675728 [kJ/mol]
      Exch-Disp20 (SS)              3.12284654 [mEh]       1.95961579 [kcal/mol]       8.19903246 [kJ/mol]
      Exch-Disp20 (OS)              2.05528765 [mEh]       1.28971247 [kcal/mol]       5.39615697 [kJ/mol]

  Total HF                         -2.08402119 [mEh]      -1.30774304 [kcal/mol]      -5.47159688 [kJ/mol]
  Total SAPT0                     -51.10262445 [mEh]     -32.06738098 [kcal/mol]    -134.16992201 [kJ/mol]

  Special recipe for scaled SAPT0 (see Manual):
    Electrostatics sSAPT0         -29.51108647 [mEh]     -18.51848634 [kcal/mol]     -77.48134686 [kJ/mol]
    Exchange sSAPT0                49.49875431 [mEh]      31.06093727 [kcal/mol]     129.95896154 [kJ/mol]
    Induction sSAPT0              -21.78346800 [mEh]     -13.66933254 [kcal/mol]     -57.19248737 [kJ/mol]
    Dispersion sSAPT0             -48.92928773 [mEh]     -30.70359159 [kcal/mol]    -128.46382723 [kJ/mol]
  Total sSAPT0                    -50.72508790 [mEh]     -31.83047321 [kcal/mol]    -133.17869992 [kJ/mol]
  --------------------------------------------------------------------------------------------------------

*** Psi4 exiting successfully. Buy a developer a beer!
