                               Psi4 1.9 release

  ==> Input File <==

--------------------------------------------------------------------------
memory 64 GB # how much memory is available ! Depends on the nodes/cores !

molecule dimer {
# monomer A
-1 1    # Charge and multiplicity
B -1.977592e-04  2.742729e-04 -5.599966
F  1.123153e-16  1.430594e-17 -4.187181
F  1.147860e+00  6.757812e-01 -6.071107
F  1.191806e-02 -1.332011e+00 -6.070905
F -1.159666e+00  6.560735e-01 -6.070826
--
# monomer B
0 1     # Charge and multiplicity
C   -3.66844126402057      7.80375217008252      0.00190004133558
C   -4.84759871934653      7.13124183134024     -0.00046653359696
C   -4.89495929917518      5.69633040353158     -0.00103944469517
C   -3.65374067877320      4.98073034095895      0.00662099703436
C   -2.40942512149445      7.11398103667468      0.00209438359570
C   -2.42547734410473      5.68112195090346     -0.00491050527438
C   -1.19474401643570      7.78614419430947      0.00356656413763
C   0.03795902893699      7.09942164575698      0.00139585983271
C   0.03033258741920      5.66948955970466     -0.00408752508301
C   -1.20098450790502      4.96927034791531      0.00488220885047
C   1.27795782581485      7.77285944319479      0.00277170839332
C   2.48535808472416      7.08769688523756      0.00049722048857
C   2.48612868491717      5.65477081024076     -0.00644052849921
C   1.25408291964399      4.95607811366431      0.00518741308898
C   3.75171459140595      7.76391215098033      0.00062407186893
C   4.92356605618520      7.07878077698995     -0.00143240883900
C   4.95560727132542      5.64344746336949     -0.00159282164606
C   3.70680153420475      4.94121020833308      0.00349873852374
H   -3.65852113775815      8.89082741913536      0.00358502958574
H   -1.18921332975660      8.87412108735996      0.00753844057883
H   1.28429423888630      8.86083343548850      0.00693053253426
H   3.75354208679975      8.85103527897216      0.00214659618464
H   5.86995870320703      7.61379483465560     -0.00235777588134
H   -5.78823170750226      7.67630221293400     -0.00202638095293
C   -6.09197395869619      4.99326001364347     -0.00291168518608
C   -6.12866148031747      3.58258016879823     -0.00171050815740
C   -3.66457974004527      3.56418217974434     -0.00463560277484
C   -4.89429820469869      2.86108077590057      0.00453338221034
C   -2.43733499489796      2.84761165708481      0.00719617576166
C   -1.20922785759670      3.54788693497833     -0.00648285103018
C   1.24714157216223      3.53468075142962     -0.00729145743546
C   0.01517603956900      2.83311183930540      0.00439272578912
C   2.46764517244071      2.82128997725533      0.00449278391269
C   3.70254947457969      3.52466015442405     -0.00899517692985
C   6.14498038638375      4.92757236613191     -0.00282626685777
C   6.16658835886151      3.51658447594213     -0.00065971342101
C   4.92460995845939      2.80840792535402      0.00587903281610
H   7.08990550964105      5.46688776622306     -0.00658814770723
H   -7.03104175110130      5.54268795285765     -0.00714490013730
C   -7.33969804112295      2.85841153457957     -0.00333767559888
C   -7.36488195805880      1.47032337158330     -0.00157213747140
C   -4.90350460894690      1.44442681216000     -0.00628840166334
C   -6.13225715261081      0.73993935705394      0.00600164231964
C   -3.67687480051673      0.72669714267312      0.00433931473643
C   -2.44565658606518      1.42964113326212     -0.00597039546461
C   -1.22360068130162      0.71532450163492      0.00545886906656
C   0.00763786931376      1.41738314923765      0.00392452278437
C   1.23121980774686      0.70211669058719     -0.01490206287210
C   2.46082110053113      1.40329203612573      0.00460244601878
C   3.68443025419614      0.68719842821222      0.00377365974158
C   4.91870890153864      1.39173456118907     -0.00862816189375
C   7.36980207796101      2.77948220318441     -0.00242013321349
C   7.38016266612146      1.39121750785509     -0.00087345036788
C   6.13979953912259      0.67411862320065      0.00545489144369
H   -8.27919079934664      3.40711804112415     -0.00763522772059
H   8.31511347147953      3.31811809662368     -0.00663070901292
C   -8.59175593758115      0.72483255304480     -0.00123170985383
C   -8.59902460370342     -0.63263980622873      0.00089141472904
C   -6.13981313911873     -0.67413663715361     -0.00609792660607
C   -7.38018411213749     -1.39126618958160      0.00131813493501
C   -4.91868448025621     -1.39175501803000      0.00624257154343
C   -3.68443829568458     -0.68723731573599     -0.00478966852105
C   -2.46081704024768     -1.40334517882457      0.00575341766833
C   -1.23116201232071     -0.70217386488055     -0.00636696112346
C   -0.00756962538737     -1.41741884941102      0.00108956317991
C   1.22364771588843     -0.71527537726392      0.01109518512883
C   2.44567064933149     -1.42964328900682     -0.00065482763106
C   3.67686670284649     -0.72670743155550     -0.00479541202602
C   6.13224884641929     -0.73997883984993     -0.00632338623858
C   4.90351914550401     -1.44445752054090      0.00751768830159
C   8.59901484869081      0.63260386666793     -0.00101133422380
C   8.59174548810050     -0.72485086719319      0.00072504603735
C   7.36486276438985     -1.47033266560598      0.00049486934466
H   -9.52830597181814      1.27684744919284     -0.00270163681798
H   9.54141097460619      1.17457248844457     -0.00206336648518
C   -7.36983790976868     -2.77954514593389      0.00312634335708
C   -4.92459910905015     -2.80843725734101     -0.00460528907921
C   -6.16662249566744     -3.51665219282533      0.00169655107992
C   -3.70251035970491     -3.52468154912026      0.00571878010666
C   -2.46764698511392     -2.82132596280400     -0.00632585824990
C   -0.01513347410770     -2.83314164539971     -0.00604426974092
C   -1.24712184122656     -3.53473217556300      0.00551968366725
C   1.20924506964357     -3.54791467864352      0.00805871345849
C   2.43733602215464     -2.84764173817541     -0.00608104485234
C   4.89430234377080     -2.86112296828604     -0.00526030478103
C   3.66461525504104     -3.56421984553201      0.00761911515957
C   6.12863901474565     -3.58258405771778      0.00096495711699
C   7.33967266469532     -2.85841330737039      0.00248018319869
H   -9.54144911125902     -1.17456346666430      0.00226083090216
H   9.52826186807155     -1.27691907390448      0.00197485379837
H   -8.31516504384864     -3.31814985321231      0.00729857188773
H   8.27915514249207     -3.40714078989363      0.00681973918158
C   -6.14499418870218     -4.92764727278338      0.00302254913999
C   -3.70678334799751     -4.94126171411716     -0.00679841894792
C   -4.95559005800169     -5.64349397349412      0.00116871569699
C   -2.48612132622665     -5.65478557440947      0.00614125209662
C   -1.25405833548005     -4.95612205000132     -0.00503435388927
C   1.20101257386816     -4.96928038819302     -0.00385322963129
C   -0.03033667441341     -5.66952030313900      0.00398997003238
C   3.65375010132847     -4.98074377541453     -0.00309522988330
C   2.42549269587528     -5.68117463552727      0.00628170066869
C   6.09196561781097     -4.99325796338655      0.00325918379042
C   4.89497644461045     -5.69634842095790      0.00202298796027
H   -7.08989238804069     -5.46699984223871      0.00742531082125
H   7.03105520920009     -5.54265853633254      0.00683896355417
C   -4.92354532219813     -7.07882109967734      0.00061394679214
C   -2.48534208823777     -7.08772807792913     -0.00189594564379
C   -3.75168589177895     -7.76394715763627     -0.00170126671874
C   -0.03794895698805     -7.09946487446944     -0.00168022049625
C   -1.27795610040136     -7.77290438466689     -0.00366491325785
C   2.40944432072629     -7.11402201200282     -0.00081701968533
C   1.19474993715296     -7.78618536556242     -0.00296931056689
C   4.84762105249800     -7.13126211057943      0.00168979497423
C   3.66847160587561     -7.80378799294376     -0.00065863938960
H   -5.86994035041618     -7.61383059804164      0.00215798365757
H   5.78824962538815     -7.67633218931421      0.00281691445618
H   -3.75352693944918     -8.85107156923607     -0.00353718114765
H   -1.28430440589466     -8.86087539249706     -0.00809229711623
H   1.18922157469537     -8.87416062058945     -0.00706194725726
H   3.65854661482387     -8.89086063405326     -0.00231318081200

    units angstrom      # Angstroms are the default
    no_reorient         # Geometry fixed, default
    symmetry c1         # C1 symmetry, default
}

set {
    scf_type DF         # Density fitting, faster than exact integrals
    freeze_core True    # Freeze core electrons
    basis jun-cc-pVDZ   # Jun-cc-pVDZ basis set, recommended for sSAPT0 in https://doi.org/10.1063/1.4867135
}

energy('ssapt0')        # Compute sSAPT0 energy, includes also SAPT0
--------------------------------------------------------------------------

  //              Dimer HF             //
    Molecular point group: c1
  Charge       = -1
  Multiplicity = 1
  Basis Set: JUN-CC-PVDZ
    Blend: JUN-CC-PVDZ
  Basis Set: (JUN-CC-PVDZ AUX)
    Blend: JUN-CC-PVDZ-JKFIT
  @DF-RHF Final Energy: -4073.10658381129406
    Total Energy =                      -4073.1065838112954225
 Dipole X            :         -0.0002799           -0.0000548           -0.0003347
 Dipole Y            :          0.0009378           -0.0002464            0.0006914
 Dipole Z            :        -24.6418366           33.3259863            8.6841497
 Magnitude           :                                                    8.6841498
  //            Monomer A HF           //
    Molecular point group: c1
  Multiplicity = 1
  Basis Set: JUN-CC-PVDZ
    Blend: JUN-CC-PVDZ
  Basis Set: (JUN-CC-PVDZ AUX)
    Blend: JUN-CC-PVDZ-JKFIT
  @DF-RHF Final Energy:  -422.77186005796176
    Total Energy =                       -422.7718600579617600
  //            Monomer B HF           //
    Molecular point group: c1

    Geometry (in Angstrom), charge = 0, multiplicity = 1:

       Center              X                  Y                   Z               Mass
    ------------   -----------------  -----------------  -----------------  -----------------
      Gh(B)          -0.000201921932     0.000288800891    -5.214266220659    11.009305360000
      Gh(F)          -0.000004162732     0.000014527991    -3.801481220659    18.998403162730
      Gh(F)           1.147855837268     0.675795727991    -5.685407220659    18.998403162730
      Gh(F)           0.011913897268    -1.331996472009    -5.685205220659    18.998403162730
      Gh(F)          -1.159670162732     0.656088027991    -5.685126220659    18.998403162730
         C           -3.668445426752     7.803766698073     0.387599820676    12.000000000000
         C           -4.847602882078     7.131256359331     0.385233245744    12.000000000000
         C           -4.894963461907     5.696344931522     0.384660334646    12.000000000000
         C           -3.653744841505     4.980744868950     0.392320776375    12.000000000000
         C           -2.409429284226     7.113995564665     0.387794162937    12.000000000000
         C           -2.425481506836     5.681136478894     0.380789274066    12.000000000000
         C           -1.194748179167     7.786158722300     0.389266343478    12.000000000000
         C            0.037954866205     7.099436173748     0.387095639174    12.000000000000
         C            0.030328424687     5.669504087695     0.381612254258    12.000000000000
         C           -1.200988670637     4.969284875906     0.390581988191    12.000000000000
         C            1.277953663083     7.772873971185     0.388471487734    12.000000000000
         C            2.485353921992     7.087711413228     0.386196999829    12.000000000000
         C            2.486124522185     5.654785338231     0.379259250842    12.000000000000
         C            1.254078756912     4.956092641655     0.390887192430    12.000000000000
         C            3.751710428674     7.763926678971     0.386323851210    12.000000000000
         C            4.923561893453     7.078795304981     0.384267370502    12.000000000000
         C            4.955603108594     5.643461991360     0.384106957695    12.000000000000
         C            3.706797371473     4.941224736324     0.389198517865    12.000000000000
         H           -3.658525300490     8.890841947126     0.389284808927     1.007825032230
         H           -1.189217492488     8.874135615351     0.393238219920     1.007825032230
         H            1.284290076155     8.860847963479     0.392630311875     1.007825032230
         H            3.753537924068     8.851049806963     0.387846375525     1.007825032230
         H            5.869954540475     7.613809362646     0.383342003459     1.007825032230
         H           -5.788235870234     7.676316740925     0.383673398388     1.007825032230
         C           -6.091978121428     4.993274541634     0.382788094155    12.000000000000
         C           -6.128665643049     3.582594696789     0.383989271183    12.000000000000
         C           -3.664583902777     3.564196707735     0.381064176566    12.000000000000
         C           -4.894302367430     2.861095303891     0.390233161551    12.000000000000
         C           -2.437339157630     2.847626185075     0.392895955102    12.000000000000
         C           -1.209232020328     3.547901462969     0.379216928311    12.000000000000
         C            1.247137409430     3.534695279420     0.378408321905    12.000000000000
         C            0.015171876837     2.833126367296     0.390092505130    12.000000000000
         C            2.467641009709     2.821304505246     0.390192563254    12.000000000000
         C            3.702545311848     3.524674682415     0.376704602411    12.000000000000
         C            6.144976223652     4.927586894122     0.382873512483    12.000000000000
         C            6.166584196130     3.516599003933     0.385040065920    12.000000000000
         C            4.924605795728     2.808422453345     0.391578812157    12.000000000000
         H            7.089901346909     5.466902294214     0.379111631634     1.007825032230
         H           -7.031045913833     5.542702480848     0.378554879204     1.007825032230
         C           -7.339702203855     2.858426062570     0.382362103742    12.000000000000
         C           -7.364886120791     1.470337899574     0.384127641869    12.000000000000
         C           -4.903508771679     1.444441340151     0.379411377677    12.000000000000
         C           -6.132261315343     0.739953885044     0.391701421660    12.000000000000
         C           -3.676878963248     0.726711670664     0.390039094077    12.000000000000
         C           -2.445660748797     1.429655661253     0.379729383876    12.000000000000
         C           -1.223604844033     0.715339029625     0.391158648407    12.000000000000
         C            0.007633706582     1.417397677228     0.389624302125    12.000000000000
         C            1.231215645015     0.702131218578     0.370797716469    12.000000000000
         C            2.460816937799     1.403306564116     0.390302225360    12.000000000000
         C            3.684426091464     0.687212956203     0.389473439082    12.000000000000
         C            4.918704738807     1.391749089180     0.377071617447    12.000000000000
         C            7.369797915229     2.779496731175     0.383279646127    12.000000000000
         C            7.380158503390     1.391232035846     0.384826328973    12.000000000000
         C            6.139795376391     0.674133151191     0.391154670785    12.000000000000
         H           -8.279194962078     3.407132569115     0.378064551620     1.007825032230
         H            8.315109308748     3.318132624614     0.379069070328     1.007825032230
         C           -8.591760100313     0.724847081035     0.384468069487    12.000000000000
         C           -8.599028766435    -0.632625278238     0.386591194070    12.000000000000
         C           -6.139817301850    -0.674122109163     0.379601852735    12.000000000000
         C           -7.380188274869    -1.391251661591     0.387017914276    12.000000000000
         C           -4.918688642988    -1.391740490039     0.391942350884    12.000000000000
         C           -3.684442458416    -0.687222787745     0.380910110820    12.000000000000
         C           -2.460821202979    -1.403330650834     0.391453197009    12.000000000000
         C           -1.231166175052    -0.702159336890     0.379332818217    12.000000000000
         C           -0.007573788119    -1.417404321420     0.386789342521    12.000000000000
         C            1.223643553157    -0.715260849273     0.396794964470    12.000000000000
         C            2.445666486600    -1.429628761016     0.385044951710    12.000000000000
         C            3.676862540115    -0.726692903565     0.380904367315    12.000000000000
         C            6.132244683688    -0.739964311859     0.379376393102    12.000000000000
         C            4.903514982772    -1.444442992550     0.393217467642    12.000000000000
         C            8.599010685959     0.632618394658     0.384688445117    12.000000000000
         C            8.591741325369    -0.724836339203     0.386424825378    12.000000000000
         C            7.364858601658    -1.470318137615     0.386194648685    12.000000000000
         H           -9.528310134550     1.276861977183     0.382998142523     1.007825032230
         H            9.541406811874     1.174587016435     0.383636412856     1.007825032230
         C           -7.369842072500    -2.779530617943     0.388826122698    12.000000000000
         C           -4.924603271782    -2.808422729350     0.381094490262    12.000000000000
         C           -6.166626658399    -3.516637664835     0.387396330421    12.000000000000
         C           -3.702514522437    -3.524667021130     0.391418559447    12.000000000000
         C           -2.467651147846    -2.821311434813     0.379373921091    12.000000000000
         C           -0.015137636839    -2.833127117409     0.379655509600    12.000000000000
         C           -1.247126003958    -3.534717647572     0.391219463008    12.000000000000
         C            1.209240906912    -3.547900150653     0.393758492799    12.000000000000
         C            2.437331859423    -2.847627210185     0.379618734488    12.000000000000
         C            4.894298181039    -2.861108440295     0.380439474560    12.000000000000
         C            3.664611092309    -3.564205317541     0.393318894500    12.000000000000
         C            6.128634852014    -3.582569529727     0.386664736458    12.000000000000
         C            7.339668501964    -2.858398779380     0.388179962540    12.000000000000
         H           -9.541453273991    -1.174548938674     0.387960610243     1.007825032230
         H            9.528257705340    -1.276904545914     0.387674633139     1.007825032230
         H           -8.315169206580    -3.318135325222     0.392998351229     1.007825032230
         H            8.279150979760    -3.407126261903     0.392519518522     1.007825032230
         C           -6.144998351434    -4.927632744793     0.388722328481    12.000000000000
         C           -3.706787510729    -4.941247186127     0.378901360393    12.000000000000
         C           -4.955594220733    -5.643479445504     0.386868495038    12.000000000000
         C           -2.486125488958    -5.654771046419     0.391841031437    12.000000000000
         C           -1.254062498212    -4.956107522011     0.380665425452    12.000000000000
         C            1.201008411136    -4.969265860202     0.381846549710    12.000000000000
         C           -0.030340837145    -5.669505775148     0.389689749373    12.000000000000
         C            3.653745938597    -4.980729247424     0.382604549458    12.000000000000
         C            2.425488533144    -5.681160107537     0.391981480010    12.000000000000
         C            6.091961455079    -4.993243435396     0.388958963131    12.000000000000
         C            4.894972281879    -5.696333892967     0.387722767301    12.000000000000
         H           -7.089896550772    -5.466985314248     0.393125090162     1.007825032230
         H            7.031051046468    -5.542644008342     0.392538742895     1.007825032230
         C           -4.923549484930    -7.078806571687     0.386313726133    12.000000000000
         C           -2.485346250970    -7.087713549939     0.383803833697    12.000000000000
         C           -3.751690054511    -7.763932629646     0.383998512622    12.000000000000
         C           -0.037953119720    -7.099450346479     0.384019558845    12.000000000000
         C           -1.277960263133    -7.772889856676     0.382034866083    12.000000000000
         C            2.409440157995    -7.114007484012     0.384882759655    12.000000000000
         C            1.194745774421    -7.786170837572     0.382730468774    12.000000000000
         C            4.847616889766    -7.131247582589     0.387389574315    12.000000000000
         C            3.668467443144    -7.803773464953     0.385041139951    12.000000000000
         H           -5.869944513148    -7.613816070051     0.387857762998     1.007825032230
         H            5.788245462656    -7.676317661324     0.388516693797     1.007825032230
         H           -3.753531102181    -8.851057041246     0.382162598193     1.007825032230
         H           -1.284308568626    -8.860860864507     0.377607482225     1.007825032230
         H            1.189217411964    -8.874146092599     0.378637832084     1.007825032230
         H            3.658542452092    -8.890846106063     0.383386598529     1.007825032230

  Charge       = 0
  Multiplicity = 1
  Basis Set: JUN-CC-PVDZ
    Blend: JUN-CC-PVDZ
  Basis Set: (JUN-CC-PVDZ AUX)
    Blend: JUN-CC-PVDZ-JKFIT

    Orbital Energies [Eh]
    ---------------------

    Doubly Occupied:

       1A    -11.264083     2A    -11.263736     3A    -11.263735
       4A    -11.263348     5A    -11.263345     6A    -11.263322
       7A    -11.263163     8A    -11.263160     9A    -11.263150
      10A    -11.262961    11A    -11.262816    12A    -11.262811
      13A    -11.262327    14A    -11.262324    15A    -11.262282
      16A    -11.262282    17A    -11.262199    18A    -11.262179
      19A    -11.262123    20A    -11.262089    21A    -11.262087
      22A    -11.261961    23A    -11.261958    24A    -11.261813
      25A    -11.261808    26A    -11.261788    27A    -11.261782
      28A    -11.261743    29A    -11.261735    30A    -11.261653
      31A    -11.261628    32A    -11.261625    33A    -11.261594
      34A    -11.261593    35A    -11.261579    36A    -11.261569
      37A    -11.261393    38A    -11.261384    39A    -11.261377
      40A    -11.261371    41A    -11.261366    42A    -11.261359
      43A    -11.261350    44A    -11.261334    45A    -11.261329
      46A    -11.261308    47A    -11.261304    48A    -11.261300
      49A    -11.261134    50A    -11.261099    51A    -11.261096
      52A    -11.261014    53A    -11.261013    54A    -11.260947
      55A    -11.259991    56A    -11.259978    57A    -11.259975
      58A    -11.259946    59A    -11.259944    60A    -11.259928
      61A    -11.259366    62A    -11.259341    63A    -11.259339
      64A    -11.259286    65A    -11.259284    66A    -11.259255
      67A    -11.258995    68A    -11.258977    69A    -11.258975
      70A    -11.258948    71A    -11.258945    72A    -11.258934
      73A    -11.254574    74A    -11.254573    75A    -11.254571
      76A    -11.254569    77A    -11.254564    78A    -11.254562
      79A    -11.253718    80A    -11.253717    81A    -11.253715
      82A    -11.253713    83A    -11.253711    84A    -11.253706
      85A    -11.253634    86A    -11.253632    87A    -11.253630
      88A    -11.253629    89A    -11.253627    90A    -11.253621
      91A    -11.253102    92A    -11.253101    93A    -11.253099
      94A    -11.253097    95A    -11.253092    96A    -11.253090
      97A     -1.254062    98A     -1.239100    99A     -1.239099
     100A     -1.220554   101A     -1.220550   102A     -1.215536
     103A     -1.201122   104A     -1.195689   105A     -1.188239
     106A     -1.188238   107A     -1.173842   108A     -1.173839
     109A     -1.155729   110A     -1.155725   111A     -1.152814
     112A     -1.144796   113A     -1.144793   114A     -1.128664
     115A     -1.114816   116A     -1.113235   117A     -1.112574
     118A     -1.112561   119A     -1.111689   120A     -1.088522
     121A     -1.088507   122A     -1.077031   123A     -1.077030
     124A     -1.067708   125A     -1.067679   126A     -1.065068
     127A     -1.046888   128A     -1.046880   129A     -1.040572
     130A     -1.038805   131A     -1.038804   132A     -1.025339
     133A     -1.021491   134A     -1.021441   135A     -1.007260
     136A     -1.006906   137A     -1.003875   138A     -1.000586
     139A     -1.000538   140A     -0.991142   141A     -0.971079
     142A     -0.971031   143A     -0.955959   144A     -0.955903
     145A     -0.905700   146A     -0.905658   147A     -0.905616
     148A     -0.905576   149A     -0.904447   150A     -0.892481
     151A     -0.892422   152A     -0.890460   153A     -0.890403
     154A     -0.889552   155A     -0.872290   156A     -0.869114
     157A     -0.851618   158A     -0.847966   159A     -0.847944
     160A     -0.845695   161A     -0.843119   162A     -0.834649
     163A     -0.834636   164A     -0.828185   165A     -0.828181
     166A     -0.784632   167A     -0.784621   168A     -0.783748
     169A     -0.783721   170A     -0.782380   171A     -0.782359
     172A     -0.782131   173A     -0.767076   174A     -0.760900
     175A     -0.750667   176A     -0.733557   177A     -0.727157
     178A     -0.727144   179A     -0.725178   180A     -0.724626
     181A     -0.724607   182A     -0.718590   183A     -0.713868
     184A     -0.713862   185A     -0.699658   186A     -0.699646
     187A     -0.686227   188A     -0.686034   189A     -0.686031
     190A     -0.682254   191A     -0.682244   192A     -0.678852
     193A     -0.653701   194A     -0.650953   195A     -0.650924
     196A     -0.649908   197A     -0.649892   198A     -0.649638
     199A     -0.641028   200A     -0.641002   201A     -0.640165
     202A     -0.639233   203A     -0.636109   204A     -0.636083
     205A     -0.629229   206A     -0.617752   207A     -0.615375
     208A     -0.615355   209A     -0.608881   210A     -0.608874
     211A     -0.599155   212A     -0.599118   213A     -0.598827
     214A     -0.598706   215A     -0.598680   216A     -0.598124
     217A     -0.595141   218A     -0.595129   219A     -0.594805
     220A     -0.594335   221A     -0.592043   222A     -0.592040
     223A     -0.587497   224A     -0.577855   225A     -0.577845
     226A     -0.575705   227A     -0.575701   228A     -0.573460
     229A     -0.569634   230A     -0.568232   231A     -0.568208
     232A     -0.566838   233A     -0.566827   234A     -0.560973
     235A     -0.558808   236A     -0.558790   237A     -0.558488
     238A     -0.554452   239A     -0.550604   240A     -0.547533
     241A     -0.544313   242A     -0.535027   243A     -0.534988
     244A     -0.533609   245A     -0.533587   246A     -0.528148
     247A     -0.528133   248A     -0.527895   249A     -0.517249
     250A     -0.517215   251A     -0.515400   252A     -0.515395
     253A     -0.509713   254A     -0.509697   255A     -0.498105
     256A     -0.496528   257A     -0.496502   258A     -0.493808
     259A     -0.493797   260A     -0.489490   261A     -0.481523
     262A     -0.477464   263A     -0.477461   264A     -0.474071
     265A     -0.469532   266A     -0.466610   267A     -0.466605
     268A     -0.458847   269A     -0.446791   270A     -0.446730
     271A     -0.441067   272A     -0.440812   273A     -0.440788
     274A     -0.434733   275A     -0.433952   276A     -0.407417
     277A     -0.407392   278A     -0.386450   279A     -0.386402
     280A     -0.385775   281A     -0.385774   282A     -0.383801
     283A     -0.354371   284A     -0.354355   285A     -0.350709
     286A     -0.338116   287A     -0.335646   288A     -0.335576
     289A     -0.332756   290A     -0.332750   291A     -0.307132
     292A     -0.301983   293A     -0.301920   294A     -0.300888
     295A     -0.286212   296A     -0.256506   297A     -0.253550
     298A     -0.253498   299A     -0.204302   300A     -0.204212

  @DF-RHF Final Energy: -3650.33849385385975

   => Energetics <=

    Nuclear Repulsion Energy =          15611.4211649754324753
    One-Electron Energy =              -36072.1015092544403160
    Two-Electron Energy =               16810.3418504251494596
    Total Energy =                      -3650.3384938538583810
 Dipole X            :         -0.0007819            0.0002304           -0.0005514
 Dipole Y            :          0.0011201           -0.0013052           -0.0001851
 Dipole Z            :       -437.3206736          437.3235617            0.0028880
 Magnitude           :                                                    0.0029460

    SAPT Results
  --------------------------------------------------------------------------------------------------------
    Electrostatics                 10.17639702 [mEh]       6.38578554 [kcal/mol]      26.71812669 [kJ/mol]
      Elst10,r                     10.17639702 [mEh]       6.38578554 [kcal/mol]      26.71812669 [kJ/mol]

    Exchange                        0.04453649 [mEh]       0.02794707 [kcal/mol]       0.11693055 [kJ/mol]
      Exch10                        0.04453649 [mEh]       0.02794707 [kcal/mol]       0.11693055 [kJ/mol]
      Exch10(S^2)                   0.04453772 [mEh]       0.02794784 [kcal/mol]       0.11693377 [kJ/mol]

    Induction                      -6.45083298 [mEh]      -4.04795881 [kcal/mol]     -16.93665966 [kJ/mol]
      Ind20,r                      -6.50290017 [mEh]      -4.08063146 [kcal/mol]     -17.07336204 [kJ/mol]
      Exch-Ind20,r                  0.00994503 [mEh]       0.00624060 [kcal/mol]       0.02611067 [kJ/mol]
      delta HF,r (2)                0.04212215 [mEh]       0.02643205 [kcal/mol]       0.11059170 [kJ/mol]

    Dispersion                     -1.58920089 [mEh]      -0.99723861 [kcal/mol]      -4.17244636 [kJ/mol]
      Disp20                       -1.60435657 [mEh]      -1.00674894 [kcal/mol]      -4.21223758 [kJ/mol]
      Exch-Disp20                   0.01515568 [mEh]       0.00951033 [kcal/mol]       0.03979123 [kJ/mol]
      Disp20 (SS)                  -0.80217828 [mEh]      -0.50337447 [kcal/mol]      -2.10611879 [kJ/mol]
      Disp20 (OS)                  -0.80217828 [mEh]      -0.50337447 [kcal/mol]      -2.10611879 [kJ/mol]
      Exch-Disp20 (SS)              0.01067531 [mEh]       0.00669886 [kcal/mol]       0.02802803 [kJ/mol]
      Exch-Disp20 (OS)              0.00448036 [mEh]       0.00281147 [kcal/mol]       0.01176319 [kJ/mol]

  Total HF                          3.77010053 [mEh]       2.36577380 [kcal/mol]       9.89839757 [kJ/mol]
  Total SAPT0                       2.18089964 [mEh]       1.36853518 [kcal/mol]       5.72595121 [kJ/mol]

  Special recipe for scaled SAPT0 (see Manual):
    Electrostatics sSAPT0          10.17639702 [mEh]       6.38578554 [kcal/mol]      26.71812669 [kJ/mol]
    Exchange sSAPT0                 0.04453649 [mEh]       0.02794707 [kcal/mol]       0.11693055 [kJ/mol]
    Induction sSAPT0               -6.45083381 [mEh]      -4.04795933 [kcal/mol]     -16.93666183 [kJ/mol]
    Dispersion sSAPT0              -1.58920214 [mEh]      -0.99723940 [kcal/mol]      -4.17244965 [kJ/mol]
  Total sSAPT0                      2.18089756 [mEh]       1.36853388 [kcal/mol]       5.72594576 [kJ/mol]
  --------------------------------------------------------------------------------------------------------

*** Psi4 exiting successfully. Buy a developer a beer!
