                               Psi4 1.9 release

  ==> Input File <==

--------------------------------------------------------------------------
memory 32 GB # how much memory is available ! Depends on the nodes/cores !

molecule dimer {
# monomer A
-1 1    # Charge and multiplicity
B -1.977592e-04  2.742729e-04 2.800034
F  1.123153e-16  1.430594e-17 4.212819
F  1.147860e+00  6.757812e-01 2.328893
F  1.191806e-02 -1.332011e+00 2.329095
F -1.159666e+00  6.560735e-01 2.329174
--
# monomer B
0 1     # Charge and multiplicity
C   1.22531237526482      0.70753866091955      0.00613762728373
C   1.22532433589282     -0.70753852257020     -0.00619318228664
C   -0.00000567409046      1.41496628609039     -0.00672680580738
C   2.45644923379077      1.41832825917820      0.00902448468363
C   0.00001130712078     -1.41497612663474      0.00347275151708
C   -1.22530046906674      0.70754574598412      0.00838914760619
C   2.45643823516184     -1.41832293188077     -0.00843833914343
C   -0.00000085313587      2.83680140328112     -0.00913035594137
C   3.68182717731192      0.70931832800114     -0.00808954934571
C   2.45512052870677      2.83422403348893     -0.00819210630633
C   3.68182158506039     -0.70933346742900      0.00798293467272
C   -1.22531311884624     -0.70752714354401     -0.00512042085974
C   1.22670006104402      3.54346985599427      0.00816696660346
C   0.00000526469929     -2.83678176723568      0.00832091913869
C   -2.45643555300670      1.41831729028492      0.00842454345199
C   2.45512389762097     -2.83422965658853      0.00783102630520
C   -1.22671388474763      3.54346943575023      0.00827029982280
C   4.91451777504333      1.42717324448953     -0.00160886631602
C   3.69315067131765      3.54279566454522     -0.00155906667985
C   -2.45643712022637     -1.41831290883911     -0.00846337726810
C   1.22670532178455     -3.54347386990643     -0.00780316414624
C   -2.45512491866593      2.83421703463423     -0.00818572995999
C   4.91452486062398     -1.42718653794377      0.00136387641845
C   1.22142509354026      4.97013443726031      0.00150231067809
C   4.89300870916237      2.82518837202648     -0.00039219795739
C   -1.22669652864725     -3.54347062507680     -0.00753595973677
C   -3.68181849668397      0.70932533873199     -0.00807686886569
C   3.69314758099218     -3.54280096939050      0.00148176697923
C   -1.22143177215231      4.97012866986289      0.00168580605083
C   6.13477145276790      0.68054831910577     -0.00083909176631
C   3.65678936045204      4.97295361556775     -0.00065042889723
C   -2.45512642789169     -2.83421472106065      0.00758666850712
C   -3.68181869921921     -0.70932533146830      0.00810055625144
C   4.89301309775526     -2.82519973363176      0.00021895393805
C   -0.00000059327114      5.65044773803267      0.00045449734393
C   6.13477559217374     -0.68055448207492      0.00042622874941
C   2.47813196269732      5.65357712333155      0.00063835075260
C   1.22142288457925     -4.97012668293268     -0.00129718634452
C   -3.69316190412301      3.54279732619245     -0.00139355922051
C   -1.22142804110313     -4.97011793159564     -0.00140994817719
C   -4.91452132810043      1.42717581899491     -0.00153192130862
C   3.65678749952045     -4.97295485423912      0.00080007163680
C   -2.47813805026426      5.65357479452875      0.00092287576113
C   -3.69314125872231     -3.54278984697859      0.00136564082345
C   -4.91451200321153     -1.42718062802730      0.00139857359209
C   -0.00000552908399     -5.65043791501335      0.00005899322272
C   -4.89302000425900      2.82518897091939     -0.00040227981744
C   2.47812647313991     -5.65357317188818     -0.00029052915548
C   -3.65679823041642      4.97295655404175     -0.00047374852278
C   -4.89299899901461     -2.82519139505969      0.00006491824035
C   -2.47812801824129     -5.65356579800621     -0.00056571680280
C   -6.13477002348955      0.68054913825639     -0.00086464346868
C   -3.65678835334731     -4.97294365097028      0.00058578382008
C   -6.13476456307132     -0.68055354348201      0.00040575295444
H   5.83528897565761      3.36927626695423      0.00396712770529
H   7.07385965258860      1.22821762089947     -0.00037744837300
H   4.60066374401555      5.51238117445323     -0.00014522814529
H   5.83528386714679     -3.36930568472863     -0.00423551337640
H   -0.00001167146422      6.73853104613662     -0.00389474766392
H   7.07386165167227     -1.22822657074368     -0.00008250934481
H   2.47331421164041      6.74068466339473      0.00017162982210
H   4.60066897122302     -5.51237575717576      0.00039007446835
H   -2.47331820069565      6.74068209160650      0.00047297644710
H   -0.00000978838621     -6.73852780445195      0.00458867820736
H   -5.83530143450167      3.36927132229595      0.00410314985360
H   2.47330840367253     -6.74068500242887      0.00027980126949
H   -4.60067436136587      5.51237839860371      0.00002010017831
H   -5.83527902699321     -3.36928859177951     -0.00451481925734
H   -2.47329986759855     -6.74067870613986     -0.00016951527498
H   -7.07385728692578      1.22822084484047     -0.00046143985387
H   -4.60067330624313     -5.51236229778631      0.00021776644566
H   -7.07385645456741     -1.22822025997701     -0.00017736581114

    units angstrom      # Angstroms are the default
    no_reorient         # Geometry fixed, default
    symmetry c1         # C1 symmetry, default
}

set {
    scf_type DF         # Density fitting, faster than exact integrals
    freeze_core True    # Freeze core electrons
    basis jun-cc-pVDZ   # Jun-cc-pVDZ basis set, recommended for sSAPT0 in https://doi.org/10.1063/1.4867135
}

energy('ssapt0')        # Compute sSAPT0 energy, includes also SAPT0
--------------------------------------------------------------------------

  //              Dimer HF             //
    Molecular point group: c1
  Charge       = -1
  Multiplicity = 1
  Basis Set: JUN-CC-PVDZ
    Blend: JUN-CC-PVDZ
  Basis Set: (JUN-CC-PVDZ AUX)
    Blend: JUN-CC-PVDZ-JKFIT
  @DF-RHF Final Energy: -2478.61396353017744
    Total Energy =                      -2478.6139635301769886
 Dipole X            :         -0.0007245            0.0000481           -0.0006764
 Dipole Y            :          0.0016282           -0.0001453            0.0014829
 Dipole Z            :         14.2314404          -17.1647784           -2.9333380
 Magnitude           :                                                    2.9333384
  //            Monomer A HF           //
    Molecular point group: c1
  Multiplicity = 1
  Basis Set: JUN-CC-PVDZ
    Blend: JUN-CC-PVDZ
  Basis Set: (JUN-CC-PVDZ AUX)
    Blend: JUN-CC-PVDZ-JKFIT
  @DF-RHF Final Energy:  -422.77525524048332
    Total Energy =                       -422.7752552404833182
  //            Monomer B HF           //
    Molecular point group: c1

    Geometry (in Angstrom), charge = 0, multiplicity = 1:

       Center              X                  Y                   Z               Mass
    ------------   -----------------  -----------------  -----------------  -----------------
      Gh(B)          -0.000198161052     0.000273808717     2.476581141142    11.009305360000
      Gh(F)          -0.000000401852    -0.000000464183     3.889366141142    18.998403162730
      Gh(F)           1.147859598148     0.675780735817     2.005440141142    18.998403162730
      Gh(F)           0.011917658148    -1.332011464183     2.005642141142    18.998403162730
      Gh(F)          -1.159666401852     0.656073035817     2.005721141142    18.998403162730
         C            1.225311973413     0.707538196736    -0.317315231575    12.000000000000
         C            1.225323934041    -0.707538986754    -0.329646041145    12.000000000000
         C           -0.000006075942     1.414965821907    -0.330179664666    12.000000000000
         C            2.456448831939     1.418327794995    -0.314428374175    12.000000000000
         C            0.000010905269    -1.414976590818    -0.319980107341    12.000000000000
         C           -1.225300870919     0.707545281801    -0.315063711252    12.000000000000
         C            2.456437833310    -1.418323396064    -0.331891198002    12.000000000000
         C           -0.000001254988     2.836800939098    -0.332583214800    12.000000000000
         C            3.681826775460     0.709317863818    -0.331542408204    12.000000000000
         C            2.455120126855     2.834223569306    -0.331644965165    12.000000000000
         C            3.681821183209    -0.709333931612    -0.315469924186    12.000000000000
         C           -1.225313520698    -0.707527607727    -0.328573279718    12.000000000000
         C            1.226699659192     3.543469391811    -0.315285892255    12.000000000000
         C            0.000004862847    -2.836782231419    -0.315131939720    12.000000000000
         C           -2.456435954859     1.418316826102    -0.315028315406    12.000000000000
         C            2.455123495769    -2.834230120772    -0.315621832553    12.000000000000
         C           -1.226714286599     3.543468971567    -0.315182559035    12.000000000000
         C            4.914517373191     1.427172780306    -0.325061725174    12.000000000000
         C            3.693150269466     3.542795200362    -0.325011925538    12.000000000000
         C           -2.456437522078    -1.418313373022    -0.331916236126    12.000000000000
         C            1.226704919933    -3.543474334090    -0.331256023004    12.000000000000
         C           -2.455125320518     2.834216570451    -0.331638588818    12.000000000000
         C            4.914524458772    -1.427187002127    -0.322088982440    12.000000000000
         C            1.221424691688     4.970133973077    -0.321950548180    12.000000000000
         C            4.893008307311     2.825187907843    -0.323845056816    12.000000000000
         C           -1.226696930499    -3.543471089260    -0.330988818595    12.000000000000
         C           -3.681818898536     0.709324874549    -0.331529727724    12.000000000000
         C            3.693147179140    -3.542801433574    -0.321971091879    12.000000000000
         C           -1.221432174004     4.970128205680    -0.321767052807    12.000000000000
         C            6.134771050916     0.680547854922    -0.324291950625    12.000000000000
         C            3.656788958600     4.972953151384    -0.324103287755    12.000000000000
         C           -2.455126829744    -2.834215185244    -0.315866190351    12.000000000000
         C           -3.681819101071    -0.709325795652    -0.315352302607    12.000000000000
         C            4.893012695903    -2.825200197815    -0.323233904920    12.000000000000
         C           -0.000000995123     5.650447273849    -0.322998361514    12.000000000000
         C            6.134775190322    -0.680554946258    -0.323026630109    12.000000000000
         C            2.478131560845     5.653576659148    -0.322814508106    12.000000000000
         C            1.221422482727    -4.970127147116    -0.324750045203    12.000000000000
         C           -3.693162305975     3.542796862009    -0.324846418079    12.000000000000
         C           -1.221428442955    -4.970118395779    -0.324862807035    12.000000000000
         C           -4.914521729952     1.427175354812    -0.324984780167    12.000000000000
         C            3.656787097669    -4.972955318422    -0.322652787221    12.000000000000
         C           -2.478138452116     5.653574330345    -0.322529983097    12.000000000000
         C           -3.693141660574    -3.542790311162    -0.322087218035    12.000000000000
         C           -4.914512405063    -1.427181092211    -0.322054285266    12.000000000000
         C           -0.000005930936    -5.650438379197    -0.323393865636    12.000000000000
         C           -4.893020406111     2.825188506736    -0.323855138676    12.000000000000
         C            2.478126071288    -5.653573636072    -0.323743388014    12.000000000000
         C           -3.656798632268     4.972956089858    -0.323926607381    12.000000000000
         C           -4.892999400866    -2.825191859243    -0.323387940618    12.000000000000
         C           -2.478128420093    -5.653566262190    -0.324018575661    12.000000000000
         C           -6.134770425341     0.680548674073    -0.324317502327    12.000000000000
         C           -3.656788755199    -4.972944115154    -0.322867075038    12.000000000000
         C           -6.134764964923    -0.680554007665    -0.323047105904    12.000000000000
         H            5.835288573806     3.369275802771    -0.319485731153     1.007825032230
         H            7.073859250737     1.228217156716    -0.323830307231     1.007825032230
         H            4.600663342164     5.512380710270    -0.323598087004     1.007825032230
         H            5.835283465295    -3.369306148912    -0.327688372235     1.007825032230
         H           -0.000012073316     6.738530581953    -0.327347606522     1.007825032230
         H            7.073861249820    -1.228227034927    -0.323535368203     1.007825032230
         H            2.473313809789     6.740684199211    -0.323281229036     1.007825032230
         H            4.600668569371    -5.512376221359    -0.323062784390     1.007825032230
         H           -2.473318602548     6.740681627423    -0.322979882411     1.007825032230
         H           -0.000010190238    -6.738528268635    -0.318864180651     1.007825032230
         H           -5.835301836354     3.369270858113    -0.319349709005     1.007825032230
         H            2.473308001821    -6.740685466612    -0.323173057589     1.007825032230
         H           -4.600674763218     5.512377934420    -0.323432758680     1.007825032230
         H           -5.835279428845    -3.369289055963    -0.327967678116     1.007825032230
         H           -2.473300269450    -6.740679170323    -0.323622374133     1.007825032230
         H           -7.073857688778     1.228220380657    -0.323914298712     1.007825032230
         H           -4.600673708095    -5.512362761970    -0.323235092413     1.007825032230
         H           -7.073856856419    -1.228220724160    -0.323630224669     1.007825032230

  Charge       = 0
  Multiplicity = 1
  Basis Set: JUN-CC-PVDZ
    Blend: JUN-CC-PVDZ
  Basis Set: (JUN-CC-PVDZ AUX)
    Blend: JUN-CC-PVDZ-JKFIT

    Orbital Energies [Eh]
    ---------------------

    Doubly Occupied:

       1A    -11.260719     2A    -11.260267     3A    -11.260266
       4A    -11.259473     5A    -11.259473     6A    -11.259274
       7A    -11.259022     8A    -11.258955     9A    -11.258955
      10A    -11.258637    11A    -11.258634    12A    -11.258506
      13A    -11.258455    14A    -11.258453    15A    -11.258447
      16A    -11.258413    17A    -11.258407    18A    -11.258389
      19A    -11.258387    20A    -11.258386    21A    -11.258382
      22A    -11.258321    23A    -11.258316    24A    -11.258111
      25A    -11.257291    26A    -11.257233    27A    -11.257232
      28A    -11.257100    29A    -11.257100    30A    -11.257018
      31A    -11.256384    32A    -11.256315    33A    -11.256314
      34A    -11.256208    35A    -11.256208    36A    -11.256162
      37A    -11.252272    38A    -11.252271    39A    -11.252270
      40A    -11.252268    41A    -11.252266    42A    -11.252265
      43A    -11.251364    44A    -11.251363    45A    -11.251362
      46A    -11.251346    47A    -11.251345    48A    -11.251342
      49A    -11.250834    50A    -11.250832    51A    -11.250831
      52A    -11.250829    53A    -11.250827    54A    -11.250826
      55A     -1.243964    56A     -1.219754    57A     -1.219753
      58A     -1.189499    59A     -1.189492    60A     -1.180850
      61A     -1.157534    62A     -1.148936    63A     -1.135410
      64A     -1.135403    65A     -1.113164    66A     -1.113159
      67A     -1.082370    68A     -1.082363    69A     -1.078525
      70A     -1.065956    71A     -1.065952    72A     -1.039362
      73A     -1.024192    74A     -1.021672    75A     -1.021629
      76A     -1.017706    77A     -1.012772    78A     -0.986961
      79A     -0.986915    80A     -0.961843    81A     -0.961793
      82A     -0.894259    83A     -0.894232    84A     -0.887847
      85A     -0.886095    86A     -0.886037    87A     -0.881335
      88A     -0.881288    89A     -0.861864    90A     -0.837399
      91A     -0.818168    92A     -0.816533    93A     -0.812072
      94A     -0.812063    95A     -0.794658    96A     -0.794648
      97A     -0.746557    98A     -0.744792    99A     -0.733333
     100A     -0.733324   101A     -0.732148   102A     -0.732124
     103A     -0.716435   104A     -0.698940   105A     -0.698930
     106A     -0.693530   107A     -0.693514   108A     -0.661193
     109A     -0.653012   110A     -0.651072   111A     -0.650223
     112A     -0.650217   113A     -0.639330   114A     -0.639327
     115A     -0.629654   116A     -0.627458   117A     -0.627442
     118A     -0.606470   119A     -0.605802   120A     -0.601599
     121A     -0.599697   122A     -0.599666   123A     -0.593592
     124A     -0.591119   125A     -0.591109   126A     -0.585262
     127A     -0.576381   128A     -0.576375   129A     -0.567301
     130A     -0.567286   131A     -0.565878   132A     -0.565859
     133A     -0.558643   134A     -0.554802   135A     -0.554796
     136A     -0.538561   137A     -0.538559   138A     -0.538163
     139A     -0.538157   140A     -0.529678   141A     -0.528194
     142A     -0.522829   143A     -0.522822   144A     -0.500472
     145A     -0.495575   146A     -0.493201   147A     -0.487817
     148A     -0.485023   149A     -0.481703   150A     -0.481695
     151A     -0.470343   152A     -0.470325   153A     -0.450931
     154A     -0.450853   155A     -0.439056   156A     -0.439047
     157A     -0.404703   158A     -0.404680   159A     -0.403349
     160A     -0.375410   161A     -0.375407   162A     -0.349109
     163A     -0.337523   164A     -0.336507   165A     -0.336450
     166A     -0.311044   167A     -0.298102   168A     -0.284278
     169A     -0.284224   170A     -0.224865   171A     -0.224799

  @DF-RHF Final Energy: -2055.89446298143412

   => Energetics <=

    Nuclear Repulsion Energy =           6452.5568002797772351
    One-Electron Energy =              -15636.4965227341472200
    Two-Electron Energy =                7128.0452594729358680
    Total Energy =                      -2055.8944629814341170
 Dipole X            :          0.0000005            0.0000419            0.0000424
 Dipole Y            :          0.0000783           -0.0000426            0.0000357
 Dipole Z            :        209.0482199         -209.0446056            0.0036143
 Magnitude           :                                                    0.0036147

    SAPT Results
  --------------------------------------------------------------------------------------------------------
    Electrostatics                -42.37025349 [mEh]     -26.58773547 [kcal/mol]    -111.24308522 [kJ/mol]
      Elst10,r                    -42.37025349 [mEh]     -26.58773547 [kcal/mol]    -111.24308522 [kJ/mol]

    Exchange                      131.56517120 [mEh]      82.55839135 [kcal/mol]     345.42430939 [kJ/mol]
      Exch10                      131.56517120 [mEh]      82.55839135 [kcal/mol]     345.42430939 [kJ/mol]
      Exch10(S^2)                 129.53890223 [mEh]      81.28688837 [kcal/mol]     340.10434095 [kJ/mol]

    Induction                     -33.44022597 [mEh]     -20.98405860 [kcal/mol]     -87.79730118 [kJ/mol]
      Ind20,r                     -85.22869457 [mEh]     -53.48181328 [kcal/mol]    -223.76790676 [kJ/mol]
      Exch-Ind20,r                 60.46928098 [mEh]      37.94504669 [kcal/mol]     158.76207534 [kJ/mol]
      delta HF,r (2)               -8.68081238 [mEh]      -5.44729201 [kcal/mol]     -22.79146976 [kJ/mol]

    Dispersion                    -31.85299311 [mEh]     -19.98805495 [kcal/mol]     -83.63002189 [kJ/mol]
      Disp20                      -43.63175211 [mEh]     -27.37933781 [kcal/mol]    -114.55514938 [kJ/mol]
      Exch-Disp20                  11.77875900 [mEh]       7.39128286 [kcal/mol]      30.92512748 [kJ/mol]
      Disp20 (SS)                 -21.81587605 [mEh]     -13.68966890 [kcal/mol]     -57.27757469 [kJ/mol]
      Disp20 (OS)                 -21.81587605 [mEh]     -13.68966890 [kcal/mol]     -57.27757469 [kJ/mol]
      Exch-Disp20 (SS)              6.34796176 [mEh]       3.98340615 [kcal/mol]      16.66657132 [kJ/mol]
      Exch-Disp20 (OS)              5.43079723 [mEh]       3.40787671 [kcal/mol]      14.25855617 [kJ/mol]

  Total HF                         55.75469174 [mEh]      34.98659727 [kcal/mol]     146.38392300 [kJ/mol]
  Total SAPT0                      23.90169863 [mEh]      14.99854233 [kcal/mol]      62.75390110 [kJ/mol]

  Special recipe for scaled SAPT0 (see Manual):
    Electrostatics sSAPT0         -42.37025349 [mEh]     -26.58773547 [kcal/mol]    -111.24308522 [kJ/mol]
    Exchange sSAPT0               131.56517120 [mEh]      82.55839135 [kcal/mol]     345.42430939 [kJ/mol]
    Induction sSAPT0              -30.55799661 [mEh]     -19.17543237 [kcal/mol]     -80.23000905 [kJ/mol]
    Dispersion sSAPT0             -31.29156615 [mEh]     -19.63575421 [kcal/mol]     -82.15599560 [kJ/mol]
  Total sSAPT0                     27.34535495 [mEh]      17.15946929 [kcal/mol]      71.79521952 [kJ/mol]
  --------------------------------------------------------------------------------------------------------

*** Psi4 exiting successfully. Buy a developer a beer!
