                               Psi4 1.9 release

  ==> Input File <==

--------------------------------------------------------------------------
memory 64 GB # how much memory is available ! Depends on the nodes/cores !

molecule dimer {
# monomer A
-1 1    # Charge and multiplicity
B -1.977592e-04  2.742729e-04 4.400034
F  1.123153e-16  1.430594e-17 5.812819
F  1.147860e+00  6.757812e-01 3.928893
F  1.191806e-02 -1.332011e+00 3.929095
F -1.159666e+00  6.560735e-01 3.929174
--
# monomer B
0 1     # Charge and multiplicity
C   -3.66844126402057      7.80375217008252      0.00190004133558
C   -4.84759871934653      7.13124183134024     -0.00046653359696
C   -4.89495929917518      5.69633040353158     -0.00103944469517
C   -3.65374067877320      4.98073034095895      0.00662099703436
C   -2.40942512149445      7.11398103667468      0.00209438359570
C   -2.42547734410473      5.68112195090346     -0.00491050527438
C   -1.19474401643570      7.78614419430947      0.00356656413763
C   0.03795902893699      7.09942164575698      0.00139585983271
C   0.03033258741920      5.66948955970466     -0.00408752508301
C   -1.20098450790502      4.96927034791531      0.00488220885047
C   1.27795782581485      7.77285944319479      0.00277170839332
C   2.48535808472416      7.08769688523756      0.00049722048857
C   2.48612868491717      5.65477081024076     -0.00644052849921
C   1.25408291964399      4.95607811366431      0.00518741308898
C   3.75171459140595      7.76391215098033      0.00062407186893
C   4.92356605618520      7.07878077698995     -0.00143240883900
C   4.95560727132542      5.64344746336949     -0.00159282164606
C   3.70680153420475      4.94121020833308      0.00349873852374
H   -3.65852113775815      8.89082741913536      0.00358502958574
H   -1.18921332975660      8.87412108735996      0.00753844057883
H   1.28429423888630      8.86083343548850      0.00693053253426
H   3.75354208679975      8.85103527897216      0.00214659618464
H   5.86995870320703      7.61379483465560     -0.00235777588134
H   -5.78823170750226      7.67630221293400     -0.00202638095293
C   -6.09197395869619      4.99326001364347     -0.00291168518608
C   -6.12866148031747      3.58258016879823     -0.00171050815740
C   -3.66457974004527      3.56418217974434     -0.00463560277484
C   -4.89429820469869      2.86108077590057      0.00453338221034
C   -2.43733499489796      2.84761165708481      0.00719617576166
C   -1.20922785759670      3.54788693497833     -0.00648285103018
C   1.24714157216223      3.53468075142962     -0.00729145743546
C   0.01517603956900      2.83311183930540      0.00439272578912
C   2.46764517244071      2.82128997725533      0.00449278391269
C   3.70254947457969      3.52466015442405     -0.00899517692985
C   6.14498038638375      4.92757236613191     -0.00282626685777
C   6.16658835886151      3.51658447594213     -0.00065971342101
C   4.92460995845939      2.80840792535402      0.00587903281610
H   7.08990550964105      5.46688776622306     -0.00658814770723
H   -7.03104175110130      5.54268795285765     -0.00714490013730
C   -7.33969804112295      2.85841153457957     -0.00333767559888
C   -7.36488195805880      1.47032337158330     -0.00157213747140
C   -4.90350460894690      1.44442681216000     -0.00628840166334
C   -6.13225715261081      0.73993935705394      0.00600164231964
C   -3.67687480051673      0.72669714267312      0.00433931473643
C   -2.44565658606518      1.42964113326212     -0.00597039546461
C   -1.22360068130162      0.71532450163492      0.00545886906656
C   0.00763786931376      1.41738314923765      0.00392452278437
C   1.23121980774686      0.70211669058719     -0.01490206287210
C   2.46082110053113      1.40329203612573      0.00460244601878
C   3.68443025419614      0.68719842821222      0.00377365974158
C   4.91870890153864      1.39173456118907     -0.00862816189375
C   7.36980207796101      2.77948220318441     -0.00242013321349
C   7.38016266612146      1.39121750785509     -0.00087345036788
C   6.13979953912259      0.67411862320065      0.00545489144369
H   -8.27919079934664      3.40711804112415     -0.00763522772059
H   8.31511347147953      3.31811809662368     -0.00663070901292
C   -8.59175593758115      0.72483255304480     -0.00123170985383
C   -8.59902460370342     -0.63263980622873      0.00089141472904
C   -6.13981313911873     -0.67413663715361     -0.00609792660607
C   -7.38018411213749     -1.39126618958160      0.00131813493501
C   -4.91868448025621     -1.39175501803000      0.00624257154343
C   -3.68443829568458     -0.68723731573599     -0.00478966852105
C   -2.46081704024768     -1.40334517882457      0.00575341766833
C   -1.23116201232071     -0.70217386488055     -0.00636696112346
C   -0.00756962538737     -1.41741884941102      0.00108956317991
C   1.22364771588843     -0.71527537726392      0.01109518512883
C   2.44567064933149     -1.42964328900682     -0.00065482763106
C   3.67686670284649     -0.72670743155550     -0.00479541202602
C   6.13224884641929     -0.73997883984993     -0.00632338623858
C   4.90351914550401     -1.44445752054090      0.00751768830159
C   8.59901484869081      0.63260386666793     -0.00101133422380
C   8.59174548810050     -0.72485086719319      0.00072504603735
C   7.36486276438985     -1.47033266560598      0.00049486934466
H   -9.52830597181814      1.27684744919284     -0.00270163681798
H   9.54141097460619      1.17457248844457     -0.00206336648518
C   -7.36983790976868     -2.77954514593389      0.00312634335708
C   -4.92459910905015     -2.80843725734101     -0.00460528907921
C   -6.16662249566744     -3.51665219282533      0.00169655107992
C   -3.70251035970491     -3.52468154912026      0.00571878010666
C   -2.46764698511392     -2.82132596280400     -0.00632585824990
C   -0.01513347410770     -2.83314164539971     -0.00604426974092
C   -1.24712184122656     -3.53473217556300      0.00551968366725
C   1.20924506964357     -3.54791467864352      0.00805871345849
C   2.43733602215464     -2.84764173817541     -0.00608104485234
C   4.89430234377080     -2.86112296828604     -0.00526030478103
C   3.66461525504104     -3.56421984553201      0.00761911515957
C   6.12863901474565     -3.58258405771778      0.00096495711699
C   7.33967266469532     -2.85841330737039      0.00248018319869
H   -9.54144911125902     -1.17456346666430      0.00226083090216
H   9.52826186807155     -1.27691907390448      0.00197485379837
H   -8.31516504384864     -3.31814985321231      0.00729857188773
H   8.27915514249207     -3.40714078989363      0.00681973918158
C   -6.14499418870218     -4.92764727278338      0.00302254913999
C   -3.70678334799751     -4.94126171411716     -0.00679841894792
C   -4.95559005800169     -5.64349397349412      0.00116871569699
C   -2.48612132622665     -5.65478557440947      0.00614125209662
C   -1.25405833548005     -4.95612205000132     -0.00503435388927
C   1.20101257386816     -4.96928038819302     -0.00385322963129
C   -0.03033667441341     -5.66952030313900      0.00398997003238
C   3.65375010132847     -4.98074377541453     -0.00309522988330
C   2.42549269587528     -5.68117463552727      0.00628170066869
C   6.09196561781097     -4.99325796338655      0.00325918379042
C   4.89497644461045     -5.69634842095790      0.00202298796027
H   -7.08989238804069     -5.46699984223871      0.00742531082125
H   7.03105520920009     -5.54265853633254      0.00683896355417
C   -4.92354532219813     -7.07882109967734      0.00061394679214
C   -2.48534208823777     -7.08772807792913     -0.00189594564379
C   -3.75168589177895     -7.76394715763627     -0.00170126671874
C   -0.03794895698805     -7.09946487446944     -0.00168022049625
C   -1.27795610040136     -7.77290438466689     -0.00366491325785
C   2.40944432072629     -7.11402201200282     -0.00081701968533
C   1.19474993715296     -7.78618536556242     -0.00296931056689
C   4.84762105249800     -7.13126211057943      0.00168979497423
C   3.66847160587561     -7.80378799294376     -0.00065863938960
H   -5.86994035041618     -7.61383059804164      0.00215798365757
H   5.78824962538815     -7.67633218931421      0.00281691445618
H   -3.75352693944918     -8.85107156923607     -0.00353718114765
H   -1.28430440589466     -8.86087539249706     -0.00809229711623
H   1.18922157469537     -8.87416062058945     -0.00706194725726
H   3.65854661482387     -8.89086063405326     -0.00231318081200

    units angstrom      # Angstroms are the default
    no_reorient         # Geometry fixed, default
    symmetry c1         # C1 symmetry, default
}

set {
    scf_type DF         # Density fitting, faster than exact integrals
    freeze_core True    # Freeze core electrons
    basis jun-cc-pVDZ   # Jun-cc-pVDZ basis set, recommended for sSAPT0 in https://doi.org/10.1063/1.4867135
}

energy('ssapt0')        # Compute sSAPT0 energy, includes also SAPT0
--------------------------------------------------------------------------

  //              Dimer HF             //
    Molecular point group: c1
  Charge       = -1
  Multiplicity = 1
  Basis Set: JUN-CC-PVDZ
    Blend: JUN-CC-PVDZ
  Basis Set: (JUN-CC-PVDZ AUX)
    Blend: JUN-CC-PVDZ-JKFIT
  @DF-RHF Final Energy: -4073.11110246270619
    Total Energy =                      -4073.1111024627061852
 Dipole X            :          0.0005132           -0.0000548            0.0004584
 Dipole Y            :          0.0012488           -0.0002464            0.0010024
 Dipole Z            :         19.8286529          -26.1854299           -6.3567769
 Magnitude           :                                                    6.3567770
  //            Monomer A HF           //
    Molecular point group: c1
  Multiplicity = 1
  Basis Set: JUN-CC-PVDZ
    Blend: JUN-CC-PVDZ
  Basis Set: (JUN-CC-PVDZ AUX)
    Blend: JUN-CC-PVDZ-JKFIT
  @DF-RHF Final Energy:  -422.77251998353188
    Total Energy =                       -422.7725199835318790
  //            Monomer B HF           //
    Molecular point group: c1

    Geometry (in Angstrom), charge = 0, multiplicity = 1:

       Center              X                  Y                   Z               Mass
    ------------   -----------------  -----------------  -----------------  -----------------
      Gh(B)          -0.000201921932     0.000288800891     4.096978576210    11.009305360000
      Gh(F)          -0.000004162732     0.000014527991     5.509763576210    18.998403162730
      Gh(F)           1.147855837268     0.675795727991     3.625837576210    18.998403162730
      Gh(F)           0.011913897268    -1.331996472009     3.626039576210    18.998403162730
      Gh(F)          -1.159670162732     0.656088027991     3.626118576210    18.998403162730
         C           -3.668445426752     7.803766698073    -0.301155382454    12.000000000000
         C           -4.847602882078     7.131256359331    -0.303521957387    12.000000000000
         C           -4.894963461907     5.696344931522    -0.304094868485    12.000000000000
         C           -3.653744841505     4.980744868950    -0.296434426756    12.000000000000
         C           -2.409429284226     7.113995564665    -0.300961040194    12.000000000000
         C           -2.425481506836     5.681136478894    -0.307965929064    12.000000000000
         C           -1.194748179167     7.786158722300    -0.299488859652    12.000000000000
         C            0.037954866205     7.099436173748    -0.301659563957    12.000000000000
         C            0.030328424687     5.669504087695    -0.307142948873    12.000000000000
         C           -1.200988670637     4.969284875906    -0.298173214939    12.000000000000
         C            1.277953663083     7.772873971185    -0.300283715397    12.000000000000
         C            2.485353921992     7.087711413228    -0.302558203301    12.000000000000
         C            2.486124522185     5.654785338231    -0.309495952289    12.000000000000
         C            1.254078756912     4.956092641655    -0.297868010701    12.000000000000
         C            3.751710428674     7.763926678971    -0.302431351921    12.000000000000
         C            4.923561893453     7.078795304981    -0.304487832629    12.000000000000
         C            4.955603108594     5.643461991360    -0.304648245436    12.000000000000
         C            3.706797371473     4.941224736324    -0.299556685266    12.000000000000
         H           -3.658525300490     8.890841947126    -0.299470394204     1.007825032230
         H           -1.189217492488     8.874135615351    -0.295516983211     1.007825032230
         H            1.284290076155     8.860847963479    -0.296124891256     1.007825032230
         H            3.753537924068     8.851049806963    -0.300908827605     1.007825032230
         H            5.869954540475     7.613809362646    -0.305413199671     1.007825032230
         H           -5.788235870234     7.676316740925    -0.305081804743     1.007825032230
         C           -6.091978121428     4.993274541634    -0.305967108976    12.000000000000
         C           -6.128665643049     3.582594696789    -0.304765931947    12.000000000000
         C           -3.664583902777     3.564196707735    -0.307691026565    12.000000000000
         C           -4.894302367430     2.861095303891    -0.298522041580    12.000000000000
         C           -2.437339157630     2.847626185075    -0.295859248028    12.000000000000
         C           -1.209232020328     3.547901462969    -0.309538274820    12.000000000000
         C            1.247137409430     3.534695279420    -0.310346881225    12.000000000000
         C            0.015171876837     2.833126367296    -0.298662698001    12.000000000000
         C            2.467641009709     2.821304505246    -0.298562639877    12.000000000000
         C            3.702545311848     3.524674682415    -0.312050600720    12.000000000000
         C            6.144976223652     4.927586894122    -0.305881690648    12.000000000000
         C            6.166584196130     3.516599003933    -0.303715137211    12.000000000000
         C            4.924605795728     2.808422453345    -0.297176390974    12.000000000000
         H            7.089901346909     5.466902294214    -0.309643571497     1.007825032230
         H           -7.031045913833     5.542702480848    -0.310200323927     1.007825032230
         C           -7.339702203855     2.858426062570    -0.306393099389    12.000000000000
         C           -7.364886120791     1.470337899574    -0.304627561261    12.000000000000
         C           -4.903508771679     1.444441340151    -0.309343825453    12.000000000000
         C           -6.132261315343     0.739953885044    -0.297053781470    12.000000000000
         C           -3.676878963248     0.726711670664    -0.298716109053    12.000000000000
         C           -2.445660748797     1.429655661253    -0.309025819255    12.000000000000
         C           -1.223604844033     0.715339029625    -0.297596554723    12.000000000000
         C            0.007633706582     1.417397677228    -0.299130901006    12.000000000000
         C            1.231215645015     0.702131218578    -0.317957486662    12.000000000000
         C            2.460816937799     1.403306564116    -0.298452977771    12.000000000000
         C            3.684426091464     0.687212956203    -0.299281764048    12.000000000000
         C            4.918704738807     1.391749089180    -0.311683585684    12.000000000000
         C            7.369797915229     2.779496731175    -0.305475557003    12.000000000000
         C            7.380158503390     1.391232035846    -0.303928874158    12.000000000000
         C            6.139795376391     0.674133151191    -0.297600532346    12.000000000000
         H           -8.279194962078     3.407132569115    -0.310690651510     1.007825032230
         H            8.315109308748     3.318132624614    -0.309686132803     1.007825032230
         C           -8.591760100313     0.724847081035    -0.304287133644    12.000000000000
         C           -8.599028766435    -0.632625278238    -0.302164009061    12.000000000000
         C           -6.139817301850    -0.674122109163    -0.309153350396    12.000000000000
         C           -7.380188274869    -1.391251661591    -0.301737288855    12.000000000000
         C           -4.918688642988    -1.391740490039    -0.296812852246    12.000000000000
         C           -3.684442458416    -0.687222787745    -0.307845092311    12.000000000000
         C           -2.460821202979    -1.403330650834    -0.297302006122    12.000000000000
         C           -1.231166175052    -0.702159336890    -0.309422384913    12.000000000000
         C           -0.007573788119    -1.417404321420    -0.301965860610    12.000000000000
         C            1.223643553157    -0.715260849273    -0.291960238661    12.000000000000
         C            2.445666486600    -1.429628761016    -0.303710251421    12.000000000000
         C            3.676862540115    -0.726692903565    -0.307850835816    12.000000000000
         C            6.132244683688    -0.739964311859    -0.309378810028    12.000000000000
         C            4.903514982772    -1.444442992550    -0.295537735488    12.000000000000
         C            8.599010685959     0.632618394658    -0.304066758014    12.000000000000
         C            8.591741325369    -0.724836339203    -0.302330377753    12.000000000000
         C            7.364858601658    -1.470318137615    -0.302560554445    12.000000000000
         H           -9.528310134550     1.276861977183    -0.305757060608     1.007825032230
         H            9.541406811874     1.174587016435    -0.305118790275     1.007825032230
         C           -7.369842072500    -2.779530617943    -0.299929080433    12.000000000000
         C           -4.924603271782    -2.808422729350    -0.307660712869    12.000000000000
         C           -6.166626658399    -3.516637664835    -0.301358872710    12.000000000000
         C           -3.702514522437    -3.524667021130    -0.297336643683    12.000000000000
         C           -2.467651147846    -2.821311434813    -0.309381282040    12.000000000000
         C           -0.015137636839    -2.833127117409    -0.309099693531    12.000000000000
         C           -1.247126003958    -3.534717647572    -0.297535740123    12.000000000000
         C            1.209240906912    -3.547900150653    -0.294996710331    12.000000000000
         C            2.437331859423    -2.847627210185    -0.309136468642    12.000000000000
         C            4.894298181039    -2.861108440295    -0.308315728571    12.000000000000
         C            3.664611092309    -3.564205317541    -0.295436308630    12.000000000000
         C            6.128634852014    -3.582569529727    -0.302090466673    12.000000000000
         C            7.339668501964    -2.858398779380    -0.300575240591    12.000000000000
         H           -9.541453273991    -1.174548938674    -0.300794592888     1.007825032230
         H            9.528257705340    -1.276904545914    -0.301080569992     1.007825032230
         H           -8.315169206580    -3.318135325222    -0.295756851902     1.007825032230
         H            8.279150979760    -3.407126261903    -0.296235684608     1.007825032230
         C           -6.144998351434    -4.927632744793    -0.300032874650    12.000000000000
         C           -3.706787510729    -4.941247186127    -0.309853842738    12.000000000000
         C           -4.955594220733    -5.643479445504    -0.301886708093    12.000000000000
         C           -2.486125488958    -5.654771046419    -0.296914171693    12.000000000000
         C           -1.254062498212    -4.956107522011    -0.308089777679    12.000000000000
         C            1.201008411136    -4.969265860202    -0.306908653421    12.000000000000
         C           -0.030340837145    -5.669505775148    -0.299065453758    12.000000000000
         C            3.653745938597    -4.980729247424    -0.306150653673    12.000000000000
         C            2.425488533144    -5.681160107537    -0.296773723121    12.000000000000
         C            6.091961455079    -4.993243435396    -0.299796239999    12.000000000000
         C            4.894972281879    -5.696333892967    -0.301032435830    12.000000000000
         H           -7.089896550772    -5.466985314248    -0.295630112969     1.007825032230
         H            7.031051046468    -5.542644008342    -0.296216460236     1.007825032230
         C           -4.923549484930    -7.078806571687    -0.302441476998    12.000000000000
         C           -2.485346250970    -7.087713549939    -0.304951369434    12.000000000000
         C           -3.751690054511    -7.763932629646    -0.304756690509    12.000000000000
         C           -0.037953119720    -7.099450346479    -0.304735644286    12.000000000000
         C           -1.277960263133    -7.772889856676    -0.306720337048    12.000000000000
         C            2.409440157995    -7.114007484012    -0.303872443475    12.000000000000
         C            1.194745774421    -7.786170837572    -0.306024734357    12.000000000000
         C            4.847616889766    -7.131247582589    -0.301365628816    12.000000000000
         C            3.668467443144    -7.803773464953    -0.303714063179    12.000000000000
         H           -5.869944513148    -7.613816070051    -0.300897440132     1.007825032230
         H            5.788245462656    -7.676317661324    -0.300238509334     1.007825032230
         H           -3.753531102181    -8.851057041246    -0.306592604938     1.007825032230
         H           -1.284308568626    -8.860860864507    -0.311147720906     1.007825032230
         H            1.189217411964    -8.874146092599    -0.310117371047     1.007825032230
         H            3.658542452092    -8.890846106063    -0.305368604602     1.007825032230

  Charge       = 0
  Multiplicity = 1
  Basis Set: JUN-CC-PVDZ
    Blend: JUN-CC-PVDZ
  Basis Set: (JUN-CC-PVDZ AUX)
    Blend: JUN-CC-PVDZ-JKFIT

    Orbital Energies [Eh]
    ---------------------

    Doubly Occupied:

       1A    -11.264054     2A    -11.263715     3A    -11.263712
       4A    -11.263327     5A    -11.263327     6A    -11.263288
       7A    -11.263141     8A    -11.263123     9A    -11.263119
      10A    -11.262913    11A    -11.262776    12A    -11.262771
      13A    -11.262287    14A    -11.262284    15A    -11.262234
      16A    -11.262233    17A    -11.262146    18A    -11.262131
      19A    -11.262091    20A    -11.262049    21A    -11.262047
      22A    -11.261921    23A    -11.261918    24A    -11.261778
      25A    -11.261767    26A    -11.261750    27A    -11.261744
      28A    -11.261702    29A    -11.261694    30A    -11.261603
      31A    -11.261582    32A    -11.261578    33A    -11.261552
      34A    -11.261550    35A    -11.261542    36A    -11.261528
      37A    -11.261353    38A    -11.261344    39A    -11.261338
      40A    -11.261332    41A    -11.261327    42A    -11.261321
      43A    -11.261308    44A    -11.261292    45A    -11.261288
      46A    -11.261264    47A    -11.261260    48A    -11.261255
      49A    -11.261083    50A    -11.261053    51A    -11.261048
      52A    -11.260975    53A    -11.260971    54A    -11.260911
      55A    -11.259940    56A    -11.259927    57A    -11.259924
      58A    -11.259895    59A    -11.259893    60A    -11.259877
      61A    -11.259312    62A    -11.259287    63A    -11.259284
      64A    -11.259232    65A    -11.259229    66A    -11.259200
      67A    -11.258943    68A    -11.258925    69A    -11.258923
      70A    -11.258895    71A    -11.258893    72A    -11.258881
      73A    -11.254542    74A    -11.254541    75A    -11.254538
      76A    -11.254536    77A    -11.254532    78A    -11.254530
      79A    -11.253676    80A    -11.253675    81A    -11.253670
      82A    -11.253669    83A    -11.253668    84A    -11.253664
      85A    -11.253592    86A    -11.253590    87A    -11.253586
      88A    -11.253584    89A    -11.253583    90A    -11.253580
      91A    -11.253070    92A    -11.253069    93A    -11.253066
      94A    -11.253064    95A    -11.253060    96A    -11.253058
      97A     -1.253961    98A     -1.239022    99A     -1.239021
     100A     -1.220489   101A     -1.220484   102A     -1.215454
     103A     -1.201065   104A     -1.195631   105A     -1.188159
     106A     -1.188156   107A     -1.173789   108A     -1.173786
     109A     -1.155649   110A     -1.155646   111A     -1.152730
     112A     -1.144746   113A     -1.144743   114A     -1.128590
     115A     -1.114736   116A     -1.113185   117A     -1.112499
     118A     -1.112484   119A     -1.111642   120A     -1.088450
     121A     -1.088436   122A     -1.076983   123A     -1.076982
     124A     -1.067636   125A     -1.067607   126A     -1.064989
     127A     -1.046824   128A     -1.046817   129A     -1.040502
     130A     -1.038757   131A     -1.038756   132A     -1.025261
     133A     -1.021403   134A     -1.021352   135A     -1.007203
     136A     -1.006836   137A     -1.003817   138A     -1.000509
     139A     -1.000461   140A     -0.991096   141A     -0.971010
     142A     -0.970962   143A     -0.955904   144A     -0.955848
     145A     -0.905610   146A     -0.905571   147A     -0.905568
     148A     -0.905530   149A     -0.904349   150A     -0.892388
     151A     -0.892329   152A     -0.890384   153A     -0.890326
     154A     -0.889477   155A     -0.872238   156A     -0.869075
     157A     -0.851562   158A     -0.847887   159A     -0.847865
     160A     -0.845617   161A     -0.843040   162A     -0.834587
     163A     -0.834574   164A     -0.828136   165A     -0.828132
     166A     -0.784569   167A     -0.784558   168A     -0.783679
     169A     -0.783652   170A     -0.782307   171A     -0.782287
     172A     -0.782052   173A     -0.767015   174A     -0.760811
     175A     -0.750588   176A     -0.733505   177A     -0.727092
     178A     -0.727078   179A     -0.725103   180A     -0.724563
     181A     -0.724545   182A     -0.718505   183A     -0.713789
     184A     -0.713783   185A     -0.699594   186A     -0.699581
     187A     -0.686135   188A     -0.685977   189A     -0.685974
     190A     -0.682194   191A     -0.682184   192A     -0.678787
     193A     -0.653640   194A     -0.650889   195A     -0.650859
     196A     -0.649828   197A     -0.649812   198A     -0.649585
     199A     -0.640942   200A     -0.640914   201A     -0.640108
     202A     -0.639182   203A     -0.636035   204A     -0.636008
     205A     -0.629160   206A     -0.617768   207A     -0.615322
     208A     -0.615302   209A     -0.608821   210A     -0.608814
     211A     -0.599132   212A     -0.599096   213A     -0.598758
     214A     -0.598626   215A     -0.598603   216A     -0.598048
     217A     -0.595085   218A     -0.595073   219A     -0.594738
     220A     -0.594249   221A     -0.591969   222A     -0.591966
     223A     -0.587403   224A     -0.577812   225A     -0.577802
     226A     -0.575677   227A     -0.575674   228A     -0.573400
     229A     -0.569589   230A     -0.568152   231A     -0.568129
     232A     -0.566768   233A     -0.566758   234A     -0.560929
     235A     -0.558731   236A     -0.558712   237A     -0.558443
     238A     -0.554384   239A     -0.550562   240A     -0.547490
     241A     -0.544273   242A     -0.535028   243A     -0.534991
     244A     -0.533550   245A     -0.533529   246A     -0.528093
     247A     -0.528078   248A     -0.527803   249A     -0.517173
     250A     -0.517139   251A     -0.515361   252A     -0.515355
     253A     -0.509658   254A     -0.509642   255A     -0.498043
     256A     -0.496465   257A     -0.496439   258A     -0.493800
     259A     -0.493789   260A     -0.489444   261A     -0.481467
     262A     -0.477426   263A     -0.477423   264A     -0.474010
     265A     -0.469456   266A     -0.466540   267A     -0.466535
     268A     -0.458805   269A     -0.446697   270A     -0.446637
     271A     -0.441037   272A     -0.440775   273A     -0.440751
     274A     -0.434693   275A     -0.433916   276A     -0.407378
     277A     -0.407354   278A     -0.386410   279A     -0.386362
     280A     -0.385737   281A     -0.385736   282A     -0.383756
     283A     -0.354321   284A     -0.354305   285A     -0.350662
     286A     -0.338101   287A     -0.335599   288A     -0.335528
     289A     -0.332718   290A     -0.332711   291A     -0.307067
     292A     -0.301942   293A     -0.301880   294A     -0.300851
     295A     -0.286178   296A     -0.256473   297A     -0.253501
     298A     -0.253448   299A     -0.204265   300A     -0.204176

  @DF-RHF Final Energy: -3650.33956531951617

   => Energetics <=

    Nuclear Repulsion Energy =          15611.4211649754324753
    One-Electron Energy =              -36072.1361621524847578
    Two-Electron Energy =               16810.3754318575374782
    Total Energy =                      -3650.3395653195148043
 Dipole X            :         -0.0005748            0.0002304           -0.0003443
 Dipole Y            :          0.0012110           -0.0013052           -0.0000943
 Dipole Z            :        343.6059720         -343.6116592           -0.0056872
 Magnitude           :                                                    0.0056984

    SAPT Results
  --------------------------------------------------------------------------------------------------------
    Electrostatics                 11.83112360 [mEh]       7.42414214 [kcal/mol]      31.06261072 [kJ/mol]
      Elst10,r                     11.83112360 [mEh]       7.42414214 [kcal/mol]      31.06261072 [kJ/mol]

    Exchange                        0.51624257 [mEh]       0.32394711 [kcal/mol]       1.35539469 [kJ/mol]
      Exch10                        0.51624257 [mEh]       0.32394711 [kcal/mol]       1.35539469 [kJ/mol]
      Exch10(S^2)                   0.51626986 [mEh]       0.32396423 [kcal/mol]       1.35546633 [kJ/mol]

    Induction                     -11.36452583 [mEh]      -7.13134762 [kcal/mol]     -29.83755845 [kJ/mol]
      Ind20,r                     -11.49364581 [mEh]      -7.21237164 [kcal/mol]     -30.17656292 [kJ/mol]
      Exch-Ind20,r                  0.10436514 [mEh]       0.06549011 [kcal/mol]       0.27401064 [kJ/mol]
      delta HF,r (2)                0.02475484 [mEh]       0.01553390 [kcal/mol]       0.06499383 [kJ/mol]

    Dispersion                     -4.17875129 [mEh]      -2.62220602 [kcal/mol]     -10.97131000 [kJ/mol]
      Disp20                       -4.30088905 [mEh]      -2.69884862 [kcal/mol]     -11.29198265 [kJ/mol]
      Exch-Disp20                   0.12213776 [mEh]       0.07664260 [kcal/mol]       0.32067264 [kJ/mol]
      Disp20 (SS)                  -2.15044453 [mEh]      -1.34942431 [kcal/mol]      -5.64599132 [kJ/mol]
      Disp20 (OS)                  -2.15044453 [mEh]      -1.34942431 [kcal/mol]      -5.64599132 [kJ/mol]
      Exch-Disp20 (SS)              0.08096482 [mEh]       0.05080619 [kcal/mol]       0.21257311 [kJ/mol]
      Exch-Disp20 (OS)              0.04117294 [mEh]       0.02583641 [kcal/mol]       0.10809953 [kJ/mol]

  Total HF                          0.98284034 [mEh]       0.61674163 [kcal/mol]       2.58044696 [kJ/mol]
  Total SAPT0                      -3.19591095 [mEh]      -2.00546440 [kcal/mol]      -8.39086304 [kJ/mol]

  Special recipe for scaled SAPT0 (see Manual):
    Electrostatics sSAPT0          11.83112360 [mEh]       7.42414214 [kcal/mol]      31.06261072 [kJ/mol]
    Exchange sSAPT0                 0.51624257 [mEh]       0.32394711 [kcal/mol]       1.35539469 [kJ/mol]
    Induction sSAPT0              -11.36454237 [mEh]      -7.13135801 [kcal/mol]     -29.83760189 [kJ/mol]
    Dispersion sSAPT0              -4.17877065 [mEh]      -2.62221817 [kcal/mol]     -10.97136084 [kJ/mol]
  Total sSAPT0                     -3.19594686 [mEh]      -2.00548693 [kcal/mol]      -8.39095732 [kJ/mol]
  --------------------------------------------------------------------------------------------------------

*** Psi4 exiting successfully. Buy a developer a beer!
