                               Psi4 1.9 release

  ==> Input File <==

--------------------------------------------------------------------------
memory 64 GB # how much memory is available ! Depends on the nodes/cores !

molecule dimer {
# monomer A
+1 1    # Charge and multiplicity
C  0.680067 1.417258 -6.815929
C -0.680504 1.419286 -6.815545
N -1.085635 1.420284 -5.497221
C  0.000108 1.423560 -4.715820
C -2.477365 1.469690 -5.029242
N  1.085222 1.420284 -5.497221
H  1.385146 1.409430 -7.633368
H -1.385302 1.419096 -7.633214
H -0.000009 1.425307 -3.634731
C  2.478117 1.403392 -5.032123
H  2.490592 1.430737 -3.941870
H  2.967028 0.489946 -5.379299
H  3.001428 2.278875 -5.423595
H -2.857359 2.491761 -5.109201
H -3.082679 0.799606 -5.642306
H -2.518128 1.142706 -3.989294
--
# monomer B
0 1     # Charge and multiplicity
C   -3.66844126402057      7.80375217008252      0.00190004133558
C   -4.84759871934653      7.13124183134024     -0.00046653359696
C   -4.89495929917518      5.69633040353158     -0.00103944469517
C   -3.65374067877320      4.98073034095895      0.00662099703436
C   -2.40942512149445      7.11398103667468      0.00209438359570
C   -2.42547734410473      5.68112195090346     -0.00491050527438
C   -1.19474401643570      7.78614419430947      0.00356656413763
C   0.03795902893699      7.09942164575698      0.00139585983271
C   0.03033258741920      5.66948955970466     -0.00408752508301
C   -1.20098450790502      4.96927034791531      0.00488220885047
C   1.27795782581485      7.77285944319479      0.00277170839332
C   2.48535808472416      7.08769688523756      0.00049722048857
C   2.48612868491717      5.65477081024076     -0.00644052849921
C   1.25408291964399      4.95607811366431      0.00518741308898
C   3.75171459140595      7.76391215098033      0.00062407186893
C   4.92356605618520      7.07878077698995     -0.00143240883900
C   4.95560727132542      5.64344746336949     -0.00159282164606
C   3.70680153420475      4.94121020833308      0.00349873852374
H   -3.65852113775815      8.89082741913536      0.00358502958574
H   -1.18921332975660      8.87412108735996      0.00753844057883
H   1.28429423888630      8.86083343548850      0.00693053253426
H   3.75354208679975      8.85103527897216      0.00214659618464
H   5.86995870320703      7.61379483465560     -0.00235777588134
H   -5.78823170750226      7.67630221293400     -0.00202638095293
C   -6.09197395869619      4.99326001364347     -0.00291168518608
C   -6.12866148031747      3.58258016879823     -0.00171050815740
C   -3.66457974004527      3.56418217974434     -0.00463560277484
C   -4.89429820469869      2.86108077590057      0.00453338221034
C   -2.43733499489796      2.84761165708481      0.00719617576166
C   -1.20922785759670      3.54788693497833     -0.00648285103018
C   1.24714157216223      3.53468075142962     -0.00729145743546
C   0.01517603956900      2.83311183930540      0.00439272578912
C   2.46764517244071      2.82128997725533      0.00449278391269
C   3.70254947457969      3.52466015442405     -0.00899517692985
C   6.14498038638375      4.92757236613191     -0.00282626685777
C   6.16658835886151      3.51658447594213     -0.00065971342101
C   4.92460995845939      2.80840792535402      0.00587903281610
H   7.08990550964105      5.46688776622306     -0.00658814770723
H   -7.03104175110130      5.54268795285765     -0.00714490013730
C   -7.33969804112295      2.85841153457957     -0.00333767559888
C   -7.36488195805880      1.47032337158330     -0.00157213747140
C   -4.90350460894690      1.44442681216000     -0.00628840166334
C   -6.13225715261081      0.73993935705394      0.00600164231964
C   -3.67687480051673      0.72669714267312      0.00433931473643
C   -2.44565658606518      1.42964113326212     -0.00597039546461
C   -1.22360068130162      0.71532450163492      0.00545886906656
C   0.00763786931376      1.41738314923765      0.00392452278437
C   1.23121980774686      0.70211669058719     -0.01490206287210
C   2.46082110053113      1.40329203612573      0.00460244601878
C   3.68443025419614      0.68719842821222      0.00377365974158
C   4.91870890153864      1.39173456118907     -0.00862816189375
C   7.36980207796101      2.77948220318441     -0.00242013321349
C   7.38016266612146      1.39121750785509     -0.00087345036788
C   6.13979953912259      0.67411862320065      0.00545489144369
H   -8.27919079934664      3.40711804112415     -0.00763522772059
H   8.31511347147953      3.31811809662368     -0.00663070901292
C   -8.59175593758115      0.72483255304480     -0.00123170985383
C   -8.59902460370342     -0.63263980622873      0.00089141472904
C   -6.13981313911873     -0.67413663715361     -0.00609792660607
C   -7.38018411213749     -1.39126618958160      0.00131813493501
C   -4.91868448025621     -1.39175501803000      0.00624257154343
C   -3.68443829568458     -0.68723731573599     -0.00478966852105
C   -2.46081704024768     -1.40334517882457      0.00575341766833
C   -1.23116201232071     -0.70217386488055     -0.00636696112346
C   -0.00756962538737     -1.41741884941102      0.00108956317991
C   1.22364771588843     -0.71527537726392      0.01109518512883
C   2.44567064933149     -1.42964328900682     -0.00065482763106
C   3.67686670284649     -0.72670743155550     -0.00479541202602
C   6.13224884641929     -0.73997883984993     -0.00632338623858
C   4.90351914550401     -1.44445752054090      0.00751768830159
C   8.59901484869081      0.63260386666793     -0.00101133422380
C   8.59174548810050     -0.72485086719319      0.00072504603735
C   7.36486276438985     -1.47033266560598      0.00049486934466
H   -9.52830597181814      1.27684744919284     -0.00270163681798
H   9.54141097460619      1.17457248844457     -0.00206336648518
C   -7.36983790976868     -2.77954514593389      0.00312634335708
C   -4.92459910905015     -2.80843725734101     -0.00460528907921
C   -6.16662249566744     -3.51665219282533      0.00169655107992
C   -3.70251035970491     -3.52468154912026      0.00571878010666
C   -2.46764698511392     -2.82132596280400     -0.00632585824990
C   -0.01513347410770     -2.83314164539971     -0.00604426974092
C   -1.24712184122656     -3.53473217556300      0.00551968366725
C   1.20924506964357     -3.54791467864352      0.00805871345849
C   2.43733602215464     -2.84764173817541     -0.00608104485234
C   4.89430234377080     -2.86112296828604     -0.00526030478103
C   3.66461525504104     -3.56421984553201      0.00761911515957
C   6.12863901474565     -3.58258405771778      0.00096495711699
C   7.33967266469532     -2.85841330737039      0.00248018319869
H   -9.54144911125902     -1.17456346666430      0.00226083090216
H   9.52826186807155     -1.27691907390448      0.00197485379837
H   -8.31516504384864     -3.31814985321231      0.00729857188773
H   8.27915514249207     -3.40714078989363      0.00681973918158
C   -6.14499418870218     -4.92764727278338      0.00302254913999
C   -3.70678334799751     -4.94126171411716     -0.00679841894792
C   -4.95559005800169     -5.64349397349412      0.00116871569699
C   -2.48612132622665     -5.65478557440947      0.00614125209662
C   -1.25405833548005     -4.95612205000132     -0.00503435388927
C   1.20101257386816     -4.96928038819302     -0.00385322963129
C   -0.03033667441341     -5.66952030313900      0.00398997003238
C   3.65375010132847     -4.98074377541453     -0.00309522988330
C   2.42549269587528     -5.68117463552727      0.00628170066869
C   6.09196561781097     -4.99325796338655      0.00325918379042
C   4.89497644461045     -5.69634842095790      0.00202298796027
H   -7.08989238804069     -5.46699984223871      0.00742531082125
H   7.03105520920009     -5.54265853633254      0.00683896355417
C   -4.92354532219813     -7.07882109967734      0.00061394679214
C   -2.48534208823777     -7.08772807792913     -0.00189594564379
C   -3.75168589177895     -7.76394715763627     -0.00170126671874
C   -0.03794895698805     -7.09946487446944     -0.00168022049625
C   -1.27795610040136     -7.77290438466689     -0.00366491325785
C   2.40944432072629     -7.11402201200282     -0.00081701968533
C   1.19474993715296     -7.78618536556242     -0.00296931056689
C   4.84762105249800     -7.13126211057943      0.00168979497423
C   3.66847160587561     -7.80378799294376     -0.00065863938960
H   -5.86994035041618     -7.61383059804164      0.00215798365757
H   5.78824962538815     -7.67633218931421      0.00281691445618
H   -3.75352693944918     -8.85107156923607     -0.00353718114765
H   -1.28430440589466     -8.86087539249706     -0.00809229711623
H   1.18922157469537     -8.87416062058945     -0.00706194725726
H   3.65854661482387     -8.89086063405326     -0.00231318081200

    units angstrom      # Angstroms are the default
    no_reorient         # Geometry fixed, default
    symmetry c1         # C1 symmetry, default
}

set {
    scf_type DF         # Density fitting, faster than exact integrals
    freeze_core True    # Freeze core electrons
    basis jun-cc-pVDZ   # Jun-cc-pVDZ basis set, recommended for sSAPT0 in https://doi.org/10.1063/1.4867135
}

energy('ssapt0')        # Compute sSAPT0 energy, includes also SAPT0
--------------------------------------------------------------------------

  //              Dimer HF             //
    Molecular point group: c1
  Charge       = 1
  Multiplicity = 1
  Basis Set: JUN-CC-PVDZ
    Blend: JUN-CC-PVDZ
  Basis Set: (JUN-CC-PVDZ AUX)
    Blend: JUN-CC-PVDZ-JKFIT
  @DF-RHF Final Energy: -3953.65518200843871
    Total Energy =                      -3953.6551820084387145
 Dipole X            :         -0.0030197            0.0004804           -0.0025393
 Dipole Y            :         -7.0772929            8.7122315            1.6349386
 Dipole Z            :         24.1951174          -32.1237390           -7.9286216
 Magnitude           :                                                    8.0954352
  //            Monomer A HF           //
    Molecular point group: c1
  Multiplicity = 1
  Basis Set: JUN-CC-PVDZ
    Blend: JUN-CC-PVDZ
  Basis Set: (JUN-CC-PVDZ AUX)
    Blend: JUN-CC-PVDZ-JKFIT
  @DF-RHF Final Energy:  -303.29759421192790
    Total Energy =                       -303.2975942119279011
  //            Monomer B HF           //
    Molecular point group: c1

    Geometry (in Angstrom), charge = 0, multiplicity = 1:

       Center              X                  Y                   Z               Mass
    ------------   -----------------  -----------------  -----------------  -----------------
      Gh(C)           0.680062820275     1.308604348936    -6.388978034514    12.000000000000
      Gh(C)          -0.680508179725     1.310632348936    -6.388594034514    12.000000000000
      Gh(N)          -1.085639179725     1.311630348936    -5.070270034514    14.003074004430
      Gh(C)           0.000103820275     1.314906348936    -4.288869034514    12.000000000000
      Gh(C)          -2.477369179725     1.361036348936    -4.602291034514    12.000000000000
      Gh(N)           1.085217820275     1.311630348936    -5.070270034514    14.003074004430
      Gh(H)           1.385141820275     1.300776348936    -7.206417034514     1.007825032230
      Gh(H)          -1.385306179725     1.310442348936    -7.206263034514     1.007825032230
      Gh(H)          -0.000013179725     1.316653348936    -3.207780034514     1.007825032230
      Gh(C)           2.478112820275     1.294738348936    -4.605172034514    12.000000000000
      Gh(H)           2.490587820275     1.322083348936    -3.514919034514     1.007825032230
      Gh(H)           2.967023820275     0.381292348936    -4.952348034514     1.007825032230
      Gh(H)           3.001423820275     2.170221348936    -4.996644034514     1.007825032230
      Gh(H)          -2.857363179725     2.383107348936    -4.682250034514     1.007825032230
      Gh(H)          -3.082683179725     0.690952348936    -5.215355034514     1.007825032230
      Gh(H)          -2.518132179725     1.034052348936    -3.562343034514     1.007825032230
         C           -3.668445443746     7.695098519018     0.428851006822    12.000000000000
         C           -4.847602899072     7.022588180276     0.426484431889    12.000000000000
         C           -4.894963478901     5.587676752467     0.425911520791    12.000000000000
         C           -3.653744858499     4.872076689895     0.433571962521    12.000000000000
         C           -2.409429301220     7.005327385610     0.429045349082    12.000000000000
         C           -2.425481523830     5.572468299839     0.422040460212    12.000000000000
         C           -1.194748196161     7.677490543245     0.430517529624    12.000000000000
         C            0.037954849212     6.990767994693     0.428346825319    12.000000000000
         C            0.030328407694     5.560835908640     0.422863440403    12.000000000000
         C           -1.200988687630     4.860616696851     0.431833174337    12.000000000000
         C            1.277953646089     7.664205792130     0.429722673879    12.000000000000
         C            2.485353904999     6.979043234173     0.427448185975    12.000000000000
         C            2.486124505192     5.546117159176     0.420510436987    12.000000000000
         C            1.254078739919     4.847424462600     0.432138378575    12.000000000000
         C            3.751710411681     7.655258499916     0.427575037355    12.000000000000
         C            4.923561876460     6.970127125926     0.425518556647    12.000000000000
         C            4.955603091600     5.534793812305     0.425358143840    12.000000000000
         C            3.706797354479     4.832556557269     0.430449704010    12.000000000000
         H           -3.658525317484     8.782173768071     0.430535995072     1.007825032230
         H           -1.189217509482     8.765467436296     0.434489406065     1.007825032230
         H            1.284290059161     8.752179784424     0.433881498020     1.007825032230
         H            3.753537907074     8.742381627908     0.429097561671     1.007825032230
         H            5.869954523482     7.505141183591     0.424593189605     1.007825032230
         H           -5.788235887228     7.567648561870     0.424924584533     1.007825032230
         C           -6.091978138422     4.884606362579     0.424039280300    12.000000000000
         C           -6.128665660043     3.473926517734     0.425240457329    12.000000000000
         C           -3.664583919771     3.455528528680     0.422315362711    12.000000000000
         C           -4.894302384424     2.752427124836     0.431484347697    12.000000000000
         C           -2.437339174623     2.738958006020     0.434147141248    12.000000000000
         C           -1.209232037322     3.439233283914     0.420468114456    12.000000000000
         C            1.247137392437     3.426027100365     0.419659508051    12.000000000000
         C            0.015171859844     2.724458188241     0.431343691275    12.000000000000
         C            2.467640992715     2.712636326191     0.431443749399    12.000000000000
         C            3.702545294854     3.416006503360     0.417955788556    12.000000000000
         C            6.144976206658     4.818918715067     0.424124698628    12.000000000000
         C            6.166584179136     3.407930824878     0.426291252065    12.000000000000
         C            4.924605778734     2.699754274290     0.432829998302    12.000000000000
         H            7.089901329916     5.358234115159     0.420362817779     1.007825032230
         H           -7.031045930827     5.434034301793     0.419806065349     1.007825032230
         C           -7.339702220848     2.749757883515     0.423613289887    12.000000000000
         C           -7.364886137784     1.361669720519     0.425378828015    12.000000000000
         C           -4.903508788672     1.335773161096     0.420662563823    12.000000000000
         C           -6.132261332336     0.631285705989     0.432952607806    12.000000000000
         C           -3.676878980242     0.618043491609     0.431290280223    12.000000000000
         C           -2.445660765791     1.320987482198     0.420980570022    12.000000000000
         C           -1.223604861027     0.606670850570     0.432409834553    12.000000000000
         C            0.007633689588     1.308729498173     0.430875488271    12.000000000000
         C            1.231215628021     0.593463039523     0.412048902614    12.000000000000
         C            2.460816920806     1.294638385061     0.431553411505    12.000000000000
         C            3.684426074471     0.578544777148     0.430724625228    12.000000000000
         C            4.918704721813     1.283080910125     0.418322803592    12.000000000000
         C            7.369797898236     2.670828552120     0.424530832273    12.000000000000
         C            7.380158486396     1.282563856791     0.426077515118    12.000000000000
         C            6.139795359397     0.565464972136     0.432405856930    12.000000000000
         H           -8.279194979072     3.298464390060     0.419315737766     1.007825032230
         H            8.315109291754     3.209464445559     0.420320256473     1.007825032230
         C           -8.591760117307     0.616178901980     0.425719255632    12.000000000000
         C           -8.599028783429    -0.741293457293     0.427842380215    12.000000000000
         C           -6.139817318844    -0.782790288218     0.420853038880    12.000000000000
         C           -7.380188291863    -1.499919840646     0.428269100421    12.000000000000
         C           -4.918688659982    -1.500408669094     0.433193537030    12.000000000000
         C           -3.684442475410    -0.795890966800     0.422161296965    12.000000000000
         C           -2.460821219973    -1.511998829889     0.432704383154    12.000000000000
         C           -1.231166192046    -0.810827515945     0.420584004363    12.000000000000
         C           -0.007573805113    -1.526072500475     0.428040528666    12.000000000000
         C            1.223643536163    -0.823929028328     0.438046150615    12.000000000000
         C            2.445666469606    -1.538296940071     0.426296137855    12.000000000000
         C            3.676862523121    -0.835361082620     0.422155553460    12.000000000000
         C            6.132244666694    -0.848632490914     0.420627579248    12.000000000000
         C            4.903514965779    -1.553111171605     0.434468653788    12.000000000000
         C            8.599010668965     0.523950215603     0.425939631262    12.000000000000
         C            8.591741308375    -0.833504518258     0.427676011524    12.000000000000
         C            7.364858584664    -1.578986316670     0.427445834831    12.000000000000
         H           -9.528310151544     1.168193798128     0.424249328668     1.007825032230
         H            9.541406794881     1.065918837380     0.424887599001     1.007825032230
         C           -7.369842089494    -2.888198796998     0.430077308843    12.000000000000
         C           -4.924603288776    -2.917090908405     0.422345676407    12.000000000000
         C           -6.166626675393    -3.625305843890     0.428647516566    12.000000000000
         C           -3.702514539430    -3.633335200185     0.432669745593    12.000000000000
         C           -2.467651164839    -2.929979613868     0.420625107236    12.000000000000
         C           -0.015137653833    -2.941795296464     0.420906695745    12.000000000000
         C           -1.247126020952    -3.643385826627     0.432470649153    12.000000000000
         C            1.209240889918    -3.656568329708     0.435009678945    12.000000000000
         C            2.437331842429    -2.956295389240     0.420869920634    12.000000000000
         C            4.894298164045    -2.969776619350     0.421690660705    12.000000000000
         C            3.664611075316    -3.672873496596     0.434570080646    12.000000000000
         C            6.128634835020    -3.691237708782     0.427915922603    12.000000000000
         C            7.339668484970    -2.967066958435     0.429431148685    12.000000000000
         H           -9.541453290984    -1.283217117729     0.429211796388     1.007825032230
         H            9.528257688346    -1.385572724969     0.428925819285     1.007825032230
         H           -8.315169223574    -3.426803504277     0.434249537374     1.007825032230
         H            8.279150962767    -3.515794440958     0.433770704668     1.007825032230
         C           -6.144998368428    -5.036300923848     0.429973514626    12.000000000000
         C           -3.706787527723    -5.049915365182     0.420152546538    12.000000000000
         C           -4.955594237727    -5.752147624559     0.428119681183    12.000000000000
         C           -2.486125505952    -5.763439225474     0.433092217583    12.000000000000
         C           -1.254062515205    -5.064775701066     0.421916611597    12.000000000000
         C            1.201008394143    -5.077934039257     0.423097735855    12.000000000000
         C           -0.030340854139    -5.778173954203     0.430940935519    12.000000000000
         C            3.653745921603    -5.089397426479     0.423855735603    12.000000000000
         C            2.425488516150    -5.789828286592     0.433232666155    12.000000000000
         C            6.091961438086    -5.101911614451     0.430210149277    12.000000000000
         C            4.894972264885    -5.805002072022     0.428973953446    12.000000000000
         H           -7.089896567766    -5.575653493303     0.434376276307     1.007825032230
         H            7.031051029475    -5.651312187397     0.433789929040     1.007825032230
         C           -4.923549501924    -7.187474750742     0.427564912278    12.000000000000
         C           -2.485346267963    -7.196381728994     0.425055019842    12.000000000000
         C           -3.751690071504    -7.872600808701     0.425249698767    12.000000000000
         C           -0.037953136713    -7.208118525534     0.425270744990    12.000000000000
         C           -1.277960280127    -7.881558035731     0.423286052228    12.000000000000
         C            2.409440141001    -7.222675663067     0.426133945801    12.000000000000
         C            1.194745757428    -7.894839016627     0.423981654919    12.000000000000
         C            4.847616872773    -7.239915761644     0.428640760460    12.000000000000
         C            3.668467426150    -7.912441644008     0.426292326097    12.000000000000
         H           -5.869944530142    -7.722484249106     0.429108949144     1.007825032230
         H            5.788245445663    -7.784985840379     0.429767879942     1.007825032230
         H           -3.753531119175    -8.959725220301     0.423413784339     1.007825032230
         H           -1.284308585620    -8.969529043562     0.418858668370     1.007825032230
         H            1.189217394970    -8.982814271654     0.419889018229     1.007825032230
         H            3.658542435098    -8.999514285118     0.424637784674     1.007825032230

  Charge       = 0
  Multiplicity = 1
  Basis Set: JUN-CC-PVDZ
    Blend: JUN-CC-PVDZ
  Basis Set: (JUN-CC-PVDZ AUX)
    Blend: JUN-CC-PVDZ-JKFIT

    Orbital Energies [Eh]
    ---------------------

    Doubly Occupied:

       1A    -11.264006     2A    -11.263680     3A    -11.263661
       4A    -11.263325     5A    -11.263309     6A    -11.263277
       7A    -11.263121     8A    -11.263106     9A    -11.263084
      10A    -11.262919    11A    -11.262767    12A    -11.262765
      13A    -11.262285    14A    -11.262281    15A    -11.262225
      16A    -11.262205    17A    -11.262150    18A    -11.262124
      19A    -11.262082    20A    -11.262042    21A    -11.262039
      22A    -11.261906    23A    -11.261884    24A    -11.261767
      25A    -11.261755    26A    -11.261737    27A    -11.261730
      28A    -11.261689    29A    -11.261676    30A    -11.261602
      31A    -11.261573    32A    -11.261571    33A    -11.261545
      34A    -11.261543    35A    -11.261523    36A    -11.261492
      37A    -11.261347    38A    -11.261339    39A    -11.261327
      40A    -11.261319    41A    -11.261311    42A    -11.261305
      43A    -11.261299    44A    -11.261284    45A    -11.261280
      46A    -11.261263    47A    -11.261250    48A    -11.261242
      49A    -11.261085    50A    -11.261053    51A    -11.261050
      52A    -11.260975    53A    -11.260969    54A    -11.260902
      55A    -11.259943    56A    -11.259919    57A    -11.259912
      58A    -11.259891    59A    -11.259880    60A    -11.259862
      61A    -11.259315    62A    -11.259282    63A    -11.259280
      64A    -11.259231    65A    -11.259226    66A    -11.259194
      67A    -11.258944    68A    -11.258919    69A    -11.258912
      70A    -11.258892    71A    -11.258881    72A    -11.258866
      73A    -11.254540    74A    -11.254536    75A    -11.254527
      76A    -11.254525    77A    -11.254519    78A    -11.254517
      79A    -11.253679    80A    -11.253669    81A    -11.253665
      82A    -11.253656    83A    -11.253653    84A    -11.253646
      85A    -11.253595    86A    -11.253584    87A    -11.253580
      88A    -11.253571    89A    -11.253568    90A    -11.253561
      91A    -11.253068    92A    -11.253064    93A    -11.253055
      94A    -11.253053    95A    -11.253046    96A    -11.253045
      97A     -1.253966    98A     -1.239019    99A     -1.239002
     100A     -1.220477   101A     -1.220468   102A     -1.215460
     103A     -1.201050   104A     -1.195613   105A     -1.188165
     106A     -1.188150   107A     -1.173772   108A     -1.173770
     109A     -1.155643   110A     -1.155638   111A     -1.152734
     112A     -1.144730   113A     -1.144727   114A     -1.128579
     115A     -1.114728   116A     -1.113170   117A     -1.112505
     118A     -1.112480   119A     -1.111625   120A     -1.088441
     121A     -1.088426   122A     -1.076969   123A     -1.076967
     124A     -1.067627   125A     -1.067597   126A     -1.064985
     127A     -1.046811   128A     -1.046802   129A     -1.040490
     130A     -1.038742   131A     -1.038740   132A     -1.025254
     133A     -1.021408   134A     -1.021348   135A     -1.007187
     136A     -1.006817   137A     -1.003803   138A     -1.000504
     139A     -1.000452   140A     -0.991082   141A     -0.971000
     142A     -0.970950   143A     -0.955892   144A     -0.955835
     145A     -0.905604   146A     -0.905568   147A     -0.905554
     148A     -0.905514   149A     -0.904349   150A     -0.892379
     151A     -0.892321   152A     -0.890374   153A     -0.890320
     154A     -0.889461   155A     -0.872225   156A     -0.869061
     157A     -0.851545   158A     -0.847874   159A     -0.847858
     160A     -0.845608   161A     -0.843025   162A     -0.834570
     163A     -0.834559   164A     -0.828125   165A     -0.828118
     166A     -0.784559   167A     -0.784549   168A     -0.783671
     169A     -0.783651   170A     -0.782298   171A     -0.782275
     172A     -0.782041   173A     -0.766994   174A     -0.760803
     175A     -0.750585   176A     -0.733491   177A     -0.727081
     178A     -0.727056   179A     -0.725089   180A     -0.724547
     181A     -0.724522   182A     -0.718505   183A     -0.713782
     184A     -0.713776   185A     -0.699586   186A     -0.699566
     187A     -0.686138   188A     -0.685961   189A     -0.685954
     190A     -0.682174   191A     -0.682166   192A     -0.678788
     193A     -0.653634   194A     -0.650880   195A     -0.650848
     196A     -0.649821   197A     -0.649812   198A     -0.649568
     199A     -0.640946   200A     -0.640909   201A     -0.640088
     202A     -0.639162   203A     -0.636031   204A     -0.636000
     205A     -0.629144   206A     -0.617765   207A     -0.615307
     208A     -0.615283   209A     -0.608804   210A     -0.608797
     211A     -0.599140   212A     -0.599134   213A     -0.598749
     214A     -0.598606   215A     -0.598593   216A     -0.598050
     217A     -0.595068   218A     -0.595056   219A     -0.594726
     220A     -0.594242   221A     -0.591961   222A     -0.591958
     223A     -0.587401   224A     -0.577797   225A     -0.577783
     226A     -0.575696   227A     -0.575693   228A     -0.573380
     229A     -0.569565   230A     -0.568152   231A     -0.568128
     232A     -0.566756   233A     -0.566748   234A     -0.560914
     235A     -0.558729   236A     -0.558697   237A     -0.558427
     238A     -0.554370   239A     -0.550571   240A     -0.547474
     241A     -0.544283   242A     -0.535001   243A     -0.534977
     244A     -0.533539   245A     -0.533521   246A     -0.528078
     247A     -0.528062   248A     -0.527801   249A     -0.517174
     250A     -0.517144   251A     -0.515359   252A     -0.515356
     253A     -0.509640   254A     -0.509627   255A     -0.498024
     256A     -0.496454   257A     -0.496421   258A     -0.493786
     259A     -0.493774   260A     -0.489424   261A     -0.481450
     262A     -0.477418   263A     -0.477417   264A     -0.473993
     265A     -0.469438   266A     -0.466522   267A     -0.466520
     268A     -0.458806   269A     -0.446691   270A     -0.446634
     271A     -0.441034   272A     -0.440758   273A     -0.440742
     274A     -0.434686   275A     -0.433903   276A     -0.407375
     277A     -0.407350   278A     -0.386403   279A     -0.386360
     280A     -0.385727   281A     -0.385726   282A     -0.383743
     283A     -0.354322   284A     -0.354299   285A     -0.350656
     286A     -0.338092   287A     -0.335589   288A     -0.335499
     289A     -0.332707   290A     -0.332703   291A     -0.307071
     292A     -0.301942   293A     -0.301873   294A     -0.300834
     295A     -0.286165   296A     -0.256462   297A     -0.253490
     298A     -0.253434   299A     -0.204253   300A     -0.204165

  @DF-RHF Final Energy: -3650.33967464594662

   => Energetics <=

    Nuclear Repulsion Energy =          15611.4211649754306563
    One-Electron Energy =              -36072.1422731463244418
    Two-Electron Energy =               16810.3814335249480791
    Total Energy =                      -3650.3396746459475253
 Dipole X            :         -0.0006704            0.0002112           -0.0004592
 Dipole Y            :        123.2167148         -123.2131634            0.0035514
 Dipole Z            :       -484.0860322          484.0956282            0.0095960
 Magnitude           :                                                    0.0102424

    SAPT Results
  --------------------------------------------------------------------------------------------------------
    Electrostatics                -10.57363967 [mEh]      -6.63505907 [kcal/mol]     -27.76108714 [kJ/mol]
      Elst10,r                    -10.57363967 [mEh]      -6.63505907 [kcal/mol]     -27.76108714 [kJ/mol]

    Exchange                        0.19588239 [mEh]       0.12291806 [kcal/mol]       0.51428914 [kJ/mol]
      Exch10                        0.19588239 [mEh]       0.12291806 [kcal/mol]       0.51428914 [kJ/mol]
      Exch10(S^2)                   0.19586696 [mEh]       0.12290837 [kcal/mol]       0.51424864 [kJ/mol]

    Induction                      -7.53539328 [mEh]      -4.72853067 [kcal/mol]     -19.78417233 [kJ/mol]
      Ind20,r                      -7.24860427 [mEh]      -4.54856785 [kcal/mol]     -19.03120789 [kJ/mol]
      Exch-Ind20,r                  0.04101864 [mEh]       0.02573959 [kcal/mol]       0.10769442 [kJ/mol]
      delta HF,r (2)               -0.32780765 [mEh]      -0.20570241 [kcal/mol]      -0.86065887 [kJ/mol]

    Dispersion                     -5.67084462 [mEh]      -3.55850873 [kcal/mol]     -14.88880051 [kJ/mol]
      Disp20                       -5.69630856 [mEh]      -3.57448759 [kcal/mol]     -14.95565608 [kJ/mol]
      Exch-Disp20                   0.02546394 [mEh]       0.01597886 [kcal/mol]       0.06685557 [kJ/mol]
      Disp20 (SS)                  -2.84815428 [mEh]      -1.78724380 [kcal/mol]      -7.47782804 [kJ/mol]
      Disp20 (OS)                  -2.84815428 [mEh]      -1.78724380 [kcal/mol]      -7.47782804 [kJ/mol]
      Exch-Disp20 (SS)              0.01711198 [mEh]       0.01073793 [kcal/mol]       0.04492749 [kJ/mol]
      Exch-Disp20 (OS)              0.00835196 [mEh]       0.00524094 [kcal/mol]       0.02192808 [kJ/mol]

  Total HF                        -17.91315056 [mEh]     -11.24067168 [kcal/mol]     -47.03097033 [kJ/mol]
  Total SAPT0                     -23.58399519 [mEh]     -14.79918041 [kcal/mol]     -61.91977083 [kJ/mol]

  Special recipe for scaled SAPT0 (see Manual):
    Electrostatics sSAPT0         -10.57363967 [mEh]      -6.63505907 [kcal/mol]     -27.76108714 [kJ/mol]
    Exchange sSAPT0                 0.19588239 [mEh]       0.12291806 [kcal/mol]       0.51428914 [kJ/mol]
    Induction sSAPT0               -7.53538359 [mEh]      -4.72852459 [kcal/mol]     -19.78414689 [kJ/mol]
    Dispersion sSAPT0              -5.67083861 [mEh]      -3.55850495 [kcal/mol]     -14.88878471 [kJ/mol]
  Total sSAPT0                    -23.58397948 [mEh]     -14.79917055 [kcal/mol]     -61.91972958 [kJ/mol]
  --------------------------------------------------------------------------------------------------------

*** Psi4 exiting successfully. Buy a developer a beer!
