                               Psi4 1.9 release

  ==> Input File <==

--------------------------------------------------------------------------
memory 32 GB # how much memory is available ! Depends on the nodes/cores !

molecule dimer {
# monomer A
-1 1    # Charge and multiplicity
B -1.977592e-04  2.742729e-04 3.400034
F  1.123153e-16  1.430594e-17 4.812819
F  1.147860e+00  6.757812e-01 2.928893
F  1.191806e-02 -1.332011e+00 2.929095
F -1.159666e+00  6.560735e-01 2.929174
--
# monomer B
0 1     # Charge and multiplicity
C   1.22531237526482      0.70753866091955      0.00613762728373
C   1.22532433589282     -0.70753852257020     -0.00619318228664
C   -0.00000567409046      1.41496628609039     -0.00672680580738
C   2.45644923379077      1.41832825917820      0.00902448468363
C   0.00001130712078     -1.41497612663474      0.00347275151708
C   -1.22530046906674      0.70754574598412      0.00838914760619
C   2.45643823516184     -1.41832293188077     -0.00843833914343
C   -0.00000085313587      2.83680140328112     -0.00913035594137
C   3.68182717731192      0.70931832800114     -0.00808954934571
C   2.45512052870677      2.83422403348893     -0.00819210630633
C   3.68182158506039     -0.70933346742900      0.00798293467272
C   -1.22531311884624     -0.70752714354401     -0.00512042085974
C   1.22670006104402      3.54346985599427      0.00816696660346
C   0.00000526469929     -2.83678176723568      0.00832091913869
C   -2.45643555300670      1.41831729028492      0.00842454345199
C   2.45512389762097     -2.83422965658853      0.00783102630520
C   -1.22671388474763      3.54346943575023      0.00827029982280
C   4.91451777504333      1.42717324448953     -0.00160886631602
C   3.69315067131765      3.54279566454522     -0.00155906667985
C   -2.45643712022637     -1.41831290883911     -0.00846337726810
C   1.22670532178455     -3.54347386990643     -0.00780316414624
C   -2.45512491866593      2.83421703463423     -0.00818572995999
C   4.91452486062398     -1.42718653794377      0.00136387641845
C   1.22142509354026      4.97013443726031      0.00150231067809
C   4.89300870916237      2.82518837202648     -0.00039219795739
C   -1.22669652864725     -3.54347062507680     -0.00753595973677
C   -3.68181849668397      0.70932533873199     -0.00807686886569
C   3.69314758099218     -3.54280096939050      0.00148176697923
C   -1.22143177215231      4.97012866986289      0.00168580605083
C   6.13477145276790      0.68054831910577     -0.00083909176631
C   3.65678936045204      4.97295361556775     -0.00065042889723
C   -2.45512642789169     -2.83421472106065      0.00758666850712
C   -3.68181869921921     -0.70932533146830      0.00810055625144
C   4.89301309775526     -2.82519973363176      0.00021895393805
C   -0.00000059327114      5.65044773803267      0.00045449734393
C   6.13477559217374     -0.68055448207492      0.00042622874941
C   2.47813196269732      5.65357712333155      0.00063835075260
C   1.22142288457925     -4.97012668293268     -0.00129718634452
C   -3.69316190412301      3.54279732619245     -0.00139355922051
C   -1.22142804110313     -4.97011793159564     -0.00140994817719
C   -4.91452132810043      1.42717581899491     -0.00153192130862
C   3.65678749952045     -4.97295485423912      0.00080007163680
C   -2.47813805026426      5.65357479452875      0.00092287576113
C   -3.69314125872231     -3.54278984697859      0.00136564082345
C   -4.91451200321153     -1.42718062802730      0.00139857359209
C   -0.00000552908399     -5.65043791501335      0.00005899322272
C   -4.89302000425900      2.82518897091939     -0.00040227981744
C   2.47812647313991     -5.65357317188818     -0.00029052915548
C   -3.65679823041642      4.97295655404175     -0.00047374852278
C   -4.89299899901461     -2.82519139505969      0.00006491824035
C   -2.47812801824129     -5.65356579800621     -0.00056571680280
C   -6.13477002348955      0.68054913825639     -0.00086464346868
C   -3.65678835334731     -4.97294365097028      0.00058578382008
C   -6.13476456307132     -0.68055354348201      0.00040575295444
H   5.83528897565761      3.36927626695423      0.00396712770529
H   7.07385965258860      1.22821762089947     -0.00037744837300
H   4.60066374401555      5.51238117445323     -0.00014522814529
H   5.83528386714679     -3.36930568472863     -0.00423551337640
H   -0.00001167146422      6.73853104613662     -0.00389474766392
H   7.07386165167227     -1.22822657074368     -0.00008250934481
H   2.47331421164041      6.74068466339473      0.00017162982210
H   4.60066897122302     -5.51237575717576      0.00039007446835
H   -2.47331820069565      6.74068209160650      0.00047297644710
H   -0.00000978838621     -6.73852780445195      0.00458867820736
H   -5.83530143450167      3.36927132229595      0.00410314985360
H   2.47330840367253     -6.74068500242887      0.00027980126949
H   -4.60067436136587      5.51237839860371      0.00002010017831
H   -5.83527902699321     -3.36928859177951     -0.00451481925734
H   -2.47329986759855     -6.74067870613986     -0.00016951527498
H   -7.07385728692578      1.22822084484047     -0.00046143985387
H   -4.60067330624313     -5.51236229778631      0.00021776644566
H   -7.07385645456741     -1.22822025997701     -0.00017736581114

    units angstrom      # Angstroms are the default
    no_reorient         # Geometry fixed, default
    symmetry c1         # C1 symmetry, default
}

set {
    scf_type DF         # Density fitting, faster than exact integrals
    freeze_core True    # Freeze core electrons
    basis jun-cc-pVDZ   # Jun-cc-pVDZ basis set, recommended for sSAPT0 in https://doi.org/10.1063/1.4867135
}

energy('ssapt0')        # Compute sSAPT0 energy, includes also SAPT0
--------------------------------------------------------------------------

  //              Dimer HF             //
    Molecular point group: c1
  Charge       = -1
  Multiplicity = 1
  Basis Set: JUN-CC-PVDZ
    Blend: JUN-CC-PVDZ
  Basis Set: (JUN-CC-PVDZ AUX)
    Blend: JUN-CC-PVDZ-JKFIT
  @DF-RHF Final Energy: -2478.66099899895062
    Total Energy =                      -2478.6609989989501628
 Dipole X            :         -0.0005903            0.0000481           -0.0005422
 Dipole Y            :          0.0010828           -0.0001453            0.0009375
 Dipole Z            :         16.6419977          -20.8429785           -4.2009808
 Magnitude           :                                                    4.2009809
  //            Monomer A HF           //
    Molecular point group: c1
  Multiplicity = 1
  Basis Set: JUN-CC-PVDZ
    Blend: JUN-CC-PVDZ
  Basis Set: (JUN-CC-PVDZ AUX)
    Blend: JUN-CC-PVDZ-JKFIT
  @DF-RHF Final Energy:  -422.77363762887876
    Total Energy =                       -422.7736376288787596
  //            Monomer B HF           //
    Molecular point group: c1

    Geometry (in Angstrom), charge = 0, multiplicity = 1:

       Center              X                  Y                   Z               Mass
    ------------   -----------------  -----------------  -----------------  -----------------
      Gh(B)          -0.000198161052     0.000273808717     3.007269340416    11.009305360000
      Gh(F)          -0.000000401852    -0.000000464183     4.420054340416    18.998403162730
      Gh(F)           1.147859598148     0.675780735817     2.536128340416    18.998403162730
      Gh(F)           0.011917658148    -1.332011464183     2.536330340416    18.998403162730
      Gh(F)          -1.159666401852     0.656073035817     2.536409340416    18.998403162730
         C            1.225311973413     0.707538196736    -0.386627032300    12.000000000000
         C            1.225323934041    -0.707538986754    -0.398957841871    12.000000000000
         C           -0.000006075942     1.414965821907    -0.399491465392    12.000000000000
         C            2.456448831939     1.418327794995    -0.383740174901    12.000000000000
         C            0.000010905269    -1.414976590818    -0.389291908067    12.000000000000
         C           -1.225300870919     0.707545281801    -0.384375511978    12.000000000000
         C            2.456437833310    -1.418323396064    -0.401202998728    12.000000000000
         C           -0.000001254988     2.836800939098    -0.401895015526    12.000000000000
         C            3.681826775460     0.709317863818    -0.400854208930    12.000000000000
         C            2.455120126855     2.834223569306    -0.400956765890    12.000000000000
         C            3.681821183209    -0.709333931612    -0.384781724911    12.000000000000
         C           -1.225313520698    -0.707527607727    -0.397885080444    12.000000000000
         C            1.226699659192     3.543469391811    -0.384597692981    12.000000000000
         C            0.000004862847    -2.836782231419    -0.384443740445    12.000000000000
         C           -2.456435954859     1.418316826102    -0.384340116132    12.000000000000
         C            2.455123495769    -2.834230120772    -0.384933633279    12.000000000000
         C           -1.226714286599     3.543468971567    -0.384494359761    12.000000000000
         C            4.914517373191     1.427172780306    -0.394373525900    12.000000000000
         C            3.693150269466     3.542795200362    -0.394323726264    12.000000000000
         C           -2.456437522078    -1.418313373022    -0.401228036852    12.000000000000
         C            1.226704919933    -3.543474334090    -0.400567823730    12.000000000000
         C           -2.455125320518     2.834216570451    -0.400950389544    12.000000000000
         C            4.914524458772    -1.427187002127    -0.391400783166    12.000000000000
         C            1.221424691688     4.970133973077    -0.391262348906    12.000000000000
         C            4.893008307311     2.825187907843    -0.393156857542    12.000000000000
         C           -1.226696930499    -3.543471089260    -0.400300619321    12.000000000000
         C           -3.681818898536     0.709324874549    -0.400841528450    12.000000000000
         C            3.693147179140    -3.542801433574    -0.391282892605    12.000000000000
         C           -1.221432174004     4.970128205680    -0.391078853533    12.000000000000
         C            6.134771050916     0.680547854922    -0.393603751350    12.000000000000
         C            3.656788958600     4.972953151384    -0.393415088481    12.000000000000
         C           -2.455126829744    -2.834215185244    -0.385177991077    12.000000000000
         C           -3.681819101071    -0.709325795652    -0.384664103333    12.000000000000
         C            4.893012695903    -2.825200197815    -0.392545705646    12.000000000000
         C           -0.000000995123     5.650447273849    -0.392310162240    12.000000000000
         C            6.134775190322    -0.680554946258    -0.392338430835    12.000000000000
         C            2.478131560845     5.653576659148    -0.392126308832    12.000000000000
         C            1.221422482727    -4.970127147116    -0.394061845929    12.000000000000
         C           -3.693162305975     3.542796862009    -0.394158218805    12.000000000000
         C           -1.221428442955    -4.970118395779    -0.394174607761    12.000000000000
         C           -4.914521729952     1.427175354812    -0.394296580893    12.000000000000
         C            3.656787097669    -4.972955318422    -0.391964587947    12.000000000000
         C           -2.478138452116     5.653574330345    -0.391841783823    12.000000000000
         C           -3.693141660574    -3.542790311162    -0.391399018761    12.000000000000
         C           -4.914512405063    -1.427181092211    -0.391366085992    12.000000000000
         C           -0.000005930936    -5.650438379197    -0.392705666361    12.000000000000
         C           -4.893020406111     2.825188506736    -0.393166939402    12.000000000000
         C            2.478126071288    -5.653573636072    -0.393055188740    12.000000000000
         C           -3.656798632268     4.972956089858    -0.393238408107    12.000000000000
         C           -4.892999400866    -2.825191859243    -0.392699741344    12.000000000000
         C           -2.478128420093    -5.653566262190    -0.393330376387    12.000000000000
         C           -6.134770425341     0.680548674073    -0.393629303053    12.000000000000
         C           -3.656788755199    -4.972944115154    -0.392178875764    12.000000000000
         C           -6.134764964923    -0.680554007665    -0.392358906630    12.000000000000
         H            5.835288573806     3.369275802771    -0.388797531879     1.007825032230
         H            7.073859250737     1.228217156716    -0.393142107957     1.007825032230
         H            4.600663342164     5.512380710270    -0.392909887729     1.007825032230
         H            5.835283465295    -3.369306148912    -0.397000172961     1.007825032230
         H           -0.000012073316     6.738530581953    -0.396659407248     1.007825032230
         H            7.073861249820    -1.228227034927    -0.392847168929     1.007825032230
         H            2.473313809789     6.740684199211    -0.392593029762     1.007825032230
         H            4.600668569371    -5.512376221359    -0.392374585116     1.007825032230
         H           -2.473318602548     6.740681627423    -0.392291683137     1.007825032230
         H           -0.000010190238    -6.738528268635    -0.388175981377     1.007825032230
         H           -5.835301836354     3.369270858113    -0.388661509731     1.007825032230
         H            2.473308001821    -6.740685466612    -0.392484858315     1.007825032230
         H           -4.600674763218     5.512377934420    -0.392744559406     1.007825032230
         H           -5.835279428845    -3.369289055963    -0.397279478842     1.007825032230
         H           -2.473300269450    -6.740679170323    -0.392934174859     1.007825032230
         H           -7.073857688778     1.228220380657    -0.393226099438     1.007825032230
         H           -4.600673708095    -5.512362761970    -0.392546893139     1.007825032230
         H           -7.073856856419    -1.228220724160    -0.392942025395     1.007825032230

  Charge       = 0
  Multiplicity = 1
  Basis Set: JUN-CC-PVDZ
    Blend: JUN-CC-PVDZ
  Basis Set: (JUN-CC-PVDZ AUX)
    Blend: JUN-CC-PVDZ-JKFIT

    Orbital Energies [Eh]
    ---------------------

    Doubly Occupied:

       1A    -11.260683     2A    -11.260232     3A    -11.260231
       4A    -11.259484     5A    -11.259483     6A    -11.259300
       7A    -11.259051     8A    -11.258981     9A    -11.258980
      10A    -11.258643    11A    -11.258640    12A    -11.258523
      13A    -11.258468    14A    -11.258464    15A    -11.258463
      16A    -11.258424    17A    -11.258418    18A    -11.258400
      19A    -11.258399    20A    -11.258397    21A    -11.258394
      22A    -11.258331    23A    -11.258326    24A    -11.258100
      25A    -11.257325    26A    -11.257267    27A    -11.257267
      28A    -11.257138    29A    -11.257137    30A    -11.257057
      31A    -11.256423    32A    -11.256355    33A    -11.256354
      34A    -11.256248    35A    -11.256247    36A    -11.256201
      37A    -11.252270    38A    -11.252269    39A    -11.252268
      40A    -11.252267    41A    -11.252264    42A    -11.252263
      43A    -11.251371    44A    -11.251369    45A    -11.251368
      46A    -11.251361    47A    -11.251361    48A    -11.251356
      49A    -11.250832    50A    -11.250830    51A    -11.250829
      52A    -11.250827    53A    -11.250825    54A    -11.250824
      55A     -1.244010    56A     -1.219777    57A     -1.219775
      58A     -1.189510    59A     -1.189502    60A     -1.180889
      61A     -1.157533    62A     -1.148950    63A     -1.135446
      64A     -1.135439    65A     -1.113169    66A     -1.113164
      67A     -1.082396    68A     -1.082389    69A     -1.078555
      70A     -1.065960    71A     -1.065956    72A     -1.039370
      73A     -1.024232    74A     -1.021709    75A     -1.021667
      76A     -1.017707    77A     -1.012781    78A     -0.986984
      79A     -0.986938    80A     -0.961856    81A     -0.961806
      82A     -0.894268    83A     -0.894241    84A     -0.887875
      85A     -0.886131    86A     -0.886073    87A     -0.881352
      88A     -0.881304    89A     -0.861876    90A     -0.837401
      91A     -0.818177    92A     -0.816565    93A     -0.812093
      94A     -0.812084    95A     -0.794668    96A     -0.794657
      97A     -0.746573    98A     -0.744818    99A     -0.733364
     100A     -0.733355   101A     -0.732157   102A     -0.732134
     103A     -0.716455   104A     -0.698947   105A     -0.698936
     106A     -0.693546   107A     -0.693531   108A     -0.661207
     109A     -0.653053   110A     -0.651102   111A     -0.650231
     112A     -0.650225   113A     -0.639335   114A     -0.639333
     115A     -0.629671   116A     -0.627479   117A     -0.627463
     118A     -0.606439   119A     -0.605800   120A     -0.601619
     121A     -0.599701   122A     -0.599670   123A     -0.593601
     124A     -0.591152   125A     -0.591142   126A     -0.585266
     127A     -0.576400   128A     -0.576394   129A     -0.567306
     130A     -0.567291   131A     -0.565911   132A     -0.565891
     133A     -0.558670   134A     -0.554816   135A     -0.554810
     136A     -0.538570   137A     -0.538569   138A     -0.538213
     139A     -0.538207   140A     -0.529689   141A     -0.528167
     142A     -0.522840   143A     -0.522834   144A     -0.500481
     145A     -0.495593   146A     -0.493208   147A     -0.487835
     148A     -0.485032   149A     -0.481719   150A     -0.481711
     151A     -0.470342   152A     -0.470324   153A     -0.450961
     154A     -0.450883   155A     -0.439059   156A     -0.439050
     157A     -0.404739   158A     -0.404716   159A     -0.403362
     160A     -0.375404   161A     -0.375401   162A     -0.349119
     163A     -0.337635   164A     -0.336544   165A     -0.336487
     166A     -0.311049   167A     -0.298109   168A     -0.284338
     169A     -0.284284   170A     -0.224888   171A     -0.224822

  @DF-RHF Final Energy: -2055.89414958994666

   => Energetics <=

    Nuclear Repulsion Energy =           6452.5568002797772351
    One-Electron Energy =              -15636.4902463956987049
    Two-Electron Energy =                7128.0392965259743505
    Total Energy =                      -2055.8941495899471192
 Dipole X            :          0.0000155            0.0000419            0.0000574
 Dipole Y            :          0.0000593           -0.0000426            0.0000167
 Dipole Z            :        253.8414578         -253.8398753            0.0015826
 Magnitude           :                                                    0.0015837

    SAPT Results
  --------------------------------------------------------------------------------------------------------
    Electrostatics                  6.78543273 [mEh]       4.25792332 [kcal/mol]      17.81515117 [kJ/mol]
      Elst10,r                      6.78543273 [mEh]       4.25792332 [kcal/mol]      17.81515117 [kJ/mol]

    Exchange                       18.01988399 [mEh]      11.30764792 [kcal/mol]      47.31119890 [kJ/mol]
      Exch10                       18.01988399 [mEh]      11.30764792 [kcal/mol]      47.31119890 [kJ/mol]
      Exch10(S^2)                  17.98676753 [mEh]      11.28686703 [kcal/mol]      47.22425164 [kJ/mol]

    Induction                     -18.01709685 [mEh]     -11.30589896 [kcal/mol]     -47.30388125 [kJ/mol]
      Ind20,r                     -22.77691279 [mEh]     -14.29272856 [kcal/mol]     -59.80077630 [kJ/mol]
      Exch-Ind20,r                  6.15591568 [mEh]       3.86289541 [kcal/mol]      16.16235438 [kJ/mol]
      delta HF,r (2)               -1.39609973 [mEh]      -0.87606581 [kcal/mol]      -3.66545933 [kJ/mol]

    Dispersion                    -13.30420795 [mEh]      -8.34851653 [kcal/mol]     -34.93019316 [kJ/mol]
      Disp20                      -15.60349565 [mEh]      -9.79134135 [kcal/mol]     -40.96697220 [kJ/mol]
      Exch-Disp20                   2.29928771 [mEh]       1.44282482 [kcal/mol]       6.03677904 [kJ/mol]
      Disp20 (SS)                  -7.80174783 [mEh]      -4.89567067 [kcal/mol]     -20.48348610 [kJ/mol]
      Disp20 (OS)                  -7.80174783 [mEh]      -4.89567067 [kcal/mol]     -20.48348610 [kJ/mol]
      Exch-Disp20 (SS)              1.32699053 [mEh]       0.83269913 [kcal/mol]       3.48401315 [kJ/mol]
      Exch-Disp20 (OS)              0.97229718 [mEh]       0.61012569 [kcal/mol]       2.55276589 [kJ/mol]

  Total HF                          6.78821988 [mEh]       4.25967228 [kcal/mol]      17.82246883 [kJ/mol]
  Total SAPT0                      -6.51598807 [mEh]      -4.08884425 [kcal/mol]     -17.10772433 [kJ/mol]

  Special recipe for scaled SAPT0 (see Manual):
    Electrostatics sSAPT0           6.78543273 [mEh]       4.25792332 [kcal/mol]      17.81515117 [kJ/mol]
    Exchange sSAPT0                18.01988399 [mEh]      11.30764792 [kcal/mol]      47.31119890 [kJ/mol]
    Induction sSAPT0              -17.98303218 [mEh]     -11.28452306 [kcal/mol]     -47.21444449 [kJ/mol]
    Dispersion sSAPT0             -13.29148450 [mEh]      -8.34053245 [kcal/mol]     -34.89678776 [kJ/mol]
  Total sSAPT0                     -6.46919996 [mEh]      -4.05948427 [kcal/mol]     -16.98488216 [kJ/mol]
  --------------------------------------------------------------------------------------------------------

*** Psi4 exiting successfully. Buy a developer a beer!
