                               Psi4 1.9 release

  ==> Input File <==

--------------------------------------------------------------------------
memory 48 GB # how much memory is available ! Depends on the nodes/cores !

molecule dimer {
# monomer A
-1 1    # Charge and multiplicity
B -1.977592e-04  2.742729e-04 -3.499966
F  1.123153e-16  1.430594e-17 -2.087181
F  1.147860e+00  6.757812e-01 -3.971107
F  1.191806e-02 -1.332011e+00 -3.970905
F -1.159666e+00  6.560735e-01 -3.970826
--
# monomer B
0 1     # Charge and multiplicity
C   1.22531237526482      0.70753866091955      0.00613762728373
C   1.22532433589282     -0.70753852257020     -0.00619318228664
C   -0.00000567409046      1.41496628609039     -0.00672680580738
C   2.45644923379077      1.41832825917820      0.00902448468363
C   0.00001130712078     -1.41497612663474      0.00347275151708
C   -1.22530046906674      0.70754574598412      0.00838914760619
C   2.45643823516184     -1.41832293188077     -0.00843833914343
C   -0.00000085313587      2.83680140328112     -0.00913035594137
C   3.68182717731192      0.70931832800114     -0.00808954934571
C   2.45512052870677      2.83422403348893     -0.00819210630633
C   3.68182158506039     -0.70933346742900      0.00798293467272
C   -1.22531311884624     -0.70752714354401     -0.00512042085974
C   1.22670006104402      3.54346985599427      0.00816696660346
C   0.00000526469929     -2.83678176723568      0.00832091913869
C   -2.45643555300670      1.41831729028492      0.00842454345199
C   2.45512389762097     -2.83422965658853      0.00783102630520
C   -1.22671388474763      3.54346943575023      0.00827029982280
C   4.91451777504333      1.42717324448953     -0.00160886631602
C   3.69315067131765      3.54279566454522     -0.00155906667985
C   -2.45643712022637     -1.41831290883911     -0.00846337726810
C   1.22670532178455     -3.54347386990643     -0.00780316414624
C   -2.45512491866593      2.83421703463423     -0.00818572995999
C   4.91452486062398     -1.42718653794377      0.00136387641845
C   1.22142509354026      4.97013443726031      0.00150231067809
C   4.89300870916237      2.82518837202648     -0.00039219795739
C   -1.22669652864725     -3.54347062507680     -0.00753595973677
C   -3.68181849668397      0.70932533873199     -0.00807686886569
C   3.69314758099218     -3.54280096939050      0.00148176697923
C   -1.22143177215231      4.97012866986289      0.00168580605083
C   6.13477145276790      0.68054831910577     -0.00083909176631
C   3.65678936045204      4.97295361556775     -0.00065042889723
C   -2.45512642789169     -2.83421472106065      0.00758666850712
C   -3.68181869921921     -0.70932533146830      0.00810055625144
C   4.89301309775526     -2.82519973363176      0.00021895393805
C   -0.00000059327114      5.65044773803267      0.00045449734393
C   6.13477559217374     -0.68055448207492      0.00042622874941
C   2.47813196269732      5.65357712333155      0.00063835075260
C   1.22142288457925     -4.97012668293268     -0.00129718634452
C   -3.69316190412301      3.54279732619245     -0.00139355922051
C   -1.22142804110313     -4.97011793159564     -0.00140994817719
C   -4.91452132810043      1.42717581899491     -0.00153192130862
C   3.65678749952045     -4.97295485423912      0.00080007163680
C   -2.47813805026426      5.65357479452875      0.00092287576113
C   -3.69314125872231     -3.54278984697859      0.00136564082345
C   -4.91451200321153     -1.42718062802730      0.00139857359209
C   -0.00000552908399     -5.65043791501335      0.00005899322272
C   -4.89302000425900      2.82518897091939     -0.00040227981744
C   2.47812647313991     -5.65357317188818     -0.00029052915548
C   -3.65679823041642      4.97295655404175     -0.00047374852278
C   -4.89299899901461     -2.82519139505969      0.00006491824035
C   -2.47812801824129     -5.65356579800621     -0.00056571680280
C   -6.13477002348955      0.68054913825639     -0.00086464346868
C   -3.65678835334731     -4.97294365097028      0.00058578382008
C   -6.13476456307132     -0.68055354348201      0.00040575295444
H   5.83528897565761      3.36927626695423      0.00396712770529
H   7.07385965258860      1.22821762089947     -0.00037744837300
H   4.60066374401555      5.51238117445323     -0.00014522814529
H   5.83528386714679     -3.36930568472863     -0.00423551337640
H   -0.00001167146422      6.73853104613662     -0.00389474766392
H   7.07386165167227     -1.22822657074368     -0.00008250934481
H   2.47331421164041      6.74068466339473      0.00017162982210
H   4.60066897122302     -5.51237575717576      0.00039007446835
H   -2.47331820069565      6.74068209160650      0.00047297644710
H   -0.00000978838621     -6.73852780445195      0.00458867820736
H   -5.83530143450167      3.36927132229595      0.00410314985360
H   2.47330840367253     -6.74068500242887      0.00027980126949
H   -4.60067436136587      5.51237839860371      0.00002010017831
H   -5.83527902699321     -3.36928859177951     -0.00451481925734
H   -2.47329986759855     -6.74067870613986     -0.00016951527498
H   -7.07385728692578      1.22822084484047     -0.00046143985387
H   -4.60067330624313     -5.51236229778631      0.00021776644566
H   -7.07385645456741     -1.22822025997701     -0.00017736581114

    units angstrom      # Angstroms are the default
    no_reorient         # Geometry fixed, default
    symmetry c1         # C1 symmetry, default
}

set {
    scf_type DF         # Density fitting, faster than exact integrals
    freeze_core True    # Freeze core electrons
    basis jun-cc-pVDZ   # Jun-cc-pVDZ basis set, recommended for sSAPT0 in https://doi.org/10.1063/1.4867135
}

energy('ssapt0')        # Compute sSAPT0 energy, includes also SAPT0
--------------------------------------------------------------------------

  //              Dimer HF             //
    Molecular point group: c1
  Charge       = -1
  Multiplicity = 1
  Basis Set: JUN-CC-PVDZ
    Blend: JUN-CC-PVDZ
  Basis Set: (JUN-CC-PVDZ AUX)
    Blend: JUN-CC-PVDZ-JKFIT
  @DF-RHF Final Energy: -2478.63813267477099
    Total Energy =                      -2478.6381326747705316
 Dipole X            :         -0.0004444            0.0000481           -0.0003964
 Dipole Y            :          0.0008478           -0.0001453            0.0007025
 Dipole Z            :        -17.0837405           21.4563229            4.3725824
 Magnitude           :                                                    4.3725825
  //            Monomer A HF           //
    Molecular point group: c1
  Multiplicity = 1
  Basis Set: JUN-CC-PVDZ
    Blend: JUN-CC-PVDZ
  Basis Set: (JUN-CC-PVDZ AUX)
    Blend: JUN-CC-PVDZ-JKFIT
  @DF-RHF Final Energy:  -422.77371640315329
    Total Energy =                       -422.7737164031532870
  //            Monomer B HF           //
    Molecular point group: c1

    Geometry (in Angstrom), charge = 0, multiplicity = 1:

       Center              X                  Y                   Z               Mass
    ------------   -----------------  -----------------  -----------------  -----------------
      Gh(B)          -0.000198161052     0.000273808717    -3.095644951236    11.009305360000
      Gh(F)          -0.000000401852    -0.000000464183    -1.682859951236    18.998403162730
      Gh(F)           1.147859598148     0.675780735817    -3.566785951236    18.998403162730
      Gh(F)           0.011917658148    -1.332011464183    -3.566583951236    18.998403162730
      Gh(F)          -1.159666401852     0.656073035817    -3.566504951236    18.998403162730
         C            1.225311973413     0.707538196736     0.410458676048    12.000000000000
         C            1.225323934041    -0.707538986754     0.398127866477    12.000000000000
         C           -0.000006075942     1.414965821907     0.397594242957    12.000000000000
         C            2.456448831939     1.418327794995     0.413345533448    12.000000000000
         C            0.000010905269    -1.414976590818     0.407793800281    12.000000000000
         C           -1.225300870919     0.707545281801     0.412710196370    12.000000000000
         C            2.456437833310    -1.418323396064     0.395882709620    12.000000000000
         C           -0.000001254988     2.836800939098     0.395190692823    12.000000000000
         C            3.681826775460     0.709317863818     0.396231499418    12.000000000000
         C            2.455120126855     2.834223569306     0.396128942458    12.000000000000
         C            3.681821183209    -0.709333931612     0.412303983437    12.000000000000
         C           -1.225313520698    -0.707527607727     0.399200627904    12.000000000000
         C            1.226699659192     3.543469391811     0.412488015367    12.000000000000
         C            0.000004862847    -2.836782231419     0.412641967903    12.000000000000
         C           -2.456435954859     1.418316826102     0.412745592216    12.000000000000
         C            2.455123495769    -2.834230120772     0.412152075069    12.000000000000
         C           -1.226714286599     3.543468971567     0.412591348587    12.000000000000
         C            4.914517373191     1.427172780306     0.402712182448    12.000000000000
         C            3.693150269466     3.542795200362     0.402761982084    12.000000000000
         C           -2.456437522078    -1.418313373022     0.395857671496    12.000000000000
         C            1.226704919933    -3.543474334090     0.396517884618    12.000000000000
         C           -2.455125320518     2.834216570451     0.396135318804    12.000000000000
         C            4.914524458772    -1.427187002127     0.405684925182    12.000000000000
         C            1.221424691688     4.970133973077     0.405823359442    12.000000000000
         C            4.893008307311     2.825187907843     0.403928850807    12.000000000000
         C           -1.226696930499    -3.543471089260     0.396785089027    12.000000000000
         C           -3.681818898536     0.709324874549     0.396244179898    12.000000000000
         C            3.693147179140    -3.542801433574     0.405802815743    12.000000000000
         C           -1.221432174004     4.970128205680     0.406006854815    12.000000000000
         C            6.134771050916     0.680547854922     0.403481956998    12.000000000000
         C            3.656788958600     4.972953151384     0.403670619867    12.000000000000
         C           -2.455126829744    -2.834215185244     0.411907717271    12.000000000000
         C           -3.681819101071    -0.709325795652     0.412421605015    12.000000000000
         C            4.893012695903    -2.825200197815     0.404540002702    12.000000000000
         C           -0.000000995123     5.650447273849     0.404775546108    12.000000000000
         C            6.134775190322    -0.680554946258     0.404747277513    12.000000000000
         C            2.478131560845     5.653576659148     0.404959399517    12.000000000000
         C            1.221422482727    -4.970127147116     0.403023862419    12.000000000000
         C           -3.693162305975     3.542796862009     0.402927489543    12.000000000000
         C           -1.221428442955    -4.970118395779     0.402911100587    12.000000000000
         C           -4.914521729952     1.427175354812     0.402789127455    12.000000000000
         C            3.656787097669    -4.972955318422     0.405121120401    12.000000000000
         C           -2.478138452116     5.653574330345     0.405243924525    12.000000000000
         C           -3.693141660574    -3.542790311162     0.405686689587    12.000000000000
         C           -4.914512405063    -1.427181092211     0.405719622356    12.000000000000
         C           -0.000005930936    -5.650438379197     0.404380041987    12.000000000000
         C           -4.893020406111     2.825188506736     0.403918768946    12.000000000000
         C            2.478126071288    -5.653573636072     0.404030519608    12.000000000000
         C           -3.656798632268     4.972956089858     0.403847300241    12.000000000000
         C           -4.892999400866    -2.825191859243     0.404385967004    12.000000000000
         C           -2.478128420093    -5.653566262190     0.403755331961    12.000000000000
         C           -6.134770425341     0.680548674073     0.403456405295    12.000000000000
         C           -3.656788755199    -4.972944115154     0.404906832584    12.000000000000
         C           -6.134764964923    -0.680554007665     0.404726801718    12.000000000000
         H            5.835288573806     3.369275802771     0.408288176469     1.007825032230
         H            7.073859250737     1.228217156716     0.403943600391     1.007825032230
         H            4.600663342164     5.512380710270     0.404175820619     1.007825032230
         H            5.835283465295    -3.369306148912     0.400085535388     1.007825032230
         H           -0.000012073316     6.738530581953     0.400426301100     1.007825032230
         H            7.073861249820    -1.228227034927     0.404238539419     1.007825032230
         H            2.473313809789     6.740684199211     0.404492678586     1.007825032230
         H            4.600668569371    -5.512376221359     0.404711123232     1.007825032230
         H           -2.473318602548     6.740681627423     0.404794025211     1.007825032230
         H           -0.000010190238    -6.738528268635     0.408909726971     1.007825032230
         H           -5.835301836354     3.369270858113     0.408424198618     1.007825032230
         H            2.473308001821    -6.740685466612     0.404600850033     1.007825032230
         H           -4.600674763218     5.512377934420     0.404341148942     1.007825032230
         H           -5.835279428845    -3.369289055963     0.399806229507     1.007825032230
         H           -2.473300269450    -6.740679170323     0.404151533489     1.007825032230
         H           -7.073857688778     1.228220380657     0.403859608910     1.007825032230
         H           -4.600673708095    -5.512362761970     0.404538815210     1.007825032230
         H           -7.073856856419    -1.228220724160     0.404143682953     1.007825032230

  Charge       = 0
  Multiplicity = 1
  Basis Set: JUN-CC-PVDZ
    Blend: JUN-CC-PVDZ
  Basis Set: (JUN-CC-PVDZ AUX)
    Blend: JUN-CC-PVDZ-JKFIT

    Orbital Energies [Eh]
    ---------------------

    Doubly Occupied:

       1A    -11.260774     2A    -11.260313     3A    -11.260309
       4A    -11.259506     5A    -11.259505     6A    -11.259285
       7A    -11.259021     8A    -11.258955     9A    -11.258953
      10A    -11.258666    11A    -11.258662    12A    -11.258522
      13A    -11.258479    14A    -11.258472    15A    -11.258465
      16A    -11.258429    17A    -11.258423    18A    -11.258406
      19A    -11.258402    20A    -11.258397    21A    -11.258392
      22A    -11.258346    23A    -11.258341    24A    -11.258151
      25A    -11.257299    26A    -11.257239    27A    -11.257238
      28A    -11.257106    29A    -11.257105    30A    -11.257022
      31A    -11.256390    32A    -11.256320    33A    -11.256320
      34A    -11.256212    35A    -11.256212    36A    -11.256166
      37A    -11.252288    38A    -11.252288    39A    -11.252286
      40A    -11.252285    41A    -11.252282    42A    -11.252281
      43A    -11.251391    44A    -11.251389    45A    -11.251389
      46A    -11.251378    47A    -11.251377    48A    -11.251374
      49A    -11.250850    50A    -11.250849    51A    -11.250847
      52A    -11.250845    53A    -11.250843    54A    -11.250842
      55A     -1.244041    56A     -1.219793    57A     -1.219793
      58A     -1.189531    59A     -1.189524    60A     -1.180949
      61A     -1.157560    62A     -1.148971    63A     -1.135471
      64A     -1.135464    65A     -1.113192    66A     -1.113188
      67A     -1.082406    68A     -1.082399    69A     -1.078607
      70A     -1.065984    71A     -1.065981    72A     -1.039388
      73A     -1.024239    74A     -1.021755    75A     -1.021711
      76A     -1.017731    77A     -1.012803    78A     -0.987000
      79A     -0.986955    80A     -0.961881    81A     -0.961831
      82A     -0.894286    83A     -0.894259    84A     -0.887930
      85A     -0.886155    86A     -0.886097    87A     -0.881386
      88A     -0.881338    89A     -0.861890    90A     -0.837420
      91A     -0.818201    92A     -0.816580    93A     -0.812129
      94A     -0.812120    95A     -0.794687    96A     -0.794676
      97A     -0.746616    98A     -0.744836    99A     -0.733396
     100A     -0.733387   101A     -0.732180   102A     -0.732157
     103A     -0.716498   104A     -0.698967   105A     -0.698956
     106A     -0.693578   107A     -0.693563   108A     -0.661225
     109A     -0.653076   110A     -0.651122   111A     -0.650258
     112A     -0.650252   113A     -0.639358   114A     -0.639355
     115A     -0.629712   116A     -0.627512   117A     -0.627496
     118A     -0.606494   119A     -0.605821   120A     -0.601642
     121A     -0.599726   122A     -0.599695   123A     -0.593627
     124A     -0.591196   125A     -0.591186   126A     -0.585286
     127A     -0.576374   128A     -0.576368   129A     -0.567329
     130A     -0.567315   131A     -0.565938   132A     -0.565919
     133A     -0.558700   134A     -0.554843   135A     -0.554836
     136A     -0.538594   137A     -0.538592   138A     -0.538172
     139A     -0.538166   140A     -0.529714   141A     -0.528208
     142A     -0.522865   143A     -0.522858   144A     -0.500501
     145A     -0.495597   146A     -0.493231   147A     -0.487834
     148A     -0.485060   149A     -0.481748   150A     -0.481740
     151A     -0.470385   152A     -0.470367   153A     -0.450995
     154A     -0.450917   155A     -0.439071   156A     -0.439062
     157A     -0.404719   158A     -0.404695   159A     -0.403371
     160A     -0.375435   161A     -0.375433   162A     -0.349113
     163A     -0.337547   164A     -0.336597   165A     -0.336539
     166A     -0.311069   167A     -0.298123   168A     -0.284317
     169A     -0.284263   170A     -0.224903   171A     -0.224837

  @DF-RHF Final Energy: -2055.89377688125796

   => Energetics <=

    Nuclear Repulsion Energy =           6452.5568002797781446
    One-Electron Energy =              -15636.4838632479404623
    Two-Electron Energy =                7128.0332860869057185
    Total Energy =                      -2055.8937768812575086
 Dipole X            :          0.0000232            0.0000419            0.0000651
 Dipole Y            :          0.0000606           -0.0000426            0.0000181
 Dipole Z            :       -261.3042582          261.3057258            0.0014675
 Magnitude           :                                                    0.0014691

    SAPT Results
  --------------------------------------------------------------------------------------------------------
    Electrostatics                -12.35117323 [mEh]      -7.75047821 [kcal/mol]     -32.42800085 [kJ/mol]
      Elst10,r                    -12.35117323 [mEh]      -7.75047821 [kcal/mol]     -32.42800085 [kJ/mol]

    Exchange                       63.07530279 [mEh]      39.58035006 [kcal/mol]     165.60418466 [kJ/mol]
      Exch10                       63.07530279 [mEh]      39.58035006 [kcal/mol]     165.60418466 [kJ/mol]
      Exch10(S^2)                  62.68035299 [mEh]      39.33251532 [kcal/mol]     164.56724411 [kJ/mol]

    Induction                     -21.36351992 [mEh]     -13.40581114 [kcal/mol]     -56.08991382 [kJ/mol]
      Ind20,r                     -40.34152338 [mEh]     -25.31468810 [kcal/mol]    -105.91665503 [kJ/mol]
      Exch-Ind20,r                 21.77625466 [mEh]      13.66480610 [kcal/mol]      57.17354873 [kJ/mol]
      delta HF,r (2)               -2.79825120 [mEh]      -1.75592914 [kcal/mol]      -7.34680752 [kJ/mol]

    Dispersion                    -17.34699477 [mEh]     -10.88540356 [kcal/mol]     -45.54452850 [kJ/mol]
      Disp20                      -22.82302537 [mEh]     -14.32166464 [kcal/mol]     -59.92184485 [kJ/mol]
      Exch-Disp20                   5.47603060 [mEh]       3.43626108 [kcal/mol]      14.37731635 [kJ/mol]
      Disp20 (SS)                 -11.41151268 [mEh]      -7.16083232 [kcal/mol]     -29.96092243 [kJ/mol]
      Disp20 (OS)                 -11.41151268 [mEh]      -7.16083232 [kcal/mol]     -29.96092243 [kJ/mol]
      Exch-Disp20 (SS)              2.98536311 [mEh]       1.87334364 [kcal/mol]       7.83806977 [kJ/mol]
      Exch-Disp20 (OS)              2.49066748 [mEh]       1.56291744 [kcal/mol]       6.53924658 [kJ/mol]

  Total HF                         29.36060964 [mEh]      18.42406071 [kcal/mol]      77.08626999 [kJ/mol]
  Total SAPT0                      12.01361487 [mEh]       7.53865714 [kcal/mol]      31.54174149 [kJ/mol]

  Special recipe for scaled SAPT0 (see Manual):
    Electrostatics sSAPT0         -12.35117323 [mEh]      -7.75047821 [kcal/mol]     -32.42800085 [kJ/mol]
    Exchange sSAPT0                63.07530279 [mEh]      39.58035006 [kcal/mol]     165.60418466 [kJ/mol]
    Induction sSAPT0              -20.94928327 [mEh]     -13.14587372 [kcal/mol]     -55.00233564 [kJ/mol]
    Dispersion sSAPT0             -17.24282752 [mEh]     -10.82003762 [kcal/mol]     -45.27103742 [kJ/mol]
  Total sSAPT0                     12.53201877 [mEh]       7.86396050 [kcal/mol]      32.90281075 [kJ/mol]
  --------------------------------------------------------------------------------------------------------

*** Psi4 exiting successfully. Buy a developer a beer!
