                               Psi4 1.9 release

  ==> Input File <==

--------------------------------------------------------------------------
memory 48 GB # how much memory is available ! Depends on the nodes/cores !

molecule dimer {
# monomer A
+1 1    # Charge and multiplicity
C  0.680067 -1.215929 2.108042
C -0.680504 -1.215545 2.106014
N -1.085635  0.102779 2.105016
C  0.000108  0.884180 2.101740
C -2.477365  0.570758 2.055610
N  1.085222  0.102779 2.105016
H  1.385146 -2.033368 2.115870
H -1.385302 -2.033214 2.106204
H -0.000009  1.965269 2.099993
C  2.478117  0.567877 2.121908
H  2.490592  1.658130 2.094563
H  2.967028  0.220701 3.035354
H  3.001428  0.176405 1.246425
H -2.857359  0.490799 1.033539
H -3.082679 -0.042306 2.725694
H -2.518128  1.610706 2.382594
--
# monomer B
0 1     # Charge and multiplicity
C   1.22531237526482      0.70753866091955      0.00613762728373
C   1.22532433589282     -0.70753852257020     -0.00619318228664
C   -0.00000567409046      1.41496628609039     -0.00672680580738
C   2.45644923379077      1.41832825917820      0.00902448468363
C   0.00001130712078     -1.41497612663474      0.00347275151708
C   -1.22530046906674      0.70754574598412      0.00838914760619
C   2.45643823516184     -1.41832293188077     -0.00843833914343
C   -0.00000085313587      2.83680140328112     -0.00913035594137
C   3.68182717731192      0.70931832800114     -0.00808954934571
C   2.45512052870677      2.83422403348893     -0.00819210630633
C   3.68182158506039     -0.70933346742900      0.00798293467272
C   -1.22531311884624     -0.70752714354401     -0.00512042085974
C   1.22670006104402      3.54346985599427      0.00816696660346
C   0.00000526469929     -2.83678176723568      0.00832091913869
C   -2.45643555300670      1.41831729028492      0.00842454345199
C   2.45512389762097     -2.83422965658853      0.00783102630520
C   -1.22671388474763      3.54346943575023      0.00827029982280
C   4.91451777504333      1.42717324448953     -0.00160886631602
C   3.69315067131765      3.54279566454522     -0.00155906667985
C   -2.45643712022637     -1.41831290883911     -0.00846337726810
C   1.22670532178455     -3.54347386990643     -0.00780316414624
C   -2.45512491866593      2.83421703463423     -0.00818572995999
C   4.91452486062398     -1.42718653794377      0.00136387641845
C   1.22142509354026      4.97013443726031      0.00150231067809
C   4.89300870916237      2.82518837202648     -0.00039219795739
C   -1.22669652864725     -3.54347062507680     -0.00753595973677
C   -3.68181849668397      0.70932533873199     -0.00807686886569
C   3.69314758099218     -3.54280096939050      0.00148176697923
C   -1.22143177215231      4.97012866986289      0.00168580605083
C   6.13477145276790      0.68054831910577     -0.00083909176631
C   3.65678936045204      4.97295361556775     -0.00065042889723
C   -2.45512642789169     -2.83421472106065      0.00758666850712
C   -3.68181869921921     -0.70932533146830      0.00810055625144
C   4.89301309775526     -2.82519973363176      0.00021895393805
C   -0.00000059327114      5.65044773803267      0.00045449734393
C   6.13477559217374     -0.68055448207492      0.00042622874941
C   2.47813196269732      5.65357712333155      0.00063835075260
C   1.22142288457925     -4.97012668293268     -0.00129718634452
C   -3.69316190412301      3.54279732619245     -0.00139355922051
C   -1.22142804110313     -4.97011793159564     -0.00140994817719
C   -4.91452132810043      1.42717581899491     -0.00153192130862
C   3.65678749952045     -4.97295485423912      0.00080007163680
C   -2.47813805026426      5.65357479452875      0.00092287576113
C   -3.69314125872231     -3.54278984697859      0.00136564082345
C   -4.91451200321153     -1.42718062802730      0.00139857359209
C   -0.00000552908399     -5.65043791501335      0.00005899322272
C   -4.89302000425900      2.82518897091939     -0.00040227981744
C   2.47812647313991     -5.65357317188818     -0.00029052915548
C   -3.65679823041642      4.97295655404175     -0.00047374852278
C   -4.89299899901461     -2.82519139505969      0.00006491824035
C   -2.47812801824129     -5.65356579800621     -0.00056571680280
C   -6.13477002348955      0.68054913825639     -0.00086464346868
C   -3.65678835334731     -4.97294365097028      0.00058578382008
C   -6.13476456307132     -0.68055354348201      0.00040575295444
H   5.83528897565761      3.36927626695423      0.00396712770529
H   7.07385965258860      1.22821762089947     -0.00037744837300
H   4.60066374401555      5.51238117445323     -0.00014522814529
H   5.83528386714679     -3.36930568472863     -0.00423551337640
H   -0.00001167146422      6.73853104613662     -0.00389474766392
H   7.07386165167227     -1.22822657074368     -0.00008250934481
H   2.47331421164041      6.74068466339473      0.00017162982210
H   4.60066897122302     -5.51237575717576      0.00039007446835
H   -2.47331820069565      6.74068209160650      0.00047297644710
H   -0.00000978838621     -6.73852780445195      0.00458867820736
H   -5.83530143450167      3.36927132229595      0.00410314985360
H   2.47330840367253     -6.74068500242887      0.00027980126949
H   -4.60067436136587      5.51237839860371      0.00002010017831
H   -5.83527902699321     -3.36928859177951     -0.00451481925734
H   -2.47329986759855     -6.74067870613986     -0.00016951527498
H   -7.07385728692578      1.22822084484047     -0.00046143985387
H   -4.60067330624313     -5.51236229778631      0.00021776644566
H   -7.07385645456741     -1.22822025997701     -0.00017736581114

    units angstrom      # Angstroms are the default
    no_reorient         # Geometry fixed, default
    symmetry c1         # C1 symmetry, default
}

set {
    scf_type DF         # Density fitting, faster than exact integrals
    freeze_core True    # Freeze core electrons
    basis jun-cc-pVDZ   # Jun-cc-pVDZ basis set, recommended for sSAPT0 in https://doi.org/10.1063/1.4867135
}

energy('ssapt0')        # Compute sSAPT0 energy, includes also SAPT0
--------------------------------------------------------------------------

  //              Dimer HF             //
    Molecular point group: c1
  Charge       = 1
  Multiplicity = 1
  Basis Set: JUN-CC-PVDZ
    Blend: JUN-CC-PVDZ
  Basis Set: (JUN-CC-PVDZ AUX)
    Blend: JUN-CC-PVDZ-JKFIT
  @DF-RHF Final Energy: -2358.57172591086010
    Total Energy =                      -2358.5717259108605504
 Dipole X            :          0.0353553            0.0006313            0.0359865
 Dipole Y            :         -2.0249377            1.8864948           -0.1384428
 Dipole Z            :         -9.2452926           10.8907394            1.6454468
 Magnitude           :                                                    1.6516527
  //            Monomer A HF           //
    Molecular point group: c1
  Multiplicity = 1
  Basis Set: JUN-CC-PVDZ
    Blend: JUN-CC-PVDZ
  Basis Set: (JUN-CC-PVDZ AUX)
    Blend: JUN-CC-PVDZ-JKFIT
  @DF-RHF Final Energy:  -303.30202824425101
    Total Energy =                       -303.3020282442510052
  //            Monomer B HF           //
    Molecular point group: c1

    Geometry (in Angstrom), charge = 0, multiplicity = 1:

       Center              X                  Y                   Z               Mass
    ------------   -----------------  -----------------  -----------------  -----------------
      Gh(C)           0.680066520158    -1.215933861162     1.840937064974    12.000000000000
      Gh(C)          -0.680504479842    -1.215549861162     1.838909064974    12.000000000000
      Gh(N)          -1.085635479842     0.102774138838     1.837911064974    14.003074004430
      Gh(C)           0.000107520158     0.884175138838     1.834635064974    12.000000000000
      Gh(C)          -2.477365479842     0.570753138838     1.788505064974    12.000000000000
      Gh(N)           1.085221520158     0.102774138838     1.837911064974    14.003074004430
      Gh(H)           1.385145520158    -2.033372861162     1.848765064974     1.007825032230
      Gh(H)          -1.385302479842    -2.033218861162     1.839099064974     1.007825032230
      Gh(H)          -0.000009479842     1.965264138838     1.832888064974     1.007825032230
      Gh(C)           2.478116520158     0.567872138838     1.854803064974    12.000000000000
      Gh(H)           2.490591520158     1.658125138838     1.827458064974     1.007825032230
      Gh(H)           2.967027520158     0.220696138838     2.768249064974     1.007825032230
      Gh(H)           3.001427520158     0.176400138838     0.979320064974     1.007825032230
      Gh(H)          -2.857359479842     0.490794138838     0.766434064974     1.007825032230
      Gh(H)          -3.082679479842    -0.042310861162     2.458589064974     1.007825032230
      Gh(H)          -2.518128479842     1.610701138838     2.115489064974     1.007825032230
         C            1.225311895423     0.707533799757    -0.260967307742    12.000000000000
         C            1.225323856051    -0.707543383733    -0.273298117312    12.000000000000
         C           -0.000006153932     1.414961424928    -0.273831740833    12.000000000000
         C            2.456448753949     1.418323398016    -0.258080450342    12.000000000000
         C            0.000010827279    -1.414980987797    -0.263632183509    12.000000000000
         C           -1.225300948908     0.707540884822    -0.258715787420    12.000000000000
         C            2.456437755320    -1.418327793043    -0.275543274169    12.000000000000
         C           -0.000001332978     2.836796542119    -0.276235290967    12.000000000000
         C            3.681826697470     0.709313466839    -0.275194484371    12.000000000000
         C            2.455120048865     2.834219172327    -0.275297041332    12.000000000000
         C            3.681821105219    -0.709338328591    -0.259122000353    12.000000000000
         C           -1.225313598688    -0.707532004706    -0.272225355885    12.000000000000
         C            1.226699581202     3.543464994832    -0.258937968422    12.000000000000
         C            0.000004784858    -2.836786628398    -0.258784015887    12.000000000000
         C           -2.456436032848     1.418312429123    -0.258680391574    12.000000000000
         C            2.455123417779    -2.834234517751    -0.259273908720    12.000000000000
         C           -1.226714364589     3.543464574588    -0.258834635203    12.000000000000
         C            4.914517295202     1.427168383327    -0.268713801342    12.000000000000
         C            3.693150191476     3.542790803383    -0.268664001706    12.000000000000
         C           -2.456437600068    -1.418317770001    -0.275568312294    12.000000000000
         C            1.226704841943    -3.543478731069    -0.274908099172    12.000000000000
         C           -2.455125398508     2.834212173472    -0.275290664986    12.000000000000
         C            4.914524380782    -1.427191399106    -0.265741058607    12.000000000000
         C            1.221424613699     4.970129576098    -0.265602624348    12.000000000000
         C            4.893008229321     2.825183510864    -0.267497132983    12.000000000000
         C           -1.226697008489    -3.543475486239    -0.274640894762    12.000000000000
         C           -3.681818976526     0.709320477570    -0.275181803891    12.000000000000
         C            3.693147101150    -3.542805830553    -0.265623168046    12.000000000000
         C           -1.221432251994     4.970123808701    -0.265419128975    12.000000000000
         C            6.134770972926     0.680543457943    -0.267944026792    12.000000000000
         C            3.656788880610     4.972948754405    -0.267755363923    12.000000000000
         C           -2.455126907733    -2.834219582223    -0.259518266519    12.000000000000
         C           -3.681819179061    -0.709330192631    -0.259004378774    12.000000000000
         C            4.893012617914    -2.825204594794    -0.266885981088    12.000000000000
         C           -0.000001073113     5.650442876870    -0.266650437682    12.000000000000
         C            6.134775112332    -0.680559343237    -0.266678706276    12.000000000000
         C            2.478131482856     5.653572262169    -0.266466584273    12.000000000000
         C            1.221422404738    -4.970131544095    -0.268402121370    12.000000000000
         C           -3.693162383965     3.542792465030    -0.268498494246    12.000000000000
         C           -1.221428520945    -4.970122792758    -0.268514883203    12.000000000000
         C           -4.914521807942     1.427170957833    -0.268636856334    12.000000000000
         C            3.656787019679    -4.972959715401    -0.266304863389    12.000000000000
         C           -2.478138530106     5.653569933366    -0.266182059265    12.000000000000
         C           -3.693141738564    -3.542794708141    -0.265739294202    12.000000000000
         C           -4.914512483053    -1.427185489190    -0.265706361434    12.000000000000
         C           -0.000006008926    -5.650442776176    -0.267045941803    12.000000000000
         C           -4.893020484101     2.825184109757    -0.267507214843    12.000000000000
         C            2.478125993298    -5.653578033051    -0.267395464181    12.000000000000
         C           -3.656798710258     4.972951692879    -0.267578683548    12.000000000000
         C           -4.892999478856    -2.825196256222    -0.267040016785    12.000000000000
         C           -2.478128498083    -5.653570659169    -0.267670651828    12.000000000000
         C           -6.134770503331     0.680544277094    -0.267969578494    12.000000000000
         C           -3.656788833189    -4.972948512133    -0.266519151206    12.000000000000
         C           -6.134765042913    -0.680558404644    -0.266699182071    12.000000000000
         H            5.835288495816     3.369271405792    -0.263137807320     1.007825032230
         H            7.073859172747     1.228212759737    -0.267482383399     1.007825032230
         H            4.600663264174     5.512376313291    -0.267250163171     1.007825032230
         H            5.835283387305    -3.369310545891    -0.271340448402     1.007825032230
         H           -0.000012151306     6.738526184974    -0.270999682690     1.007825032230
         H            7.073861171831    -1.228231431906    -0.267187444371     1.007825032230
         H            2.473313731799     6.740679802232    -0.266933305204     1.007825032230
         H            4.600668491381    -5.512380618338    -0.266714860557     1.007825032230
         H           -2.473318680537     6.740677230444    -0.266631958579     1.007825032230
         H           -0.000010268228    -6.738532665614    -0.262516256818     1.007825032230
         H           -5.835301914343     3.369266461134    -0.263001785172     1.007825032230
         H            2.473307923831    -6.740689863591    -0.266825133756     1.007825032230
         H           -4.600674841208     5.512373537441    -0.267084834847     1.007825032230
         H           -5.835279506835    -3.369293452942    -0.271619754283     1.007825032230
         H           -2.473300347440    -6.740683567302    -0.267274450301     1.007825032230
         H           -7.073857766768     1.228215983678    -0.267566374880     1.007825032230
         H           -4.600673786085    -5.512367158949    -0.266887168580     1.007825032230
         H           -7.073856934409    -1.228225121139    -0.267282300837     1.007825032230

  Charge       = 0
  Multiplicity = 1
  Basis Set: JUN-CC-PVDZ
    Blend: JUN-CC-PVDZ
  Basis Set: (JUN-CC-PVDZ AUX)
    Blend: JUN-CC-PVDZ-JKFIT

    Orbital Energies [Eh]
    ---------------------

    Doubly Occupied:

       1A    -11.260519     2A    -11.260071     3A    -11.260053
       4A    -11.259303     5A    -11.259301     6A    -11.259112
       7A    -11.258859     8A    -11.258792     9A    -11.258781
      10A    -11.258457    11A    -11.258452    12A    -11.258327
      13A    -11.258289    14A    -11.258275    15A    -11.258253
      16A    -11.258234    17A    -11.258228    18A    -11.258216
      19A    -11.258208    20A    -11.258198    21A    -11.258184
      22A    -11.258143    23A    -11.258139    24A    -11.257916
      25A    -11.257129    26A    -11.257073    27A    -11.257057
      28A    -11.256938    29A    -11.256935    30A    -11.256847
      31A    -11.256224    32A    -11.256155    33A    -11.256136
      34A    -11.256045    35A    -11.256041    36A    -11.255983
      37A    -11.252111    38A    -11.252102    39A    -11.252068
      40A    -11.252064    41A    -11.252058    42A    -11.252056
      43A    -11.251189    44A    -11.251155    45A    -11.251148
      46A    -11.251147    47A    -11.251134    48A    -11.251130
      49A    -11.250672    50A    -11.250662    51A    -11.250629
      52A    -11.250625    53A    -11.250619    54A    -11.250617
      55A     -1.243636    56A     -1.219461    57A     -1.219415
      58A     -1.189208    59A     -1.189186    60A     -1.180555
      61A     -1.157250    62A     -1.148651    63A     -1.135126
      64A     -1.135075    65A     -1.112889    66A     -1.112885
      67A     -1.082053    68A     -1.082047    69A     -1.078220
      70A     -1.065691    71A     -1.065681    72A     -1.039053
      73A     -1.023856    74A     -1.021367    75A     -1.021288
      76A     -1.017429    77A     -1.012513    78A     -0.986644
      79A     -0.986591    80A     -0.961568    81A     -0.961511
      82A     -0.893967    83A     -0.893944    84A     -0.887520
      85A     -0.885757    86A     -0.885725    87A     -0.881003
      88A     -0.880964    89A     -0.861574    90A     -0.837140
      91A     -0.817858    92A     -0.816202    93A     -0.811755
      94A     -0.811742    95A     -0.794377    96A     -0.794360
      97A     -0.746218    98A     -0.744480    99A     -0.733027
     100A     -0.733007   101A     -0.731858   102A     -0.731833
     103A     -0.716126   104A     -0.698652   105A     -0.698614
     106A     -0.693239   107A     -0.693190   108A     -0.660906
     109A     -0.652722   110A     -0.650745   111A     -0.649946
     112A     -0.649942   113A     -0.639046   114A     -0.639017
     115A     -0.629349   116A     -0.627138   117A     -0.627130
     118A     -0.606435   119A     -0.605573   120A     -0.601267
     121A     -0.599411   122A     -0.599336   123A     -0.593256
     124A     -0.590795   125A     -0.590759   126A     -0.585007
     127A     -0.576386   128A     -0.576303   129A     -0.567034
     130A     -0.567013   131A     -0.565568   132A     -0.565564
     133A     -0.558326   134A     -0.554532   135A     -0.554520
     136A     -0.538278   137A     -0.538273   138A     -0.538112
     139A     -0.538102   140A     -0.529365   141A     -0.528088
     142A     -0.522548   143A     -0.522507   144A     -0.500187
     145A     -0.495472   146A     -0.492908   147A     -0.487685
     148A     -0.484697   149A     -0.481388   150A     -0.481384
     151A     -0.470206   152A     -0.470203   153A     -0.450594
     154A     -0.450539   155A     -0.438913   156A     -0.438901
     157A     -0.404559   158A     -0.404540   159A     -0.403177
     160A     -0.375242   161A     -0.375241   162A     -0.348927
     163A     -0.337350   164A     -0.336306   165A     -0.336262
     166A     -0.310873   167A     -0.297929   168A     -0.284074
     169A     -0.284045   170A     -0.224687   171A     -0.224616

  @DF-RHF Final Energy: -2055.89872220566349

   => Energetics <=

    Nuclear Repulsion Energy =           6452.5568002797781446
    One-Electron Energy =              -15636.5865180167002109
    Two-Electron Energy =                7128.1309955312572129
    Total Energy =                      -2055.8987222056639439
 Dipole X            :         -0.0005912           -0.0000085           -0.0005997
 Dipole Y            :         -0.0000102           -0.0028843           -0.0028944
 Dipole Z            :        172.6328127         -172.6277125            0.0051003
 Magnitude           :                                                    0.0058949

    SAPT Results
  --------------------------------------------------------------------------------------------------------
    Electrostatics               -439.55366118 [mEh]    -275.82408662 [kcal/mol]   -1154.04797843 [kJ/mol]
      Elst10,r                   -439.55366118 [mEh]    -275.82408662 [kcal/mol]   -1154.04797843 [kJ/mol]

    Exchange                     1182.60142748 [mEh]     742.09359945 [kcal/mol]    3104.91962009 [kJ/mol]
      Exch10                     1182.60142748 [mEh]     742.09359945 [kcal/mol]    3104.91962009 [kJ/mol]
      Exch10(S^2)                1065.91231780 [mEh]     668.87007763 [kcal/mol]    2798.55240482 [kJ/mol]

    Induction                    -114.02322725 [mEh]     -71.55065533 [kcal/mol]    -299.36794190 [kJ/mol]
      Ind20,r                    -698.52308322 [mEh]    -438.32985237 [kcal/mol]   -1833.97210232 [kJ/mol]
      Exch-Ind20,r                503.11888754 [mEh]     315.71186837 [kcal/mol]    1320.93845726 [kJ/mol]
      delta HF,r (2)               81.38096843 [mEh]      51.06732867 [kcal/mol]     213.66570316 [kJ/mol]

    Dispersion                   -237.89516104 [mEh]    -149.28146732 [kcal/mol]    -624.59365927 [kJ/mol]
      Disp20                     -303.70080704 [mEh]    -190.57513361 [kcal/mol]    -797.36635904 [kJ/mol]
      Exch-Disp20                  65.80564600 [mEh]      41.29366629 [kcal/mol]     172.77269977 [kJ/mol]
      Disp20 (SS)                -151.85040352 [mEh]     -95.28756681 [kcal/mol]    -398.68317952 [kJ/mol]
      Disp20 (OS)                -151.85040352 [mEh]     -95.28756681 [kcal/mol]    -398.68317952 [kJ/mol]
      Exch-Disp20 (SS)             38.11703698 [mEh]      23.91880182 [kcal/mol]     100.07626680 [kJ/mol]
      Exch-Disp20 (OS)             27.68860902 [mEh]      17.37486448 [kcal/mol]      72.69643298 [kJ/mol]

  Total HF                        629.02453905 [mEh]     394.71885750 [kcal/mol]    1651.50369976 [kJ/mol]
  Total SAPT0                     391.12937801 [mEh]     245.43739017 [kcal/mol]    1026.91004049 [kJ/mol]

  Special recipe for scaled SAPT0 (see Manual):
    Electrostatics sSAPT0        -439.55366118 [mEh]    -275.82408662 [kcal/mol]   -1154.04797843 [kJ/mol]
    Exchange sSAPT0              1182.60142748 [mEh]     742.09359945 [kcal/mol]    3104.91962009 [kJ/mol]
    Induction sSAPT0               69.96014223 [mEh]      43.90065203 [kcal/mol]     183.68032811 [kJ/mol]
    Dispersion sSAPT0            -213.83097904 [mEh]    -134.18096513 [kcal/mol]    -561.41315811 [kJ/mol]
  Total sSAPT0                    599.17692949 [mEh]     375.98919973 [kcal/mol]    1573.13881166 [kJ/mol]
  --------------------------------------------------------------------------------------------------------

*** Psi4 exiting successfully. Buy a developer a beer!
