                               Psi4 1.9 release

  ==> Input File <==

--------------------------------------------------------------------------
memory 32 GB # how much memory is available ! Depends on the nodes/cores !

molecule dimer {
# monomer A
+1 1    # Charge and multiplicity
C  0.680067 1.417258 -6.215929
C -0.680504 1.419286 -6.215545
N -1.085635 1.420284 -4.897221
C  0.000108 1.423560 -4.115820
C -2.477365 1.469690 -4.429242
N  1.085222 1.420284 -4.897221
H  1.385146 1.409430 -7.033368
H -1.385302 1.419096 -7.033214
H -0.000009 1.425307 -3.034731
C  2.478117 1.403392 -4.432123
H  2.490592 1.430737 -3.341870
H  2.967028 0.489946 -4.779299
H  3.001428 2.278875 -4.823595
H -2.857359 2.491761 -4.509201
H -3.082679 0.799606 -5.042306
H -2.518128 1.142706 -3.389294
--
# monomer B
0 1     # Charge and multiplicity
C   1.22531237526482      0.70753866091955      0.00613762728373
C   1.22532433589282     -0.70753852257020     -0.00619318228664
C   -0.00000567409046      1.41496628609039     -0.00672680580738
C   2.45644923379077      1.41832825917820      0.00902448468363
C   0.00001130712078     -1.41497612663474      0.00347275151708
C   -1.22530046906674      0.70754574598412      0.00838914760619
C   2.45643823516184     -1.41832293188077     -0.00843833914343
C   -0.00000085313587      2.83680140328112     -0.00913035594137
C   3.68182717731192      0.70931832800114     -0.00808954934571
C   2.45512052870677      2.83422403348893     -0.00819210630633
C   3.68182158506039     -0.70933346742900      0.00798293467272
C   -1.22531311884624     -0.70752714354401     -0.00512042085974
C   1.22670006104402      3.54346985599427      0.00816696660346
C   0.00000526469929     -2.83678176723568      0.00832091913869
C   -2.45643555300670      1.41831729028492      0.00842454345199
C   2.45512389762097     -2.83422965658853      0.00783102630520
C   -1.22671388474763      3.54346943575023      0.00827029982280
C   4.91451777504333      1.42717324448953     -0.00160886631602
C   3.69315067131765      3.54279566454522     -0.00155906667985
C   -2.45643712022637     -1.41831290883911     -0.00846337726810
C   1.22670532178455     -3.54347386990643     -0.00780316414624
C   -2.45512491866593      2.83421703463423     -0.00818572995999
C   4.91452486062398     -1.42718653794377      0.00136387641845
C   1.22142509354026      4.97013443726031      0.00150231067809
C   4.89300870916237      2.82518837202648     -0.00039219795739
C   -1.22669652864725     -3.54347062507680     -0.00753595973677
C   -3.68181849668397      0.70932533873199     -0.00807686886569
C   3.69314758099218     -3.54280096939050      0.00148176697923
C   -1.22143177215231      4.97012866986289      0.00168580605083
C   6.13477145276790      0.68054831910577     -0.00083909176631
C   3.65678936045204      4.97295361556775     -0.00065042889723
C   -2.45512642789169     -2.83421472106065      0.00758666850712
C   -3.68181869921921     -0.70932533146830      0.00810055625144
C   4.89301309775526     -2.82519973363176      0.00021895393805
C   -0.00000059327114      5.65044773803267      0.00045449734393
C   6.13477559217374     -0.68055448207492      0.00042622874941
C   2.47813196269732      5.65357712333155      0.00063835075260
C   1.22142288457925     -4.97012668293268     -0.00129718634452
C   -3.69316190412301      3.54279732619245     -0.00139355922051
C   -1.22142804110313     -4.97011793159564     -0.00140994817719
C   -4.91452132810043      1.42717581899491     -0.00153192130862
C   3.65678749952045     -4.97295485423912      0.00080007163680
C   -2.47813805026426      5.65357479452875      0.00092287576113
C   -3.69314125872231     -3.54278984697859      0.00136564082345
C   -4.91451200321153     -1.42718062802730      0.00139857359209
C   -0.00000552908399     -5.65043791501335      0.00005899322272
C   -4.89302000425900      2.82518897091939     -0.00040227981744
C   2.47812647313991     -5.65357317188818     -0.00029052915548
C   -3.65679823041642      4.97295655404175     -0.00047374852278
C   -4.89299899901461     -2.82519139505969      0.00006491824035
C   -2.47812801824129     -5.65356579800621     -0.00056571680280
C   -6.13477002348955      0.68054913825639     -0.00086464346868
C   -3.65678835334731     -4.97294365097028      0.00058578382008
C   -6.13476456307132     -0.68055354348201      0.00040575295444
H   5.83528897565761      3.36927626695423      0.00396712770529
H   7.07385965258860      1.22821762089947     -0.00037744837300
H   4.60066374401555      5.51238117445323     -0.00014522814529
H   5.83528386714679     -3.36930568472863     -0.00423551337640
H   -0.00001167146422      6.73853104613662     -0.00389474766392
H   7.07386165167227     -1.22822657074368     -0.00008250934481
H   2.47331421164041      6.74068466339473      0.00017162982210
H   4.60066897122302     -5.51237575717576      0.00039007446835
H   -2.47331820069565      6.74068209160650      0.00047297644710
H   -0.00000978838621     -6.73852780445195      0.00458867820736
H   -5.83530143450167      3.36927132229595      0.00410314985360
H   2.47330840367253     -6.74068500242887      0.00027980126949
H   -4.60067436136587      5.51237839860371      0.00002010017831
H   -5.83527902699321     -3.36928859177951     -0.00451481925734
H   -2.47329986759855     -6.74067870613986     -0.00016951527498
H   -7.07385728692578      1.22822084484047     -0.00046143985387
H   -4.60067330624313     -5.51236229778631      0.00021776644566
H   -7.07385645456741     -1.22822025997701     -0.00017736581114

    units angstrom      # Angstroms are the default
    no_reorient         # Geometry fixed, default
    symmetry c1         # C1 symmetry, default
}

set {
    scf_type DF         # Density fitting, faster than exact integrals
    freeze_core True    # Freeze core electrons
    basis jun-cc-pVDZ   # Jun-cc-pVDZ basis set, recommended for sSAPT0 in https://doi.org/10.1063/1.4867135
}

energy('ssapt0')        # Compute sSAPT0 energy, includes also SAPT0
--------------------------------------------------------------------------

  //              Dimer HF             //
    Molecular point group: c1
  Charge       = 1
  Multiplicity = 1
  Basis Set: JUN-CC-PVDZ
    Blend: JUN-CC-PVDZ
  Basis Set: (JUN-CC-PVDZ AUX)
    Blend: JUN-CC-PVDZ-JKFIT
  @DF-RHF Final Energy: -2359.21107471348205
    Total Energy =                      -2359.2110747134811390
 Dipole X            :         -0.0023261            0.0006313           -0.0016948
 Dipole Y            :         -5.9331274            7.4856329            1.5525056
 Dipole Z            :         17.7646986          -24.1765973           -6.4118987
 Magnitude           :                                                    6.5971752
  //            Monomer A HF           //
    Molecular point group: c1
  Multiplicity = 1
  Basis Set: JUN-CC-PVDZ
    Blend: JUN-CC-PVDZ
  Basis Set: (JUN-CC-PVDZ AUX)
    Blend: JUN-CC-PVDZ-JKFIT
  @DF-RHF Final Energy:  -303.29778509123400
    Total Energy =                       -303.2977850912340045
  //            Monomer B HF           //
    Molecular point group: c1

    Geometry (in Angstrom), charge = 0, multiplicity = 1:

       Center              X                  Y                   Z               Mass
    ------------   -----------------  -----------------  -----------------  -----------------
      Gh(C)           0.680066520158     1.235968212970    -5.579961948708    12.000000000000
      Gh(C)          -0.680504479842     1.237996212970    -5.579577948708    12.000000000000
      Gh(N)          -1.085635479842     1.238994212970    -4.261253948708    14.003074004430
      Gh(C)           0.000107520158     1.242270212970    -3.479852948708    12.000000000000
      Gh(C)          -2.477365479842     1.288400212970    -3.793274948708    12.000000000000
      Gh(N)           1.085221520158     1.238994212970    -4.261253948708    14.003074004430
      Gh(H)           1.385145520158     1.228140212970    -6.397400948708     1.007825032230
      Gh(H)          -1.385302479842     1.237806212970    -6.397246948708     1.007825032230
      Gh(H)          -0.000009479842     1.244017212970    -2.398763948708     1.007825032230
      Gh(C)           2.478116520158     1.222102212970    -3.796155948708    12.000000000000
      Gh(H)           2.490591520158     1.249447212970    -2.705902948708     1.007825032230
      Gh(H)           2.967027520158     0.308656212970    -4.143331948708     1.007825032230
      Gh(H)           3.001427520158     2.097585212970    -4.187627948708     1.007825032230
      Gh(H)          -2.857359479842     2.310471212970    -3.873233948708     1.007825032230
      Gh(H)          -3.082679479842     0.618316212970    -4.406338948708     1.007825032230
      Gh(H)          -2.518128479842     0.961416212970    -2.753326948708     1.007825032230
         C            1.225311895423     0.526248873889     0.642104678576    12.000000000000
         C            1.225323856051    -0.888828309601     0.629773869006    12.000000000000
         C           -0.000006153932     1.233676499060     0.629240245485    12.000000000000
         C            2.456448753949     1.237038472148     0.644991535976    12.000000000000
         C            0.000010827279    -1.596265913665     0.639439802809    12.000000000000
         C           -1.225300948908     0.526255958954     0.644356198898    12.000000000000
         C            2.456437755320    -1.599612718911     0.627528712149    12.000000000000
         C           -0.000001332978     2.655511616251     0.626836695351    12.000000000000
         C            3.681826697470     0.528028540971     0.627877501946    12.000000000000
         C            2.455120048865     2.652934246459     0.627774944986    12.000000000000
         C            3.681821105219    -0.890623254459     0.643949985965    12.000000000000
         C           -1.225313598688    -0.888816930574     0.630846630432    12.000000000000
         C            1.226699581202     3.362180068964     0.644134017896    12.000000000000
         C            0.000004784858    -3.018071554266     0.644287970431    12.000000000000
         C           -2.456436032848     1.237027503255     0.644391594744    12.000000000000
         C            2.455123417779    -3.015519443619     0.643798077597    12.000000000000
         C           -1.226714364589     3.362179648720     0.644237351115    12.000000000000
         C            4.914517295202     1.245883457459     0.634358184976    12.000000000000
         C            3.693150191476     3.361505877515     0.634407984612    12.000000000000
         C           -2.456437600068    -1.599602695869     0.627503674024    12.000000000000
         C            1.226704841943    -3.724763656937     0.628163887146    12.000000000000
         C           -2.455125398508     2.652927247604     0.627781321332    12.000000000000
         C            4.914524380782    -1.608476324974     0.637330927711    12.000000000000
         C            1.221424613699     4.788844650230     0.637469361970    12.000000000000
         C            4.893008229321     2.643898584996     0.635574853335    12.000000000000
         C           -1.226697008489    -3.724760412107     0.628431091555    12.000000000000
         C           -3.681818976526     0.528035551702     0.627890182426    12.000000000000
         C            3.693147101150    -3.724090756421     0.637448818271    12.000000000000
         C           -1.221432251994     4.788838882833     0.637652857343    12.000000000000
         C            6.134770972926     0.499258532075     0.635127959526    12.000000000000
         C            3.656788880610     4.791663828537     0.635316622395    12.000000000000
         C           -2.455126907733    -3.015504508091     0.643553719799    12.000000000000
         C           -3.681819179061    -0.890615118499     0.644067607544    12.000000000000
         C            4.893012617914    -3.006489520662     0.636186005230    12.000000000000
         C           -0.000001073113     5.469157951002     0.636421548636    12.000000000000
         C            6.134775112332    -0.861844269105     0.636393280042    12.000000000000
         C            2.478131482856     5.472287336301     0.636605402045    12.000000000000
         C            1.221422404738    -5.151416469963     0.634669864948    12.000000000000
         C           -3.693162383965     3.361507539162     0.634573492072    12.000000000000
         C           -1.221428520945    -5.151407718626     0.634557103115    12.000000000000
         C           -4.914521807942     1.245886031965     0.634435129984    12.000000000000
         C            3.656787019679    -5.154244641269     0.636767122929    12.000000000000
         C           -2.478138530106     5.472285007498     0.636889927053    12.000000000000
         C           -3.693141738564    -3.724079634009     0.637332692116    12.000000000000
         C           -4.914512483053    -1.608470415058     0.637365624884    12.000000000000
         C           -0.000006008926    -5.831727702044     0.636026044515    12.000000000000
         C           -4.893020484101     2.643899183889     0.635564771475    12.000000000000
         C            2.478125993298    -5.834862958919     0.635676522137    12.000000000000
         C           -3.656798710258     4.791666767011     0.635493302769    12.000000000000
         C           -4.892999478856    -3.006481182090     0.636031969532    12.000000000000
         C           -2.478128498083    -5.834855585037     0.635401334489    12.000000000000
         C           -6.134770503331     0.499259351226     0.635102407823    12.000000000000
         C           -3.656788833189    -5.154233438001     0.636552835112    12.000000000000
         C           -6.134765042913    -0.861843330512     0.636372804247    12.000000000000
         H            5.835288495816     3.187986479924     0.639934178997     1.007825032230
         H            7.073859172747     1.046927833869     0.635589602919     1.007825032230
         H            4.600663264174     5.331091387423     0.635821823147     1.007825032230
         H            5.835283387305    -3.550595471759     0.631731537916     1.007825032230
         H           -0.000012151306     6.557241259106     0.632072303628     1.007825032230
         H            7.073861171831    -1.409516357774     0.635884541947     1.007825032230
         H            2.473313731799     6.559394876364     0.636138681114     1.007825032230
         H            4.600668491381    -5.693665544206     0.636357125760     1.007825032230
         H           -2.473318680537     6.559392304576     0.636440027739     1.007825032230
         H           -0.000010268228    -6.919817591482     0.640555729500     1.007825032230
         H           -5.835301914343     3.187981535266     0.640070201146     1.007825032230
         H            2.473307923831    -6.921974789459     0.636246852562     1.007825032230
         H           -4.600674841208     5.331088611573     0.635987151470     1.007825032230
         H           -5.835279506835    -3.550578378810     0.631452232035     1.007825032230
         H           -2.473300347440    -6.921968493170     0.635797536017     1.007825032230
         H           -7.073857766768     1.046931057810     0.635505611438     1.007825032230
         H           -4.600673786085    -5.693652084817     0.636184817738     1.007825032230
         H           -7.073856934409    -1.409510047007     0.635789685481     1.007825032230

  Charge       = 0
  Multiplicity = 1
  Basis Set: JUN-CC-PVDZ
    Blend: JUN-CC-PVDZ
  Basis Set: (JUN-CC-PVDZ AUX)
    Blend: JUN-CC-PVDZ-JKFIT

    Orbital Energies [Eh]
    ---------------------

    Doubly Occupied:

       1A    -11.260582     2A    -11.260128     3A    -11.260124
       4A    -11.259436     5A    -11.259419     6A    -11.259235
       7A    -11.259040     8A    -11.258962     9A    -11.258921
      10A    -11.258607    11A    -11.258593    12A    -11.258516
      13A    -11.258455    14A    -11.258452    15A    -11.258447
      16A    -11.258415    17A    -11.258409    18A    -11.258396
      19A    -11.258392    20A    -11.258385    21A    -11.258370
      22A    -11.258299    23A    -11.258285    24A    -11.258002
      25A    -11.257322    26A    -11.257268    27A    -11.257251
      28A    -11.257137    29A    -11.257121    30A    -11.257042
      31A    -11.256418    32A    -11.256356    33A    -11.256341
      34A    -11.256244    35A    -11.256237    36A    -11.256182
      37A    -11.252274    38A    -11.252271    39A    -11.252240
      40A    -11.252234    41A    -11.252232    42A    -11.252229
      43A    -11.251386    44A    -11.251369    45A    -11.251368
      46A    -11.251362    47A    -11.251361    48A    -11.251340
      49A    -11.250835    50A    -11.250832    51A    -11.250801
      52A    -11.250795    53A    -11.250793    54A    -11.250790
      55A     -1.244013    56A     -1.219774    57A     -1.219748
      58A     -1.189496    59A     -1.189476    60A     -1.180892
      61A     -1.157506    62A     -1.148929    63A     -1.135451
      64A     -1.135421    65A     -1.113142    66A     -1.113138
      67A     -1.082373    68A     -1.082371    69A     -1.078549
      70A     -1.065932    71A     -1.065925    72A     -1.039341
      73A     -1.024218    74A     -1.021721    75A     -1.021655
      76A     -1.017674    77A     -1.012746    78A     -0.986969
      79A     -0.986915    80A     -0.961829    81A     -0.961776
      82A     -0.894234    83A     -0.894210    84A     -0.887871
      85A     -0.886119    86A     -0.886071    87A     -0.881334
      88A     -0.881286    89A     -0.861844    90A     -0.837358
      91A     -0.818150    92A     -0.816553    93A     -0.812071
      94A     -0.812070    95A     -0.794637    96A     -0.794621
      97A     -0.746555    98A     -0.744794    99A     -0.733355
     100A     -0.733350   101A     -0.732127   102A     -0.732102
     103A     -0.716438   104A     -0.698922   105A     -0.698894
     106A     -0.693535   107A     -0.693498   108A     -0.661176
     109A     -0.653055   110A     -0.651094   111A     -0.650200
     112A     -0.650190   113A     -0.639309   114A     -0.639288
     115A     -0.629653   116A     -0.627458   117A     -0.627449
     118A     -0.606444   119A     -0.605762   120A     -0.601594
     121A     -0.599691   122A     -0.599630   123A     -0.593565
     124A     -0.591161   125A     -0.591133   126A     -0.585228
     127A     -0.576457   128A     -0.576360   129A     -0.567272
     130A     -0.567250   131A     -0.565897   132A     -0.565882
     133A     -0.558662   134A     -0.554792   135A     -0.554789
     136A     -0.538537   137A     -0.538535   138A     -0.538215
     139A     -0.538205   140A     -0.529654   141A     -0.528143
     142A     -0.522819   143A     -0.522795   144A     -0.500447
     145A     -0.495603   146A     -0.493177   147A     -0.487840
     148A     -0.485004   149A     -0.481689   150A     -0.481689
     151A     -0.470320   152A     -0.470318   153A     -0.450949
     154A     -0.450880   155A     -0.439052   156A     -0.439045
     157A     -0.404730   158A     -0.404711   159A     -0.403339
     160A     -0.375404   161A     -0.375393   162A     -0.349098
     163A     -0.337596   164A     -0.336540   165A     -0.336469
     166A     -0.311073   167A     -0.298073   168A     -0.284329
     169A     -0.284273   170A     -0.224889   171A     -0.224829

  @DF-RHF Final Energy: -2055.89417795362078

   => Energetics <=

    Nuclear Repulsion Energy =           6452.5568002797781446
    One-Electron Energy =              -15636.4971430215009605
    Two-Electron Energy =                7128.0461647881029421
    Total Energy =                      -2055.8941779536207832
 Dipole X            :         -0.0000686           -0.0000085           -0.0000772
 Dipole Y            :        117.1712223         -117.1648546            0.0063678
 Dipole Z            :       -411.0107891          411.0153717            0.0045827
 Magnitude           :                                                    0.0078457

    SAPT Results
  --------------------------------------------------------------------------------------------------------
    Electrostatics                -11.91230408 [mEh]      -7.47508367 [kcal/mol]     -31.27575007 [kJ/mol]
      Elst10,r                    -11.91230408 [mEh]      -7.47508367 [kcal/mol]     -31.27575007 [kJ/mol]

    Exchange                        1.63451710 [mEh]       1.02567497 [kcal/mol]       4.29142406 [kJ/mol]
      Exch10                        1.63451710 [mEh]       1.02567497 [kcal/mol]       4.29142406 [kJ/mol]
      Exch10(S^2)                   1.63359354 [mEh]       1.02509542 [kcal/mol]       4.28899924 [kJ/mol]

    Induction                      -8.83388165 [mEh]      -5.54334442 [kcal/mol]     -23.19335306 [kJ/mol]
      Ind20,r                      -8.42131965 [mEh]      -5.28445786 [kcal/mol]     -22.11017170 [kJ/mol]
      Exch-Ind20,r                  0.36463092 [mEh]       0.22880936 [kcal/mol]       0.95733835 [kJ/mol]
      delta HF,r (2)               -0.77719292 [mEh]      -0.48769592 [kcal/mol]      -2.04051972 [kJ/mol]

    Dispersion                     -9.26396760 [mEh]      -5.81322743 [kcal/mol]     -24.32254358 [kJ/mol]
      Disp20                       -9.43325564 [mEh]      -5.91945728 [kcal/mol]     -24.76700928 [kJ/mol]
      Exch-Disp20                   0.16928804 [mEh]       0.10622985 [kcal/mol]       0.44446570 [kJ/mol]
      Disp20 (SS)                  -4.71662782 [mEh]      -2.95972864 [kcal/mol]     -12.38350464 [kJ/mol]
      Disp20 (OS)                  -4.71662782 [mEh]      -2.95972864 [kcal/mol]     -12.38350464 [kJ/mol]
      Exch-Disp20 (SS)              0.10772262 [mEh]       0.06759696 [kcal/mol]       0.28282569 [kJ/mol]
      Exch-Disp20 (OS)              0.06156543 [mEh]       0.03863289 [kcal/mol]       0.16164001 [kJ/mol]

  Total HF                        -19.11166863 [mEh]     -11.99275312 [kcal/mol]     -50.17767907 [kJ/mol]
  Total SAPT0                     -28.37563623 [mEh]     -17.80598056 [kcal/mol]     -74.50022265 [kJ/mol]

  Special recipe for scaled SAPT0 (see Manual):
    Electrostatics sSAPT0         -11.91230408 [mEh]      -7.47508367 [kcal/mol]     -31.27575007 [kJ/mol]
    Exchange sSAPT0                 1.63451710 [mEh]       1.02567497 [kcal/mol]       4.29142406 [kJ/mol]
    Induction sSAPT0               -8.83326285 [mEh]      -5.54295613 [kcal/mol]     -23.19172843 [kJ/mol]
    Dispersion sSAPT0              -9.26368031 [mEh]      -5.81304716 [kcal/mol]     -24.32178931 [kJ/mol]
  Total sSAPT0                    -28.37473015 [mEh]     -17.80541198 [kcal/mol]     -74.49784374 [kJ/mol]
  --------------------------------------------------------------------------------------------------------

*** Psi4 exiting successfully. Buy a developer a beer!
