                               Psi4 1.9 release

  ==> Input File <==

--------------------------------------------------------------------------
memory 80 GB # how much memory is available ! Depends on the nodes/cores !

molecule dimer {
# monomer A
+1 1    # Charge and multiplicity
C  0.680067 -0.008042 -5.515929
C -0.680504 -0.006014 -5.515545
N -1.085635 -0.005016 -4.197221
C  0.000108 -0.001740 -3.415820
C -2.477365  0.044390 -3.729242
N  1.085222 -0.005016 -4.197221
H  1.385146 -0.015870 -6.333368
H -1.385302 -0.006204 -6.333214
H -0.000009  0.000007 -2.334731
C  2.478117 -0.021908 -3.732123
H  2.490592  0.005437 -2.641870
H  2.967028 -0.935354 -4.079299
H  3.001428  0.853575 -4.123595
H -2.857359  1.066461 -3.809201
H -3.082679 -0.625694 -4.342306
H -2.518128 -0.282594 -2.689294
--
# monomer B
0 1     # Charge and multiplicity
C   -3.66844126402057      7.80375217008252      0.00190004133558
C   -4.84759871934653      7.13124183134024     -0.00046653359696
C   -4.89495929917518      5.69633040353158     -0.00103944469517
C   -3.65374067877320      4.98073034095895      0.00662099703436
C   -2.40942512149445      7.11398103667468      0.00209438359570
C   -2.42547734410473      5.68112195090346     -0.00491050527438
C   -1.19474401643570      7.78614419430947      0.00356656413763
C   0.03795902893699      7.09942164575698      0.00139585983271
C   0.03033258741920      5.66948955970466     -0.00408752508301
C   -1.20098450790502      4.96927034791531      0.00488220885047
C   1.27795782581485      7.77285944319479      0.00277170839332
C   2.48535808472416      7.08769688523756      0.00049722048857
C   2.48612868491717      5.65477081024076     -0.00644052849921
C   1.25408291964399      4.95607811366431      0.00518741308898
C   3.75171459140595      7.76391215098033      0.00062407186893
C   4.92356605618520      7.07878077698995     -0.00143240883900
C   4.95560727132542      5.64344746336949     -0.00159282164606
C   3.70680153420475      4.94121020833308      0.00349873852374
H   -3.65852113775815      8.89082741913536      0.00358502958574
H   -1.18921332975660      8.87412108735996      0.00753844057883
H   1.28429423888630      8.86083343548850      0.00693053253426
H   3.75354208679975      8.85103527897216      0.00214659618464
H   5.86995870320703      7.61379483465560     -0.00235777588134
H   -5.78823170750226      7.67630221293400     -0.00202638095293
C   -6.09197395869619      4.99326001364347     -0.00291168518608
C   -6.12866148031747      3.58258016879823     -0.00171050815740
C   -3.66457974004527      3.56418217974434     -0.00463560277484
C   -4.89429820469869      2.86108077590057      0.00453338221034
C   -2.43733499489796      2.84761165708481      0.00719617576166
C   -1.20922785759670      3.54788693497833     -0.00648285103018
C   1.24714157216223      3.53468075142962     -0.00729145743546
C   0.01517603956900      2.83311183930540      0.00439272578912
C   2.46764517244071      2.82128997725533      0.00449278391269
C   3.70254947457969      3.52466015442405     -0.00899517692985
C   6.14498038638375      4.92757236613191     -0.00282626685777
C   6.16658835886151      3.51658447594213     -0.00065971342101
C   4.92460995845939      2.80840792535402      0.00587903281610
H   7.08990550964105      5.46688776622306     -0.00658814770723
H   -7.03104175110130      5.54268795285765     -0.00714490013730
C   -7.33969804112295      2.85841153457957     -0.00333767559888
C   -7.36488195805880      1.47032337158330     -0.00157213747140
C   -4.90350460894690      1.44442681216000     -0.00628840166334
C   -6.13225715261081      0.73993935705394      0.00600164231964
C   -3.67687480051673      0.72669714267312      0.00433931473643
C   -2.44565658606518      1.42964113326212     -0.00597039546461
C   -1.22360068130162      0.71532450163492      0.00545886906656
C   0.00763786931376      1.41738314923765      0.00392452278437
C   1.23121980774686      0.70211669058719     -0.01490206287210
C   2.46082110053113      1.40329203612573      0.00460244601878
C   3.68443025419614      0.68719842821222      0.00377365974158
C   4.91870890153864      1.39173456118907     -0.00862816189375
C   7.36980207796101      2.77948220318441     -0.00242013321349
C   7.38016266612146      1.39121750785509     -0.00087345036788
C   6.13979953912259      0.67411862320065      0.00545489144369
H   -8.27919079934664      3.40711804112415     -0.00763522772059
H   8.31511347147953      3.31811809662368     -0.00663070901292
C   -8.59175593758115      0.72483255304480     -0.00123170985383
C   -8.59902460370342     -0.63263980622873      0.00089141472904
C   -6.13981313911873     -0.67413663715361     -0.00609792660607
C   -7.38018411213749     -1.39126618958160      0.00131813493501
C   -4.91868448025621     -1.39175501803000      0.00624257154343
C   -3.68443829568458     -0.68723731573599     -0.00478966852105
C   -2.46081704024768     -1.40334517882457      0.00575341766833
C   -1.23116201232071     -0.70217386488055     -0.00636696112346
C   -0.00756962538737     -1.41741884941102      0.00108956317991
C   1.22364771588843     -0.71527537726392      0.01109518512883
C   2.44567064933149     -1.42964328900682     -0.00065482763106
C   3.67686670284649     -0.72670743155550     -0.00479541202602
C   6.13224884641929     -0.73997883984993     -0.00632338623858
C   4.90351914550401     -1.44445752054090      0.00751768830159
C   8.59901484869081      0.63260386666793     -0.00101133422380
C   8.59174548810050     -0.72485086719319      0.00072504603735
C   7.36486276438985     -1.47033266560598      0.00049486934466
H   -9.52830597181814      1.27684744919284     -0.00270163681798
H   9.54141097460619      1.17457248844457     -0.00206336648518
C   -7.36983790976868     -2.77954514593389      0.00312634335708
C   -4.92459910905015     -2.80843725734101     -0.00460528907921
C   -6.16662249566744     -3.51665219282533      0.00169655107992
C   -3.70251035970491     -3.52468154912026      0.00571878010666
C   -2.46764698511392     -2.82132596280400     -0.00632585824990
C   -0.01513347410770     -2.83314164539971     -0.00604426974092
C   -1.24712184122656     -3.53473217556300      0.00551968366725
C   1.20924506964357     -3.54791467864352      0.00805871345849
C   2.43733602215464     -2.84764173817541     -0.00608104485234
C   4.89430234377080     -2.86112296828604     -0.00526030478103
C   3.66461525504104     -3.56421984553201      0.00761911515957
C   6.12863901474565     -3.58258405771778      0.00096495711699
C   7.33967266469532     -2.85841330737039      0.00248018319869
H   -9.54144911125902     -1.17456346666430      0.00226083090216
H   9.52826186807155     -1.27691907390448      0.00197485379837
H   -8.31516504384864     -3.31814985321231      0.00729857188773
H   8.27915514249207     -3.40714078989363      0.00681973918158
C   -6.14499418870218     -4.92764727278338      0.00302254913999
C   -3.70678334799751     -4.94126171411716     -0.00679841894792
C   -4.95559005800169     -5.64349397349412      0.00116871569699
C   -2.48612132622665     -5.65478557440947      0.00614125209662
C   -1.25405833548005     -4.95612205000132     -0.00503435388927
C   1.20101257386816     -4.96928038819302     -0.00385322963129
C   -0.03033667441341     -5.66952030313900      0.00398997003238
C   3.65375010132847     -4.98074377541453     -0.00309522988330
C   2.42549269587528     -5.68117463552727      0.00628170066869
C   6.09196561781097     -4.99325796338655      0.00325918379042
C   4.89497644461045     -5.69634842095790      0.00202298796027
H   -7.08989238804069     -5.46699984223871      0.00742531082125
H   7.03105520920009     -5.54265853633254      0.00683896355417
C   -4.92354532219813     -7.07882109967734      0.00061394679214
C   -2.48534208823777     -7.08772807792913     -0.00189594564379
C   -3.75168589177895     -7.76394715763627     -0.00170126671874
C   -0.03794895698805     -7.09946487446944     -0.00168022049625
C   -1.27795610040136     -7.77290438466689     -0.00366491325785
C   2.40944432072629     -7.11402201200282     -0.00081701968533
C   1.19474993715296     -7.78618536556242     -0.00296931056689
C   4.84762105249800     -7.13126211057943      0.00168979497423
C   3.66847160587561     -7.80378799294376     -0.00065863938960
H   -5.86994035041618     -7.61383059804164      0.00215798365757
H   5.78824962538815     -7.67633218931421      0.00281691445618
H   -3.75352693944918     -8.85107156923607     -0.00353718114765
H   -1.28430440589466     -8.86087539249706     -0.00809229711623
H   1.18922157469537     -8.87416062058945     -0.00706194725726
H   3.65854661482387     -8.89086063405326     -0.00231318081200

    units angstrom      # Angstroms are the default
    no_reorient         # Geometry fixed, default
    symmetry c1         # C1 symmetry, default
}

set {
    scf_type DF         # Density fitting, faster than exact integrals
    freeze_core True    # Freeze core electrons
    basis jun-cc-pVDZ   # Jun-cc-pVDZ basis set, recommended for sSAPT0 in https://doi.org/10.1063/1.4867135
}

energy('ssapt0')        # Compute sSAPT0 energy, includes also SAPT0
--------------------------------------------------------------------------

  //              Dimer HF             //
    Molecular point group: c1
  Charge       = 1
  Multiplicity = 1
  Basis Set: JUN-CC-PVDZ
    Blend: JUN-CC-PVDZ
  Basis Set: (JUN-CC-PVDZ AUX)
    Blend: JUN-CC-PVDZ-JKFIT
  @DF-RHF Final Energy: -3953.66044486479859
    Total Energy =                      -3953.6604448647995014
 Dipole X            :         -0.0020867            0.0004804           -0.0016063
 Dipole Y            :         -0.0516629            0.0561130            0.0044501
 Dipole Z            :         18.9844650          -24.2285913           -5.2441263
 Magnitude           :                                                    5.2441284
  //            Monomer A HF           //
    Molecular point group: c1
  Multiplicity = 1
  Basis Set: JUN-CC-PVDZ
    Blend: JUN-CC-PVDZ
  Basis Set: (JUN-CC-PVDZ AUX)
    Blend: JUN-CC-PVDZ-JKFIT
  @DF-RHF Final Energy:  -303.29830153560727
    Total Energy =                       -303.2983015356072656
  //            Monomer B HF           //
    Molecular point group: c1

    Geometry (in Angstrom), charge = 0, multiplicity = 1:

       Center              X                  Y                   Z               Mass
    ------------   -----------------  -----------------  -----------------  -----------------
      Gh(C)           0.680062820275    -0.008027535675    -5.188092992773    12.000000000000
      Gh(C)          -0.680508179725    -0.005999535675    -5.187708992773    12.000000000000
      Gh(N)          -1.085639179725    -0.005001535675    -3.869384992773    14.003074004430
      Gh(C)           0.000103820275    -0.001725535675    -3.087983992773    12.000000000000
      Gh(C)          -2.477369179725     0.044404464325    -3.401405992773    12.000000000000
      Gh(N)           1.085217820275    -0.005001535675    -3.869384992773    14.003074004430
      Gh(H)           1.385141820275    -0.015855535675    -6.005531992773     1.007825032230
      Gh(H)          -1.385306179725    -0.006189535675    -6.005377992773     1.007825032230
      Gh(H)          -0.000013179725     0.000021464325    -2.006894992773     1.007825032230
      Gh(C)           2.478112820275    -0.021893535675    -3.404286992773    12.000000000000
      Gh(H)           2.490587820275     0.005451464325    -2.314033992773     1.007825032230
      Gh(H)           2.967023820275    -0.935339535675    -3.751462992773     1.007825032230
      Gh(H)           3.001423820275     0.853589464325    -3.795758992773     1.007825032230
      Gh(H)          -2.857363179725     1.066475464325    -3.481364992773     1.007825032230
      Gh(H)          -3.082683179725    -0.625679535675    -4.014469992773     1.007825032230
      Gh(H)          -2.518132179725    -0.282579535675    -2.361457992773     1.007825032230
         C           -3.668445443746     7.803766634408     0.329736048563    12.000000000000
         C           -4.847602899072     7.131256295665     0.327369473630    12.000000000000
         C           -4.894963478901     5.696344867857     0.326796562532    12.000000000000
         C           -3.653744858499     4.980744805284     0.334457004262    12.000000000000
         C           -2.409429301220     7.113995501000     0.329930390823    12.000000000000
         C           -2.425481523830     5.681136415228     0.322925501953    12.000000000000
         C           -1.194748196161     7.786158658634     0.331402571365    12.000000000000
         C            0.037954849212     7.099436110082     0.329231867060    12.000000000000
         C            0.030328407694     5.669504024030     0.323748482144    12.000000000000
         C           -1.200988687630     4.969284812240     0.332718216078    12.000000000000
         C            1.277953646089     7.772873907520     0.330607715621    12.000000000000
         C            2.485353904999     7.087711349563     0.328333227716    12.000000000000
         C            2.486124505192     5.654785274566     0.321395478728    12.000000000000
         C            1.254078739919     4.956092577989     0.333023420316    12.000000000000
         C            3.751710411681     7.763926615305     0.328460079096    12.000000000000
         C            4.923561876460     7.078795241315     0.326403598388    12.000000000000
         C            4.955603091600     5.643461927694     0.326243185581    12.000000000000
         C            3.706797354479     4.941224672658     0.331334745751    12.000000000000
         H           -3.658525317484     8.890841883460     0.331421036813     1.007825032230
         H           -1.189217509482     8.874135551685     0.335374447806     1.007825032230
         H            1.284290059161     8.860847899813     0.334766539762     1.007825032230
         H            3.753537907074     8.851049743297     0.329982603412     1.007825032230
         H            5.869954523482     7.613809298981     0.325478231346     1.007825032230
         H           -5.788235887228     7.676316677259     0.325809626274     1.007825032230
         C           -6.091978138422     4.993274477968     0.324924322041    12.000000000000
         C           -6.128665660043     3.582594633123     0.326125499070    12.000000000000
         C           -3.664583919771     3.564196644069     0.323200404453    12.000000000000
         C           -4.894302384424     2.861095240226     0.332369389438    12.000000000000
         C           -2.437339174623     2.847626121410     0.335032182989    12.000000000000
         C           -1.209232037322     3.547901399303     0.321353156197    12.000000000000
         C            1.247137392437     3.534695215755     0.320544549792    12.000000000000
         C            0.015171859844     2.833126303630     0.332228733016    12.000000000000
         C            2.467640992715     2.821304441580     0.332328791140    12.000000000000
         C            3.702545294854     3.524674618749     0.318840830298    12.000000000000
         C            6.144976206658     4.927586830457     0.325009740370    12.000000000000
         C            6.166584179136     3.516598940267     0.327176293806    12.000000000000
         C            4.924605778734     2.808422389679     0.333715040043    12.000000000000
         H            7.089901329916     5.466902230548     0.321247859520     1.007825032230
         H           -7.031045930827     5.542702417183     0.320691107090     1.007825032230
         C           -7.339702220848     2.858425998905     0.324498331628    12.000000000000
         C           -7.364886137784     1.470337835908     0.326263869756    12.000000000000
         C           -4.903508788672     1.444441276485     0.321547605564    12.000000000000
         C           -6.132261332336     0.739953821379     0.333837649547    12.000000000000
         C           -3.676878980242     0.726711606998     0.332175321964    12.000000000000
         C           -2.445660765791     1.429655597587     0.321865611763    12.000000000000
         C           -1.223604861027     0.715338965960     0.333294876294    12.000000000000
         C            0.007633689588     1.417397613563     0.331760530012    12.000000000000
         C            1.231215628021     0.702131154912     0.312933944355    12.000000000000
         C            2.460816920806     1.403306500451     0.332438453246    12.000000000000
         C            3.684426074471     0.687212892537     0.331609666969    12.000000000000
         C            4.918704721813     1.391749025514     0.319207845334    12.000000000000
         C            7.369797898236     2.779496667509     0.325415874014    12.000000000000
         C            7.380158486396     1.391231972180     0.326962556859    12.000000000000
         C            6.139795359397     0.674133087526     0.333290898671    12.000000000000
         H           -8.279194979072     3.407132505449     0.320200779507     1.007825032230
         H            8.315109291754     3.318132560949     0.321205298214     1.007825032230
         C           -8.591760117307     0.724847017370     0.326604297374    12.000000000000
         C           -8.599028783429    -0.632625341904     0.328727421956    12.000000000000
         C           -6.139817318844    -0.674122172829     0.321738080621    12.000000000000
         C           -7.380188291863    -1.391251725257     0.329154142162    12.000000000000
         C           -4.918688659982    -1.391740553705     0.334078578771    12.000000000000
         C           -3.684442475410    -0.687222851411     0.323046338706    12.000000000000
         C           -2.460821219973    -1.403330714500     0.333589424896    12.000000000000
         C           -1.231166192046    -0.702159400556     0.321469046104    12.000000000000
         C           -0.007573805113    -1.417404385086     0.328925570407    12.000000000000
         C            1.223643536163    -0.715260912939     0.338931192356    12.000000000000
         C            2.445666469606    -1.429628824682     0.327181179596    12.000000000000
         C            3.676862523121    -0.726692967231     0.323040595201    12.000000000000
         C            6.132244666694    -0.739964375525     0.321512620989    12.000000000000
         C            4.903514965779    -1.444443056216     0.335353695529    12.000000000000
         C            8.599010668965     0.632618330993     0.326824673004    12.000000000000
         C            8.591741308375    -0.724836402868     0.328561053265    12.000000000000
         C            7.364858584664    -1.470318201281     0.328330876572    12.000000000000
         H           -9.528310151544     1.276861913518     0.325134370409     1.007825032230
         H            9.541406794881     1.174586952770     0.325772640742     1.007825032230
         C           -7.369842089494    -2.779530681609     0.330962350584    12.000000000000
         C           -4.924603288776    -2.808422793016     0.323230718148    12.000000000000
         C           -6.166626675393    -3.516637728500     0.329532558307    12.000000000000
         C           -3.702514539430    -3.524667084795     0.333554787334    12.000000000000
         C           -2.467651164839    -2.821311498479     0.321510148977    12.000000000000
         C           -0.015137653833    -2.833127181075     0.321791737486    12.000000000000
         C           -1.247126020952    -3.534717711238     0.333355690895    12.000000000000
         C            1.209240889918    -3.547900214319     0.335894720686    12.000000000000
         C            2.437331842429    -2.847627273850     0.321754962375    12.000000000000
         C            4.894298164045    -2.861108503961     0.322575702446    12.000000000000
         C            3.664611075316    -3.564205381207     0.335455122387    12.000000000000
         C            6.128634835020    -3.582569593393     0.328800964344    12.000000000000
         C            7.339668484970    -2.858398843045     0.330316190426    12.000000000000
         H           -9.541453290984    -1.174549002339     0.330096838130     1.007825032230
         H            9.528257688346    -1.276904609579     0.329810861026     1.007825032230
         H           -8.315169223574    -3.318135388887     0.335134579115     1.007825032230
         H            8.279150962767    -3.407126325569     0.334655746409     1.007825032230
         C           -6.144998368428    -4.927632808458     0.330858556367    12.000000000000
         C           -3.706787527723    -4.941247249792     0.321037588279    12.000000000000
         C           -4.955594237727    -5.643479509169     0.329004722924    12.000000000000
         C           -2.486125505952    -5.654771110084     0.333977259324    12.000000000000
         C           -1.254062515205    -4.956107585676     0.322801653338    12.000000000000
         C            1.201008394143    -4.969265923868     0.323982777596    12.000000000000
         C           -0.030340854139    -5.669505838814     0.331825977260    12.000000000000
         C            3.653745921603    -4.980729311090     0.324740777344    12.000000000000
         C            2.425488516150    -5.681160171202     0.334117707896    12.000000000000
         C            6.091961438086    -4.993243499062     0.331095191018    12.000000000000
         C            4.894972264885    -5.696333956633     0.329858995188    12.000000000000
         H           -7.089896567766    -5.466985377914     0.335261318049     1.007825032230
         H            7.031051029475    -5.542644072008     0.334674970782     1.007825032230
         C           -4.923549501924    -7.078806635352     0.328449954020    12.000000000000
         C           -2.485346267963    -7.087713613604     0.325940061584    12.000000000000
         C           -3.751690071504    -7.763932693311     0.326134740509    12.000000000000
         C           -0.037953136713    -7.099450410144     0.326155786731    12.000000000000
         C           -1.277960280127    -7.772889920342     0.324171093970    12.000000000000
         C            2.409440141001    -7.114007547678     0.327018987542    12.000000000000
         C            1.194745757428    -7.786170901237     0.324866696660    12.000000000000
         C            4.847616872773    -7.131247646254     0.329525802202    12.000000000000
         C            3.668467426150    -7.803773528619     0.327177367838    12.000000000000
         H           -5.869944530142    -7.613816133717     0.329993990885     1.007825032230
         H            5.788245445663    -7.676317724989     0.330652921684     1.007825032230
         H           -3.753531119175    -8.851057104911     0.324298826080     1.007825032230
         H           -1.284308585620    -8.860860928172     0.319743710111     1.007825032230
         H            1.189217394970    -8.874146156264     0.320774059970     1.007825032230
         H            3.658542435098    -8.890846169728     0.325522826415     1.007825032230

  Charge       = 0
  Multiplicity = 1
  Basis Set: JUN-CC-PVDZ
    Blend: JUN-CC-PVDZ
  Basis Set: (JUN-CC-PVDZ AUX)
    Blend: JUN-CC-PVDZ-JKFIT

    Orbital Energies [Eh]
    ---------------------

    Doubly Occupied:

       1A    -11.264033     2A    -11.263715     3A    -11.263647
       4A    -11.263296     5A    -11.263290     6A    -11.263235
       7A    -11.263125     8A    -11.263094     9A    -11.263055
      10A    -11.262869    11A    -11.262740    12A    -11.262726
      13A    -11.262247    14A    -11.262236    15A    -11.262223
      16A    -11.262168    17A    -11.262094    18A    -11.262076
      19A    -11.262035    20A    -11.261992    21A    -11.261986
      22A    -11.261882    23A    -11.261860    24A    -11.261716
      25A    -11.261714    26A    -11.261685    27A    -11.261681
      28A    -11.261641    29A    -11.261636    30A    -11.261545
      31A    -11.261526    32A    -11.261520    33A    -11.261507
      34A    -11.261500    35A    -11.261481    36A    -11.261472
      37A    -11.261295    38A    -11.261287    39A    -11.261280
      40A    -11.261278    41A    -11.261263    42A    -11.261257
      43A    -11.261248    44A    -11.261235    45A    -11.261226
      46A    -11.261205    47A    -11.261200    48A    -11.261195
      49A    -11.261040    50A    -11.261024    51A    -11.260985
      52A    -11.260944    53A    -11.260902    54A    -11.260862
      55A    -11.259874    56A    -11.259861    57A    -11.259858
      58A    -11.259829    59A    -11.259827    60A    -11.259811
      61A    -11.259245    62A    -11.259222    63A    -11.259214
      64A    -11.259167    65A    -11.259159    66A    -11.259133
      67A    -11.258877    68A    -11.258859    69A    -11.258856
      70A    -11.258829    71A    -11.258826    72A    -11.258814
      73A    -11.254499    74A    -11.254497    75A    -11.254491
      76A    -11.254490    77A    -11.254477    78A    -11.254469
      79A    -11.253622    80A    -11.253621    81A    -11.253606
      82A    -11.253603    83A    -11.253601    84A    -11.253595
      85A    -11.253537    86A    -11.253536    87A    -11.253521
      88A    -11.253517    89A    -11.253515    90A    -11.253508
      91A    -11.253026    92A    -11.253025    93A    -11.253019
      94A    -11.253018    95A    -11.253005    96A    -11.252997
      97A     -1.253849    98A     -1.238929    99A     -1.238896
     100A     -1.220398   101A     -1.220381   102A     -1.215357
     103A     -1.200977   104A     -1.195539   105A     -1.188065
     106A     -1.188042   107A     -1.173703   108A     -1.173702
     109A     -1.155546   110A     -1.155540   111A     -1.152635
     112A     -1.144665   113A     -1.144663   114A     -1.128489
     115A     -1.114632   116A     -1.113107   117A     -1.112409
     118A     -1.112376   119A     -1.111564   120A     -1.088355
     121A     -1.088333   122A     -1.076906   123A     -1.076905
     124A     -1.067541   125A     -1.067501   126A     -1.064889
     127A     -1.046732   128A     -1.046721   129A     -1.040404
     130A     -1.038683   131A     -1.038675   132A     -1.025155
     133A     -1.021298   134A     -1.021229   135A     -1.007115
     136A     -1.006730   137A     -1.003728   138A     -1.000410
     139A     -1.000351   140A     -0.991024   141A     -0.970916
     142A     -0.970860   143A     -0.955824   144A     -0.955763
     145A     -0.905498   146A     -0.905489   147A     -0.905455
     148A     -0.905454   149A     -0.904231   150A     -0.892263
     151A     -0.892212   152A     -0.890274   153A     -0.890220
     154A     -0.889368   155A     -0.872159   156A     -0.869011
     157A     -0.851471   158A     -0.847773   159A     -0.847765
     160A     -0.845508   161A     -0.842930   162A     -0.834483
     163A     -0.834479   164A     -0.828065   165A     -0.828054
     166A     -0.784479   167A     -0.784469   168A     -0.783580
     169A     -0.783564   170A     -0.782204   171A     -0.782187
     172A     -0.781946   173A     -0.766915   174A     -0.760700
     175A     -0.750487   176A     -0.733425   177A     -0.727009
     178A     -0.726964   179A     -0.724999   180A     -0.724474
     181A     -0.724436   182A     -0.718398   183A     -0.713684
     184A     -0.713677   185A     -0.699509   186A     -0.699482
     187A     -0.686033   188A     -0.685892   189A     -0.685878
     190A     -0.682100   191A     -0.682091   192A     -0.678699
     193A     -0.653554   194A     -0.650799   195A     -0.650762
     196A     -0.649717   197A     -0.649711   198A     -0.649499
     199A     -0.640848   200A     -0.640798   201A     -0.640017
     202A     -0.639096   203A     -0.635940   204A     -0.635906
     205A     -0.629059   206A     -0.617723   207A     -0.615242
     208A     -0.615212   209A     -0.608728   210A     -0.608721
     211A     -0.599167   212A     -0.599073   213A     -0.598667
     214A     -0.598509   215A     -0.598490   216A     -0.597945
     217A     -0.594999   218A     -0.594986   219A     -0.594645
     220A     -0.594128   221A     -0.591872   222A     -0.591869
     223A     -0.587290   224A     -0.577747   225A     -0.577724
     226A     -0.575685   227A     -0.575642   228A     -0.573306
     229A     -0.569553   230A     -0.568055   231A     -0.568029
     232A     -0.566670   233A     -0.566664   234A     -0.560857
     235A     -0.558642   236A     -0.558593   237A     -0.558369
     238A     -0.554287   239A     -0.550544   240A     -0.547419
     241A     -0.544228   242A     -0.534984   243A     -0.534938
     244A     -0.533464   245A     -0.533447   246A     -0.528011
     247A     -0.527989   248A     -0.527689   249A     -0.517073
     250A     -0.517050   251A     -0.515311   252A     -0.515306
     253A     -0.509571   254A     -0.509559   255A     -0.497949
     256A     -0.496381   257A     -0.496330   258A     -0.493772
     259A     -0.493707   260A     -0.489404   261A     -0.481379
     262A     -0.477370   263A     -0.477368   264A     -0.473917
     265A     -0.469344   266A     -0.466436   267A     -0.466432
     268A     -0.458768   269A     -0.446572   270A     -0.446521
     271A     -0.440975   272A     -0.440739   273A     -0.440677
     274A     -0.434639   275A     -0.433859   276A     -0.407312
     277A     -0.407302   278A     -0.386352   279A     -0.386288
     280A     -0.385685   281A     -0.385679   282A     -0.383692
     283A     -0.354264   284A     -0.354244   285A     -0.350606
     286A     -0.338019   287A     -0.335512   288A     -0.335485
     289A     -0.332667   290A     -0.332653   291A     -0.306995
     292A     -0.301866   293A     -0.301806   294A     -0.300798
     295A     -0.286109   296A     -0.256433   297A     -0.253415
     298A     -0.253378   299A     -0.204195   300A     -0.204119

  @DF-RHF Final Energy: -3650.34125404317865

   => Energetics <=

    Nuclear Repulsion Energy =          15611.4211649754306563
    One-Electron Energy =              -36072.1850899700875743
    Two-Electron Energy =               16810.4226709514805407
    Total Energy =                      -3650.3412540431781963
 Dipole X            :         -0.0006762            0.0002112           -0.0004651
 Dipole Y            :          0.0013189           -0.0013774           -0.0000585
 Dipole Z            :       -371.7097835          371.7155525            0.0057690
 Magnitude           :                                                    0.0057880

    SAPT Results
  --------------------------------------------------------------------------------------------------------
    Electrostatics                -15.03476805 [mEh]      -9.43445939 [kcal/mol]     -39.47377807 [kJ/mol]
      Elst10,r                    -15.03476805 [mEh]      -9.43445939 [kcal/mol]     -39.47377807 [kJ/mol]

    Exchange                       12.33854121 [mEh]       7.74255150 [kcal/mol]      32.39483548 [kJ/mol]
      Exch10                       12.33854121 [mEh]       7.74255150 [kcal/mol]      32.39483548 [kJ/mol]
      Exch10(S^2)                  12.29071887 [mEh]       7.71254253 [kcal/mol]      32.26927794 [kJ/mol]

    Induction                     -18.19305917 [mEh]     -11.41631699 [kcal/mol]     -47.76587027 [kJ/mol]
      Ind20,r                     -18.27548996 [mEh]     -11.46804309 [kcal/mol]     -47.98229228 [kJ/mol]
      Exch-Ind20,r                  2.83911914 [mEh]       1.78157416 [kcal/mol]       7.45410628 [kJ/mol]
      delta HF,r (2)               -2.75668835 [mEh]      -1.72984806 [kcal/mol]      -7.23768428 [kJ/mol]

    Dispersion                    -22.28589482 [mEh]     -13.98461013 [kcal/mol]     -58.51160880 [kJ/mol]
      Disp20                      -23.44943467 [mEh]     -14.71474241 [kcal/mol]     -61.56648225 [kJ/mol]
      Exch-Disp20                   1.16353985 [mEh]       0.73013228 [kcal/mol]       3.05487346 [kJ/mol]
      Disp20 (SS)                 -11.72471734 [mEh]      -7.35737121 [kcal/mol]     -30.78324113 [kJ/mol]
      Disp20 (OS)                 -11.72471734 [mEh]      -7.35737121 [kcal/mol]     -30.78324113 [kJ/mol]
      Exch-Disp20 (SS)              0.70378990 [mEh]       0.44163483 [kcal/mol]       1.84780014 [kJ/mol]
      Exch-Disp20 (OS)              0.45974995 [mEh]       0.28849745 [kcal/mol]       1.20707331 [kJ/mol]

  Total HF                        -20.88928601 [mEh]     -13.10822487 [kcal/mol]     -54.84481287 [kJ/mol]
  Total SAPT0                     -43.17518084 [mEh]     -27.09283501 [kcal/mol]    -113.35642167 [kJ/mol]

  Special recipe for scaled SAPT0 (see Manual):
    Electrostatics sSAPT0         -15.03476805 [mEh]      -9.43445939 [kcal/mol]     -39.47377807 [kJ/mol]
    Exchange sSAPT0                12.33854121 [mEh]       7.74255150 [kcal/mol]      32.39483548 [kJ/mol]
    Induction sSAPT0              -18.15978961 [mEh]     -11.39544002 [kcal/mol]     -47.67852104 [kJ/mol]
    Dispersion sSAPT0             -22.27226015 [mEh]     -13.97605425 [kcal/mol]     -58.47581096 [kJ/mol]
  Total sSAPT0                    -43.12827660 [mEh]     -27.06340215 [kcal/mol]    -113.23327460 [kJ/mol]
  --------------------------------------------------------------------------------------------------------

*** Psi4 exiting successfully. Buy a developer a beer!
