                               Psi4 1.9 release

  ==> Input File <==

--------------------------------------------------------------------------
memory 32 GB # how much memory is available ! Depends on the nodes/cores !

molecule dimer {
# monomer A
+1 1    # Charge and multiplicity
C  0.680067 1.417258  -9.415929
C -0.680504 1.419286  -9.415545
N -1.085635 1.420284  -8.097221
C  0.000108 1.423560  -7.315820
C -2.477365 1.469690  -7.629242
N  1.085222 1.420284  -8.097221
H  1.385146 1.409430 -10.233368
H -1.385302 1.419096 -10.233214
H -0.000009 1.425307  -6.234731
C  2.478117 1.403392  -7.632123
H  2.490592 1.430737  -6.541870
H  2.967028 0.489946  -7.979299
H  3.001428 2.278875  -8.023595
H -2.857359 2.491761  -7.709201
H -3.082679 0.799606  -8.242306
H -2.518128 1.142706  -6.589294
--
# monomer B
0 1     # Charge and multiplicity
C   1.22531237526482      0.70753866091955      0.00613762728373
C   1.22532433589282     -0.70753852257020     -0.00619318228664
C   -0.00000567409046      1.41496628609039     -0.00672680580738
C   2.45644923379077      1.41832825917820      0.00902448468363
C   0.00001130712078     -1.41497612663474      0.00347275151708
C   -1.22530046906674      0.70754574598412      0.00838914760619
C   2.45643823516184     -1.41832293188077     -0.00843833914343
C   -0.00000085313587      2.83680140328112     -0.00913035594137
C   3.68182717731192      0.70931832800114     -0.00808954934571
C   2.45512052870677      2.83422403348893     -0.00819210630633
C   3.68182158506039     -0.70933346742900      0.00798293467272
C   -1.22531311884624     -0.70752714354401     -0.00512042085974
C   1.22670006104402      3.54346985599427      0.00816696660346
C   0.00000526469929     -2.83678176723568      0.00832091913869
C   -2.45643555300670      1.41831729028492      0.00842454345199
C   2.45512389762097     -2.83422965658853      0.00783102630520
C   -1.22671388474763      3.54346943575023      0.00827029982280
C   4.91451777504333      1.42717324448953     -0.00160886631602
C   3.69315067131765      3.54279566454522     -0.00155906667985
C   -2.45643712022637     -1.41831290883911     -0.00846337726810
C   1.22670532178455     -3.54347386990643     -0.00780316414624
C   -2.45512491866593      2.83421703463423     -0.00818572995999
C   4.91452486062398     -1.42718653794377      0.00136387641845
C   1.22142509354026      4.97013443726031      0.00150231067809
C   4.89300870916237      2.82518837202648     -0.00039219795739
C   -1.22669652864725     -3.54347062507680     -0.00753595973677
C   -3.68181849668397      0.70932533873199     -0.00807686886569
C   3.69314758099218     -3.54280096939050      0.00148176697923
C   -1.22143177215231      4.97012866986289      0.00168580605083
C   6.13477145276790      0.68054831910577     -0.00083909176631
C   3.65678936045204      4.97295361556775     -0.00065042889723
C   -2.45512642789169     -2.83421472106065      0.00758666850712
C   -3.68181869921921     -0.70932533146830      0.00810055625144
C   4.89301309775526     -2.82519973363176      0.00021895393805
C   -0.00000059327114      5.65044773803267      0.00045449734393
C   6.13477559217374     -0.68055448207492      0.00042622874941
C   2.47813196269732      5.65357712333155      0.00063835075260
C   1.22142288457925     -4.97012668293268     -0.00129718634452
C   -3.69316190412301      3.54279732619245     -0.00139355922051
C   -1.22142804110313     -4.97011793159564     -0.00140994817719
C   -4.91452132810043      1.42717581899491     -0.00153192130862
C   3.65678749952045     -4.97295485423912      0.00080007163680
C   -2.47813805026426      5.65357479452875      0.00092287576113
C   -3.69314125872231     -3.54278984697859      0.00136564082345
C   -4.91451200321153     -1.42718062802730      0.00139857359209
C   -0.00000552908399     -5.65043791501335      0.00005899322272
C   -4.89302000425900      2.82518897091939     -0.00040227981744
C   2.47812647313991     -5.65357317188818     -0.00029052915548
C   -3.65679823041642      4.97295655404175     -0.00047374852278
C   -4.89299899901461     -2.82519139505969      0.00006491824035
C   -2.47812801824129     -5.65356579800621     -0.00056571680280
C   -6.13477002348955      0.68054913825639     -0.00086464346868
C   -3.65678835334731     -4.97294365097028      0.00058578382008
C   -6.13476456307132     -0.68055354348201      0.00040575295444
H   5.83528897565761      3.36927626695423      0.00396712770529
H   7.07385965258860      1.22821762089947     -0.00037744837300
H   4.60066374401555      5.51238117445323     -0.00014522814529
H   5.83528386714679     -3.36930568472863     -0.00423551337640
H   -0.00001167146422      6.73853104613662     -0.00389474766392
H   7.07386165167227     -1.22822657074368     -0.00008250934481
H   2.47331421164041      6.74068466339473      0.00017162982210
H   4.60066897122302     -5.51237575717576      0.00039007446835
H   -2.47331820069565      6.74068209160650      0.00047297644710
H   -0.00000978838621     -6.73852780445195      0.00458867820736
H   -5.83530143450167      3.36927132229595      0.00410314985360
H   2.47330840367253     -6.74068500242887      0.00027980126949
H   -4.60067436136587      5.51237839860371      0.00002010017831
H   -5.83527902699321     -3.36928859177951     -0.00451481925734
H   -2.47329986759855     -6.74067870613986     -0.00016951527498
H   -7.07385728692578      1.22822084484047     -0.00046143985387
H   -4.60067330624313     -5.51236229778631      0.00021776644566
H   -7.07385645456741     -1.22822025997701     -0.00017736581114

    units angstrom      # Angstroms are the default
    no_reorient         # Geometry fixed, default
    symmetry c1         # C1 symmetry, default
}

set {
    scf_type DF         # Density fitting, faster than exact integrals
    freeze_core True    # Freeze core electrons
    basis jun-cc-pVDZ   # Jun-cc-pVDZ basis set, recommended for sSAPT0 in https://doi.org/10.1063/1.4867135
}

energy('ssapt0')        # Compute sSAPT0 energy, includes also SAPT0
--------------------------------------------------------------------------

  //              Dimer HF             //
    Molecular point group: c1
  Charge       = 1
  Multiplicity = 1
  Basis Set: JUN-CC-PVDZ
    Blend: JUN-CC-PVDZ
  Basis Set: (JUN-CC-PVDZ AUX)
    Blend: JUN-CC-PVDZ-JKFIT
  @DF-RHF Final Energy: -2359.19646040190582
    Total Energy =                      -2359.1964604019049148
 Dipole X            :         -0.0012990            0.0006313           -0.0006677
 Dipole Y            :         -5.4989811            7.4856329            1.9866518
 Dipole Z            :         28.5065811          -40.8571262          -12.3505451
 Magnitude           :                                                   12.5093066
  //            Monomer A HF           //
    Molecular point group: c1
  Multiplicity = 1
  Basis Set: JUN-CC-PVDZ
    Blend: JUN-CC-PVDZ
  Basis Set: (JUN-CC-PVDZ AUX)
    Blend: JUN-CC-PVDZ-JKFIT
  @DF-RHF Final Energy:  -303.29719196115093
    Total Energy =                       -303.2971919611509293
  //            Monomer B HF           //
    Molecular point group: c1

    Geometry (in Angstrom), charge = 0, multiplicity = 1:

       Center              X                  Y                   Z               Mass
    ------------   -----------------  -----------------  -----------------  -----------------
      Gh(C)           0.680066520158     1.235968212970    -8.372941583557    12.000000000000
      Gh(C)          -0.680504479842     1.237996212970    -8.372557583557    12.000000000000
      Gh(N)          -1.085635479842     1.238994212970    -7.054233583557    14.003074004430
      Gh(C)           0.000107520158     1.242270212970    -6.272832583557    12.000000000000
      Gh(C)          -2.477365479842     1.288400212970    -6.586254583557    12.000000000000
      Gh(N)           1.085221520158     1.238994212970    -7.054233583557    14.003074004430
      Gh(H)           1.385145520158     1.228140212970    -9.190380583557     1.007825032230
      Gh(H)          -1.385302479842     1.237806212970    -9.190226583557     1.007825032230
      Gh(H)          -0.000009479842     1.244017212970    -5.191743583557     1.007825032230
      Gh(C)           2.478116520158     1.222102212970    -6.589135583557    12.000000000000
      Gh(H)           2.490591520158     1.249447212970    -5.498882583557     1.007825032230
      Gh(H)           2.967027520158     0.308656212970    -6.936311583557     1.007825032230
      Gh(H)           3.001427520158     2.097585212970    -6.980607583557     1.007825032230
      Gh(H)          -2.857359479842     2.310471212970    -6.666213583557     1.007825032230
      Gh(H)          -3.082679479842     0.618316212970    -7.199318583557     1.007825032230
      Gh(H)          -2.518128479842     0.961416212970    -5.546306583557     1.007825032230
         C            1.225311895423     0.526248873889     1.049125043726    12.000000000000
         C            1.225323856051    -0.888828309601     1.036794234156    12.000000000000
         C           -0.000006153932     1.233676499060     1.036260610635    12.000000000000
         C            2.456448753949     1.237038472148     1.052011901126    12.000000000000
         C            0.000010827279    -1.596265913665     1.046460167960    12.000000000000
         C           -1.225300948908     0.526255958954     1.051376564049    12.000000000000
         C            2.456437755320    -1.599612718911     1.034549077299    12.000000000000
         C           -0.000001332978     2.655511616251     1.033857060501    12.000000000000
         C            3.681826697470     0.528028540971     1.034897867097    12.000000000000
         C            2.455120048865     2.652934246459     1.034795310136    12.000000000000
         C            3.681821105219    -0.890623254459     1.050970351115    12.000000000000
         C           -1.225313598688    -0.888816930574     1.037866995583    12.000000000000
         C            1.226699581202     3.362180068964     1.051154383046    12.000000000000
         C            0.000004784858    -3.018071554266     1.051308335581    12.000000000000
         C           -2.456436032848     1.237027503255     1.051411959895    12.000000000000
         C            2.455123417779    -3.015519443619     1.050818442748    12.000000000000
         C           -1.226714364589     3.362179648720     1.051257716266    12.000000000000
         C            4.914517295202     1.245883457459     1.041378550127    12.000000000000
         C            3.693150191476     3.361505877515     1.041428349763    12.000000000000
         C           -2.456437600068    -1.599602695869     1.034524039175    12.000000000000
         C            1.226704841943    -3.724763656937     1.035184252297    12.000000000000
         C           -2.455125398508     2.652927247604     1.034801686483    12.000000000000
         C            4.914524380782    -1.608476324974     1.044351292861    12.000000000000
         C            1.221424613699     4.788844650230     1.044489727121    12.000000000000
         C            4.893008229321     2.643898584996     1.042595218485    12.000000000000
         C           -1.226697008489    -3.724760412107     1.035451456706    12.000000000000
         C           -3.681818976526     0.528035551702     1.034910547577    12.000000000000
         C            3.693147101150    -3.724090756421     1.044469183422    12.000000000000
         C           -1.221432251994     4.788838882833     1.044673222494    12.000000000000
         C            6.134770972926     0.499258532075     1.042148324676    12.000000000000
         C            3.656788880610     4.791663828537     1.042336987546    12.000000000000
         C           -2.455126907733    -3.015504508091     1.050574084950    12.000000000000
         C           -3.681819179061    -0.890615118499     1.051087972694    12.000000000000
         C            4.893012617914    -3.006489520662     1.043206370381    12.000000000000
         C           -0.000001073113     5.469157951002     1.043441913787    12.000000000000
         C            6.134775112332    -0.861844269105     1.043413645192    12.000000000000
         C            2.478131482856     5.472287336301     1.043625767195    12.000000000000
         C            1.221422404738    -5.151416469963     1.041690230098    12.000000000000
         C           -3.693162383965     3.361507539162     1.041593857222    12.000000000000
         C           -1.221428520945    -5.151407718626     1.041577468266    12.000000000000
         C           -4.914521807942     1.245886031965     1.041455495134    12.000000000000
         C            3.656787019679    -5.154244641269     1.043787488080    12.000000000000
         C           -2.478138530106     5.472285007498     1.043910292204    12.000000000000
         C           -3.693141738564    -3.724079634009     1.044353057266    12.000000000000
         C           -4.914512483053    -1.608470415058     1.044385990035    12.000000000000
         C           -0.000006008926    -5.831727702044     1.043046409665    12.000000000000
         C           -4.893020484101     2.643899183889     1.042585136625    12.000000000000
         C            2.478125993298    -5.834862958919     1.042696887287    12.000000000000
         C           -3.656798710258     4.791666767011     1.042513667920    12.000000000000
         C           -4.892999478856    -3.006481182090     1.043052334683    12.000000000000
         C           -2.478128498083    -5.834855585037     1.042421699640    12.000000000000
         C           -6.134770503331     0.499259351226     1.042122772974    12.000000000000
         C           -3.656788833189    -5.154233438001     1.043573200263    12.000000000000
         C           -6.134765042913    -0.861843330512     1.043393169397    12.000000000000
         H            5.835288495816     3.187986479924     1.046954544148     1.007825032230
         H            7.073859172747     1.046927833869     1.042609968070     1.007825032230
         H            4.600663264174     5.331091387423     1.042842188297     1.007825032230
         H            5.835283387305    -3.550595471759     1.038751903066     1.007825032230
         H           -0.000012151306     6.557241259106     1.039092668779     1.007825032230
         H            7.073861171831    -1.409516357774     1.042904907098     1.007825032230
         H            2.473313731799     6.559394876364     1.043159046265     1.007825032230
         H            4.600668491381    -5.693665544206     1.043377490911     1.007825032230
         H           -2.473318680537     6.559392304576     1.043460392890     1.007825032230
         H           -0.000010268228    -6.919817591482     1.047576094650     1.007825032230
         H           -5.835301914343     3.187981535266     1.047090566296     1.007825032230
         H            2.473307923831    -6.921974789459     1.043267217712     1.007825032230
         H           -4.600674841208     5.331088611573     1.043007516621     1.007825032230
         H           -5.835279506835    -3.550578378810     1.038472597185     1.007825032230
         H           -2.473300347440    -6.921968493170     1.042817901168     1.007825032230
         H           -7.073857766768     1.046931057810     1.042525976589     1.007825032230
         H           -4.600673786085    -5.693652084817     1.043205182888     1.007825032230
         H           -7.073856934409    -1.409510047007     1.042810050632     1.007825032230

  Charge       = 0
  Multiplicity = 1
  Basis Set: JUN-CC-PVDZ
    Blend: JUN-CC-PVDZ
  Basis Set: (JUN-CC-PVDZ AUX)
    Blend: JUN-CC-PVDZ-JKFIT

    Orbital Energies [Eh]
    ---------------------

    Doubly Occupied:

       1A    -11.260667     2A    -11.260224     3A    -11.260222
       4A    -11.259514     5A    -11.259512     6A    -11.259343
       7A    -11.259134     8A    -11.259057     9A    -11.259055
      10A    -11.258732    11A    -11.258728    12A    -11.258660
      13A    -11.258597    14A    -11.258592    15A    -11.258590
      16A    -11.258560    17A    -11.258555    18A    -11.258539
      19A    -11.258525    20A    -11.258520    21A    -11.258515
      22A    -11.258416    23A    -11.258412    24A    -11.258113
      25A    -11.257454    26A    -11.257393    27A    -11.257391
      28A    -11.257257    29A    -11.257256    30A    -11.257172
      31A    -11.256550    32A    -11.256479    33A    -11.256478
      34A    -11.256369    35A    -11.256368    36A    -11.256321
      37A    -11.252398    38A    -11.252395    39A    -11.252395
      40A    -11.252393    41A    -11.252391    42A    -11.252389
      43A    -11.251531    44A    -11.251528    45A    -11.251526
      46A    -11.251521    47A    -11.251520    48A    -11.251515
      49A    -11.250959    50A    -11.250957    51A    -11.250956
      52A    -11.250954    53A    -11.250952    54A    -11.250951
      55A     -1.244289    56A     -1.220010    57A     -1.220008
      58A     -1.189718    59A     -1.189711    60A     -1.181160
      61A     -1.157718    62A     -1.149150    63A     -1.135699
      64A     -1.135692    65A     -1.113351    66A     -1.113347
      67A     -1.082623    68A     -1.082615    69A     -1.078806
      70A     -1.066135    71A     -1.066131    72A     -1.039573
      73A     -1.024483    74A     -1.021987    75A     -1.021943
      76A     -1.017883    77A     -1.012945    78A     -0.987215
      79A     -0.987169    80A     -0.962045    81A     -0.961995
      82A     -0.894463    83A     -0.894436    84A     -0.888158
      85A     -0.886405    86A     -0.886348    87A     -0.881594
      88A     -0.881547    89A     -0.862069    90A     -0.837548
      91A     -0.818385    92A     -0.816826    93A     -0.812333
      94A     -0.812324    95A     -0.794850    96A     -0.794840
      97A     -0.746832    98A     -0.745059    99A     -0.733626
     100A     -0.733618   101A     -0.732348   102A     -0.732325
     103A     -0.716694   104A     -0.699145   105A     -0.699134
     106A     -0.693771   107A     -0.693754   108A     -0.661395
     109A     -0.653327   110A     -0.651373   111A     -0.650413
     112A     -0.650407   113A     -0.639525   114A     -0.639522
     115A     -0.629908   116A     -0.627719   117A     -0.627703
     118A     -0.606458   119A     -0.605931   120A     -0.601860
     121A     -0.599914   122A     -0.599882   123A     -0.593817
     124A     -0.591447   125A     -0.591436   126A     -0.585416
     127A     -0.576419   128A     -0.576416   129A     -0.567474
     130A     -0.567460   131A     -0.566159   132A     -0.566140
     133A     -0.558935   134A     -0.555018   135A     -0.555012
     136A     -0.538755   137A     -0.538753   138A     -0.538287
     139A     -0.538281   140A     -0.529891   141A     -0.528206
     142A     -0.523046   143A     -0.523039   144A     -0.500664
     145A     -0.495716   146A     -0.493402   147A     -0.487945
     148A     -0.485260   149A     -0.481942   150A     -0.481934
     151A     -0.470435   152A     -0.470419   153A     -0.451245
     154A     -0.451167   155A     -0.439186   156A     -0.439177
     157A     -0.404866   158A     -0.404843   159A     -0.403487
     160A     -0.375540   161A     -0.375537   162A     -0.349244
     163A     -0.337712   164A     -0.336678   165A     -0.336622
     166A     -0.311221   167A     -0.298208   168A     -0.284476
     169A     -0.284423   170A     -0.225045   171A     -0.224979

  @DF-RHF Final Energy: -2055.89170393681479

   => Energetics <=

    Nuclear Repulsion Energy =           6452.5568002797781446
    One-Electron Energy =              -15636.4280581149178033
    Two-Electron Energy =                7127.9795538983253209
    Total Energy =                      -2055.8917039368152473
 Dipole X            :          0.0001087           -0.0000085            0.0001002
 Dipole Y            :        117.1652070         -117.1648546            0.0003524
 Dipole Z            :       -674.0651957          674.0670718            0.0018760
 Magnitude           :                                                    0.0019115

    SAPT Results
  --------------------------------------------------------------------------------------------------------
    Electrostatics                 -5.96494771 [mEh]      -3.74306120 [kcal/mol]     -15.66096807 [kJ/mol]
      Elst10,r                     -5.96494771 [mEh]      -3.74306120 [kcal/mol]     -15.66096807 [kJ/mol]

    Exchange                       -0.00017795 [mEh]      -0.00011167 [kcal/mol]      -0.00046721 [kJ/mol]
      Exch10                       -0.00017795 [mEh]      -0.00011167 [kcal/mol]      -0.00046721 [kJ/mol]
      Exch10(S^2)                  -0.00017795 [mEh]      -0.00011167 [kcal/mol]      -0.00046721 [kJ/mol]

    Induction                      -1.59937827 [mEh]      -1.00362502 [kcal/mol]      -4.19916708 [kJ/mol]
      Ind20,r                      -1.57753545 [mEh]      -0.98991844 [kcal/mol]      -4.14181875 [kJ/mol]
      Exch-Ind20,r                  0.00006589 [mEh]       0.00004135 [kcal/mol]       0.00017300 [kJ/mol]
      delta HF,r (2)               -0.02190872 [mEh]      -0.01374793 [kcal/mol]      -0.05752132 [kJ/mol]

    Dispersion                     -0.66907108 [mEh]      -0.41984844 [kcal/mol]      -1.75664588 [kJ/mol]
      Disp20                       -0.66910480 [mEh]      -0.41986960 [kcal/mol]      -1.75673440 [kJ/mol]
      Exch-Disp20                   0.00003372 [mEh]       0.00002116 [kcal/mol]       0.00008852 [kJ/mol]
      Disp20 (SS)                  -0.33455240 [mEh]      -0.20993480 [kcal/mol]      -0.87836720 [kJ/mol]
      Disp20 (OS)                  -0.33455240 [mEh]      -0.20993480 [kcal/mol]      -0.87836720 [kJ/mol]
      Exch-Disp20 (SS)              0.00002484 [mEh]       0.00001559 [kcal/mol]       0.00006522 [kJ/mol]
      Exch-Disp20 (OS)              0.00000888 [mEh]       0.00000557 [kcal/mol]       0.00002330 [kJ/mol]

  Total HF                         -7.56450394 [mEh]      -4.74679789 [kcal/mol]     -19.86060236 [kJ/mol]
  Total SAPT0                      -8.23357502 [mEh]      -5.16664633 [kcal/mol]     -21.61724824 [kJ/mol]

  Special recipe for scaled SAPT0 (see Manual):
    Electrostatics sSAPT0          -5.96494771 [mEh]      -3.74306120 [kcal/mol]     -15.66096807 [kJ/mol]
    Exchange sSAPT0                -0.00017795 [mEh]      -0.00011167 [kcal/mol]      -0.00046721 [kJ/mol]
    Induction sSAPT0               -1.59937827 [mEh]      -1.00362502 [kcal/mol]      -4.19916708 [kJ/mol]
    Dispersion sSAPT0              -0.66907108 [mEh]      -0.41984844 [kcal/mol]      -1.75664588 [kJ/mol]
  Total sSAPT0                     -8.23357502 [mEh]      -5.16664633 [kcal/mol]     -21.61724824 [kJ/mol]
  --------------------------------------------------------------------------------------------------------

*** Psi4 exiting successfully. Buy a developer a beer!
