                               Psi4 1.9 release

  ==> Input File <==

--------------------------------------------------------------------------
memory 80 GB # how much memory is available ! Depends on the nodes/cores !

molecule dimer {
# monomer A
+1 1    # Charge and multiplicity
C  0.680067 1.417258 -5.115929
C -0.680504 1.419286 -5.115545
N -1.085635 1.420284 -3.797221
C  0.000108 1.423560 -3.015820
C -2.477365 1.469690 -3.329242
N  1.085222 1.420284 -3.797221
H  1.385146 1.409430 -5.933368
H -1.385302 1.419096 -5.933214
H -0.000009 1.425307 -1.934731
C  2.478117 1.403392 -3.332123
H  2.490592 1.430737 -2.241870
H  2.967028 0.489946 -3.679299
H  3.001428 2.278875 -3.723595
H -2.857359 2.491761 -3.409201
H -3.082679 0.799606 -3.942306
H -2.518128 1.142706 -2.289294
--
# monomer B
0 1     # Charge and multiplicity
C   -3.66844126402057      7.80375217008252      0.00190004133558
C   -4.84759871934653      7.13124183134024     -0.00046653359696
C   -4.89495929917518      5.69633040353158     -0.00103944469517
C   -3.65374067877320      4.98073034095895      0.00662099703436
C   -2.40942512149445      7.11398103667468      0.00209438359570
C   -2.42547734410473      5.68112195090346     -0.00491050527438
C   -1.19474401643570      7.78614419430947      0.00356656413763
C   0.03795902893699      7.09942164575698      0.00139585983271
C   0.03033258741920      5.66948955970466     -0.00408752508301
C   -1.20098450790502      4.96927034791531      0.00488220885047
C   1.27795782581485      7.77285944319479      0.00277170839332
C   2.48535808472416      7.08769688523756      0.00049722048857
C   2.48612868491717      5.65477081024076     -0.00644052849921
C   1.25408291964399      4.95607811366431      0.00518741308898
C   3.75171459140595      7.76391215098033      0.00062407186893
C   4.92356605618520      7.07878077698995     -0.00143240883900
C   4.95560727132542      5.64344746336949     -0.00159282164606
C   3.70680153420475      4.94121020833308      0.00349873852374
H   -3.65852113775815      8.89082741913536      0.00358502958574
H   -1.18921332975660      8.87412108735996      0.00753844057883
H   1.28429423888630      8.86083343548850      0.00693053253426
H   3.75354208679975      8.85103527897216      0.00214659618464
H   5.86995870320703      7.61379483465560     -0.00235777588134
H   -5.78823170750226      7.67630221293400     -0.00202638095293
C   -6.09197395869619      4.99326001364347     -0.00291168518608
C   -6.12866148031747      3.58258016879823     -0.00171050815740
C   -3.66457974004527      3.56418217974434     -0.00463560277484
C   -4.89429820469869      2.86108077590057      0.00453338221034
C   -2.43733499489796      2.84761165708481      0.00719617576166
C   -1.20922785759670      3.54788693497833     -0.00648285103018
C   1.24714157216223      3.53468075142962     -0.00729145743546
C   0.01517603956900      2.83311183930540      0.00439272578912
C   2.46764517244071      2.82128997725533      0.00449278391269
C   3.70254947457969      3.52466015442405     -0.00899517692985
C   6.14498038638375      4.92757236613191     -0.00282626685777
C   6.16658835886151      3.51658447594213     -0.00065971342101
C   4.92460995845939      2.80840792535402      0.00587903281610
H   7.08990550964105      5.46688776622306     -0.00658814770723
H   -7.03104175110130      5.54268795285765     -0.00714490013730
C   -7.33969804112295      2.85841153457957     -0.00333767559888
C   -7.36488195805880      1.47032337158330     -0.00157213747140
C   -4.90350460894690      1.44442681216000     -0.00628840166334
C   -6.13225715261081      0.73993935705394      0.00600164231964
C   -3.67687480051673      0.72669714267312      0.00433931473643
C   -2.44565658606518      1.42964113326212     -0.00597039546461
C   -1.22360068130162      0.71532450163492      0.00545886906656
C   0.00763786931376      1.41738314923765      0.00392452278437
C   1.23121980774686      0.70211669058719     -0.01490206287210
C   2.46082110053113      1.40329203612573      0.00460244601878
C   3.68443025419614      0.68719842821222      0.00377365974158
C   4.91870890153864      1.39173456118907     -0.00862816189375
C   7.36980207796101      2.77948220318441     -0.00242013321349
C   7.38016266612146      1.39121750785509     -0.00087345036788
C   6.13979953912259      0.67411862320065      0.00545489144369
H   -8.27919079934664      3.40711804112415     -0.00763522772059
H   8.31511347147953      3.31811809662368     -0.00663070901292
C   -8.59175593758115      0.72483255304480     -0.00123170985383
C   -8.59902460370342     -0.63263980622873      0.00089141472904
C   -6.13981313911873     -0.67413663715361     -0.00609792660607
C   -7.38018411213749     -1.39126618958160      0.00131813493501
C   -4.91868448025621     -1.39175501803000      0.00624257154343
C   -3.68443829568458     -0.68723731573599     -0.00478966852105
C   -2.46081704024768     -1.40334517882457      0.00575341766833
C   -1.23116201232071     -0.70217386488055     -0.00636696112346
C   -0.00756962538737     -1.41741884941102      0.00108956317991
C   1.22364771588843     -0.71527537726392      0.01109518512883
C   2.44567064933149     -1.42964328900682     -0.00065482763106
C   3.67686670284649     -0.72670743155550     -0.00479541202602
C   6.13224884641929     -0.73997883984993     -0.00632338623858
C   4.90351914550401     -1.44445752054090      0.00751768830159
C   8.59901484869081      0.63260386666793     -0.00101133422380
C   8.59174548810050     -0.72485086719319      0.00072504603735
C   7.36486276438985     -1.47033266560598      0.00049486934466
H   -9.52830597181814      1.27684744919284     -0.00270163681798
H   9.54141097460619      1.17457248844457     -0.00206336648518
C   -7.36983790976868     -2.77954514593389      0.00312634335708
C   -4.92459910905015     -2.80843725734101     -0.00460528907921
C   -6.16662249566744     -3.51665219282533      0.00169655107992
C   -3.70251035970491     -3.52468154912026      0.00571878010666
C   -2.46764698511392     -2.82132596280400     -0.00632585824990
C   -0.01513347410770     -2.83314164539971     -0.00604426974092
C   -1.24712184122656     -3.53473217556300      0.00551968366725
C   1.20924506964357     -3.54791467864352      0.00805871345849
C   2.43733602215464     -2.84764173817541     -0.00608104485234
C   4.89430234377080     -2.86112296828604     -0.00526030478103
C   3.66461525504104     -3.56421984553201      0.00761911515957
C   6.12863901474565     -3.58258405771778      0.00096495711699
C   7.33967266469532     -2.85841330737039      0.00248018319869
H   -9.54144911125902     -1.17456346666430      0.00226083090216
H   9.52826186807155     -1.27691907390448      0.00197485379837
H   -8.31516504384864     -3.31814985321231      0.00729857188773
H   8.27915514249207     -3.40714078989363      0.00681973918158
C   -6.14499418870218     -4.92764727278338      0.00302254913999
C   -3.70678334799751     -4.94126171411716     -0.00679841894792
C   -4.95559005800169     -5.64349397349412      0.00116871569699
C   -2.48612132622665     -5.65478557440947      0.00614125209662
C   -1.25405833548005     -4.95612205000132     -0.00503435388927
C   1.20101257386816     -4.96928038819302     -0.00385322963129
C   -0.03033667441341     -5.66952030313900      0.00398997003238
C   3.65375010132847     -4.98074377541453     -0.00309522988330
C   2.42549269587528     -5.68117463552727      0.00628170066869
C   6.09196561781097     -4.99325796338655      0.00325918379042
C   4.89497644461045     -5.69634842095790      0.00202298796027
H   -7.08989238804069     -5.46699984223871      0.00742531082125
H   7.03105520920009     -5.54265853633254      0.00683896355417
C   -4.92354532219813     -7.07882109967734      0.00061394679214
C   -2.48534208823777     -7.08772807792913     -0.00189594564379
C   -3.75168589177895     -7.76394715763627     -0.00170126671874
C   -0.03794895698805     -7.09946487446944     -0.00168022049625
C   -1.27795610040136     -7.77290438466689     -0.00366491325785
C   2.40944432072629     -7.11402201200282     -0.00081701968533
C   1.19474993715296     -7.78618536556242     -0.00296931056689
C   4.84762105249800     -7.13126211057943      0.00168979497423
C   3.66847160587561     -7.80378799294376     -0.00065863938960
H   -5.86994035041618     -7.61383059804164      0.00215798365757
H   5.78824962538815     -7.67633218931421      0.00281691445618
H   -3.75352693944918     -8.85107156923607     -0.00353718114765
H   -1.28430440589466     -8.86087539249706     -0.00809229711623
H   1.18922157469537     -8.87416062058945     -0.00706194725726
H   3.65854661482387     -8.89086063405326     -0.00231318081200

    units angstrom      # Angstroms are the default
    no_reorient         # Geometry fixed, default
    symmetry c1         # C1 symmetry, default
}

set {
    scf_type DF         # Density fitting, faster than exact integrals
    freeze_core True    # Freeze core electrons
    basis jun-cc-pVDZ   # Jun-cc-pVDZ basis set, recommended for sSAPT0 in https://doi.org/10.1063/1.4867135
}

energy('ssapt0')        # Compute sSAPT0 energy, includes also SAPT0
--------------------------------------------------------------------------

  //              Dimer HF             //
    Molecular point group: c1
  Charge       = 1
  Multiplicity = 1
  Basis Set: JUN-CC-PVDZ
    Blend: JUN-CC-PVDZ
  Basis Set: (JUN-CC-PVDZ AUX)
    Blend: JUN-CC-PVDZ-JKFIT
  @DF-RHF Final Energy: -3953.64132447370775
    Total Energy =                      -3953.6413244737086643
 Dipole X            :         -0.0084849            0.0004804           -0.0080045
 Dipole Y            :         -7.4067344            8.7122315            1.3054972
 Dipole Z            :         17.4782197          -21.7993151           -4.3210954
 Magnitude           :                                                    4.5140062
  //            Monomer A HF           //
    Molecular point group: c1
  Multiplicity = 1
  Basis Set: JUN-CC-PVDZ
    Blend: JUN-CC-PVDZ
  Basis Set: (JUN-CC-PVDZ AUX)
    Blend: JUN-CC-PVDZ-JKFIT
  @DF-RHF Final Energy:  -303.29876509725131
    Total Energy =                       -303.2987650972513052
  //            Monomer B HF           //
    Molecular point group: c1

    Geometry (in Angstrom), charge = 0, multiplicity = 1:

       Center              X                  Y                   Z               Mass
    ------------   -----------------  -----------------  -----------------  -----------------
      Gh(C)           0.680062820275     1.308604348936    -4.818589903006    12.000000000000
      Gh(C)          -0.680508179725     1.310632348936    -4.818205903006    12.000000000000
      Gh(N)          -1.085639179725     1.311630348936    -3.499881903006    14.003074004430
      Gh(C)           0.000103820275     1.314906348936    -2.718480903006    12.000000000000
      Gh(C)          -2.477369179725     1.361036348936    -3.031902903006    12.000000000000
      Gh(N)           1.085217820275     1.311630348936    -3.499881903006    14.003074004430
      Gh(H)           1.385141820275     1.300776348936    -5.636028903006     1.007825032230
      Gh(H)          -1.385306179725     1.310442348936    -5.635874903006     1.007825032230
      Gh(H)          -0.000013179725     1.316653348936    -1.637391903006     1.007825032230
      Gh(C)           2.478112820275     1.294738348936    -3.034783903006    12.000000000000
      Gh(H)           2.490587820275     1.322083348936    -1.944530903006     1.007825032230
      Gh(H)           2.967023820275     0.381292348936    -3.381959903006     1.007825032230
      Gh(H)           3.001423820275     2.170221348936    -3.426255903006     1.007825032230
      Gh(H)          -2.857363179725     2.383107348936    -3.111861903006     1.007825032230
      Gh(H)          -3.082683179725     0.690952348936    -3.644966903006     1.007825032230
      Gh(H)          -2.518132179725     1.034052348936    -1.991954903006     1.007825032230
         C           -3.668445443746     7.695098519018     0.299239138329    12.000000000000
         C           -4.847602899072     7.022588180276     0.296872563397    12.000000000000
         C           -4.894963478901     5.587676752467     0.296299652299    12.000000000000
         C           -3.653744858499     4.872076689895     0.303960094028    12.000000000000
         C           -2.409429301220     7.005327385610     0.299433480590    12.000000000000
         C           -2.425481523830     5.572468299839     0.292428591720    12.000000000000
         C           -1.194748196161     7.677490543245     0.300905661132    12.000000000000
         C            0.037954849212     6.990767994693     0.298734956827    12.000000000000
         C            0.030328407694     5.560835908640     0.293251571911    12.000000000000
         C           -1.200988687630     4.860616696851     0.302221305844    12.000000000000
         C            1.277953646089     7.664205792130     0.300110805387    12.000000000000
         C            2.485353904999     6.979043234173     0.297836317482    12.000000000000
         C            2.486124505192     5.546117159176     0.290898568495    12.000000000000
         C            1.254078739919     4.847424462600     0.302526510083    12.000000000000
         C            3.751710411681     7.655258499916     0.297963168863    12.000000000000
         C            4.923561876460     6.970127125926     0.295906688155    12.000000000000
         C            4.955603091600     5.534793812305     0.295746275348    12.000000000000
         C            3.706797354479     4.832556557269     0.300837835518    12.000000000000
         H           -3.658525317484     8.782173768071     0.300924126580     1.007825032230
         H           -1.189217509482     8.765467436296     0.304877537573     1.007825032230
         H            1.284290059161     8.752179784424     0.304269629528     1.007825032230
         H            3.753537907074     8.742381627908     0.299485693179     1.007825032230
         H            5.869954523482     7.505141183591     0.294981321113     1.007825032230
         H           -5.788235887228     7.567648561870     0.295312716041     1.007825032230
         C           -6.091978138422     4.884606362579     0.294427411808    12.000000000000
         C           -6.128665660043     3.473926517734     0.295628588836    12.000000000000
         C           -3.664583919771     3.455528528680     0.292703494219    12.000000000000
         C           -4.894302384424     2.752427124836     0.301872479204    12.000000000000
         C           -2.437339174623     2.738958006020     0.304535272756    12.000000000000
         C           -1.209232037322     3.439233283914     0.290856245964    12.000000000000
         C            1.247137392437     3.426027100365     0.290047639558    12.000000000000
         C            0.015171859844     2.724458188241     0.301731822783    12.000000000000
         C            2.467640992715     2.712636326191     0.301831880907    12.000000000000
         C            3.702545294854     3.416006503360     0.288343920064    12.000000000000
         C            6.144976206658     4.818918715067     0.294512830136    12.000000000000
         C            6.166584179136     3.407930824878     0.296679383573    12.000000000000
         C            4.924605778734     2.699754274290     0.303218129810    12.000000000000
         H            7.089901329916     5.358234115159     0.290750949287     1.007825032230
         H           -7.031045930827     5.434034301793     0.290194196857     1.007825032230
         C           -7.339702220848     2.749757883515     0.294001421395    12.000000000000
         C           -7.364886137784     1.361669720519     0.295766959522    12.000000000000
         C           -4.903508788672     1.335773161096     0.291050695331    12.000000000000
         C           -6.132261332336     0.631285705989     0.303340739314    12.000000000000
         C           -3.676878980242     0.618043491609     0.301678411730    12.000000000000
         C           -2.445660765791     1.320987482198     0.291368701529    12.000000000000
         C           -1.223604861027     0.606670850570     0.302797966060    12.000000000000
         C            0.007633689588     1.308729498173     0.301263619778    12.000000000000
         C            1.231215628021     0.593463039523     0.282437034122    12.000000000000
         C            2.460816920806     1.294638385061     0.301941543013    12.000000000000
         C            3.684426074471     0.578544777148     0.301112756735    12.000000000000
         C            4.918704721813     1.283080910125     0.288710935100    12.000000000000
         C            7.369797898236     2.670828552120     0.294918963780    12.000000000000
         C            7.380158486396     1.282563856791     0.296465646626    12.000000000000
         C            6.139795359397     0.565464972136     0.302793988438    12.000000000000
         H           -8.279194979072     3.298464390060     0.289703869273     1.007825032230
         H            8.315109291754     3.209464445559     0.290708387981     1.007825032230
         C           -8.591760117307     0.616178901980     0.296107387140    12.000000000000
         C           -8.599028783429    -0.741293457293     0.298230511723    12.000000000000
         C           -6.139817318844    -0.782790288218     0.291241170388    12.000000000000
         C           -7.380188291863    -1.499919840646     0.298657231929    12.000000000000
         C           -4.918688659982    -1.500408669094     0.303581668537    12.000000000000
         C           -3.684442475410    -0.795890966800     0.292549428473    12.000000000000
         C           -2.460821219973    -1.511998829889     0.303092514662    12.000000000000
         C           -1.231166192046    -0.810827515945     0.290972135870    12.000000000000
         C           -0.007573805113    -1.526072500475     0.298428660174    12.000000000000
         C            1.223643536163    -0.823929028328     0.308434282123    12.000000000000
         C            2.445666469606    -1.538296940071     0.296684269363    12.000000000000
         C            3.676862523121    -0.835361082620     0.292543684968    12.000000000000
         C            6.132244666694    -0.848632490914     0.291015710755    12.000000000000
         C            4.903514965779    -1.553111171605     0.304856785295    12.000000000000
         C            8.599010668965     0.523950215603     0.296327762770    12.000000000000
         C            8.591741308375    -0.833504518258     0.298064143031    12.000000000000
         C            7.364858584664    -1.578986316670     0.297833966339    12.000000000000
         H           -9.528310151544     1.168193798128     0.294637460176     1.007825032230
         H            9.541406794881     1.065918837380     0.295275730509     1.007825032230
         C           -7.369842089494    -2.888198796998     0.300465440351    12.000000000000
         C           -4.924603288776    -2.917090908405     0.292733807915    12.000000000000
         C           -6.166626675393    -3.625305843890     0.299035648074    12.000000000000
         C           -3.702514539430    -3.633335200185     0.303057877101    12.000000000000
         C           -2.467651164839    -2.929979613868     0.291013238744    12.000000000000
         C           -0.015137653833    -2.941795296464     0.291294827253    12.000000000000
         C           -1.247126020952    -3.643385826627     0.302858780661    12.000000000000
         C            1.209240889918    -3.656568329708     0.305397810452    12.000000000000
         C            2.437331842429    -2.956295389240     0.291258052142    12.000000000000
         C            4.894298164045    -2.969776619350     0.292078792213    12.000000000000
         C            3.664611075316    -3.672873496596     0.304958212153    12.000000000000
         C            6.128634835020    -3.691237708782     0.298304054111    12.000000000000
         C            7.339668484970    -2.967066958435     0.299819280193    12.000000000000
         H           -9.541453290984    -1.283217117729     0.299599927896     1.007825032230
         H            9.528257688346    -1.385572724969     0.299313950792     1.007825032230
         H           -8.315169223574    -3.426803504277     0.304637668882     1.007825032230
         H            8.279150962767    -3.515794440958     0.304158836175     1.007825032230
         C           -6.144998368428    -5.036300923848     0.300361646134    12.000000000000
         C           -3.706787527723    -5.049915365182     0.290540678046    12.000000000000
         C           -4.955594237727    -5.752147624559     0.298507812691    12.000000000000
         C           -2.486125505952    -5.763439225474     0.303480349091    12.000000000000
         C           -1.254062515205    -5.064775701066     0.292304743105    12.000000000000
         C            1.201008394143    -5.077934039257     0.293485867363    12.000000000000
         C           -0.030340854139    -5.778173954203     0.301329067026    12.000000000000
         C            3.653745921603    -5.089397426479     0.294243867111    12.000000000000
         C            2.425488516150    -5.789828286592     0.303620797663    12.000000000000
         C            6.091961438086    -5.101911614451     0.300598280784    12.000000000000
         C            4.894972264885    -5.805002072022     0.299362084954    12.000000000000
         H           -7.089896567766    -5.575653493303     0.304764407815     1.007825032230
         H            7.031051029475    -5.651312187397     0.304178060548     1.007825032230
         C           -4.923549501924    -7.187474750742     0.297953043786    12.000000000000
         C           -2.485346267963    -7.196381728994     0.295443151350    12.000000000000
         C           -3.751690071504    -7.872600808701     0.295637830275    12.000000000000
         C           -0.037953136713    -7.208118525534     0.295658876498    12.000000000000
         C           -1.277960280127    -7.881558035731     0.293674183736    12.000000000000
         C            2.409440141001    -7.222675663067     0.296522077309    12.000000000000
         C            1.194745757428    -7.894839016627     0.294369786427    12.000000000000
         C            4.847616872773    -7.239915761644     0.299028891968    12.000000000000
         C            3.668467426150    -7.912441644008     0.296680457604    12.000000000000
         H           -5.869944530142    -7.722484249106     0.299497080651     1.007825032230
         H            5.788245445663    -7.784985840379     0.300156011450     1.007825032230
         H           -3.753531119175    -8.959725220301     0.293801915846     1.007825032230
         H           -1.284308585620    -8.969529043562     0.289246799878     1.007825032230
         H            1.189217394970    -8.982814271654     0.290277149737     1.007825032230
         H            3.658542435098    -8.999514285118     0.295025916182     1.007825032230

  Charge       = 0
  Multiplicity = 1
  Basis Set: JUN-CC-PVDZ
    Blend: JUN-CC-PVDZ
  Basis Set: (JUN-CC-PVDZ AUX)
    Blend: JUN-CC-PVDZ-JKFIT

    Orbital Energies [Eh]
    ---------------------

    Doubly Occupied:

       1A    -11.264068     2A    -11.263685     3A    -11.263639
       4A    -11.263358     5A    -11.263277     6A    -11.263236
       7A    -11.263079     8A    -11.263068     9A    -11.263045
      10A    -11.262865    11A    -11.262735    12A    -11.262703
      13A    -11.262258    14A    -11.262231    15A    -11.262183
      16A    -11.262161    17A    -11.262079    18A    -11.262074
      19A    -11.262030    20A    -11.261990    21A    -11.261964
      22A    -11.261871    23A    -11.261833    24A    -11.261695
      25A    -11.261688    26A    -11.261665    27A    -11.261658
      28A    -11.261611    29A    -11.261608    30A    -11.261527
      31A    -11.261513    32A    -11.261495    33A    -11.261476
      34A    -11.261465    35A    -11.261455    36A    -11.261444
      37A    -11.261279    38A    -11.261271    39A    -11.261254
      40A    -11.261248    41A    -11.261228    42A    -11.261224
      43A    -11.261217    44A    -11.261210    45A    -11.261202
      46A    -11.261191    47A    -11.261172    48A    -11.261157
      49A    -11.261016    50A    -11.260994    51A    -11.260986
      52A    -11.260923    53A    -11.260915    54A    -11.260831
      55A    -11.259863    56A    -11.259839    57A    -11.259822
      58A    -11.259809    59A    -11.259787    60A    -11.259756
      61A    -11.259234    62A    -11.259204    63A    -11.259198
      64A    -11.259150    65A    -11.259142    66A    -11.259108
      67A    -11.258863    68A    -11.258840    69A    -11.258820
      70A    -11.258809    71A    -11.258787    72A    -11.258758
      73A    -11.254485    74A    -11.254481    75A    -11.254455
      76A    -11.254450    77A    -11.254448    78A    -11.254443
      79A    -11.253613    80A    -11.253590    81A    -11.253588
      82A    -11.253562    83A    -11.253557    84A    -11.253545
      85A    -11.253529    86A    -11.253502    87A    -11.253501
      88A    -11.253477    89A    -11.253472    90A    -11.253460
      91A    -11.253013    92A    -11.253009    93A    -11.252983
      94A    -11.252978    95A    -11.252975    96A    -11.252970
      97A     -1.253803    98A     -1.238877    99A     -1.238857
     100A     -1.220348   101A     -1.220342   102A     -1.215309
     103A     -1.200937   104A     -1.195493   105A     -1.188021
     106A     -1.188004   107A     -1.173662   108A     -1.173660
     109A     -1.155503   110A     -1.155496   111A     -1.152586
     112A     -1.144624   113A     -1.144620   114A     -1.128447
     115A     -1.114588   116A     -1.113064   117A     -1.112361
     118A     -1.112336   119A     -1.111524   120A     -1.088312
     121A     -1.088295   122A     -1.076866   123A     -1.076864
     124A     -1.067495   125A     -1.067456   126A     -1.064841
     127A     -1.046687   128A     -1.046679   129A     -1.040363
     130A     -1.038642   131A     -1.038636   132A     -1.025110
     133A     -1.021243   134A     -1.021186   135A     -1.007070
     136A     -1.006684   137A     -1.003685   138A     -1.000366
     139A     -1.000312   140A     -0.990985   141A     -0.970868
     142A     -0.970816   143A     -0.955782   144A     -0.955724
     145A     -0.905462   146A     -0.905443   147A     -0.905413
     148A     -0.905407   149A     -0.904181   150A     -0.892219
     151A     -0.892161   152A     -0.890223   153A     -0.890173
     154A     -0.889319   155A     -0.872119   156A     -0.868975
     157A     -0.851429   158A     -0.847729   159A     -0.847713
     160A     -0.845461   161A     -0.842885   162A     -0.834445
     163A     -0.834429   164A     -0.828024   165A     -0.828017
     166A     -0.784439   167A     -0.784430   168A     -0.783532
     169A     -0.783523   170A     -0.782168   171A     -0.782143
     172A     -0.781892   173A     -0.766865   174A     -0.760651
     175A     -0.750442   176A     -0.733385   177A     -0.726957
     178A     -0.726925   179A     -0.724954   180A     -0.724423
     181A     -0.724392   182A     -0.718354   183A     -0.713636
     184A     -0.713631   185A     -0.699465   186A     -0.699445
     187A     -0.685987   188A     -0.685846   189A     -0.685839
     190A     -0.682053   191A     -0.682046   192A     -0.678659
     193A     -0.653514   194A     -0.650755   195A     -0.650723
     196A     -0.649671   197A     -0.649668   198A     -0.649456
     199A     -0.640800   200A     -0.640757   201A     -0.639969
     202A     -0.639052   203A     -0.635897   204A     -0.635863
     205A     -0.629015   206A     -0.617726   207A     -0.615198
     208A     -0.615174   209A     -0.608682   210A     -0.608675
     211A     -0.599145   212A     -0.599076   213A     -0.598620
     214A     -0.598463   215A     -0.598448   216A     -0.597901
     217A     -0.594957   218A     -0.594941   219A     -0.594603
     220A     -0.594078   221A     -0.591829   222A     -0.591826
     223A     -0.587246   224A     -0.577705   225A     -0.577688
     226A     -0.575666   227A     -0.575648   228A     -0.573260
     229A     -0.569542   230A     -0.568008   231A     -0.567982
     232A     -0.566627   233A     -0.566620   234A     -0.560820
     235A     -0.558594   236A     -0.558556   237A     -0.558329
     238A     -0.554243   239A     -0.550522   240A     -0.547381
     241A     -0.544223   242A     -0.534956   243A     -0.534952
     244A     -0.533419   245A     -0.533404   246A     -0.527966
     247A     -0.527948   248A     -0.527647   249A     -0.517036
     250A     -0.517008   251A     -0.515298   252A     -0.515287
     253A     -0.509529   254A     -0.509516   255A     -0.497900
     256A     -0.496331   257A     -0.496291   258A     -0.493733
     259A     -0.493713   260A     -0.489372   261A     -0.481337
     262A     -0.477348   263A     -0.477345   264A     -0.473874
     265A     -0.469295   266A     -0.466388   267A     -0.466387
     268A     -0.458735   269A     -0.446525   270A     -0.446471
     271A     -0.440955   272A     -0.440698   273A     -0.440670
     274A     -0.434614   275A     -0.433829   276A     -0.407318
     277A     -0.407268   278A     -0.386321   279A     -0.386276
     280A     -0.385653   281A     -0.385652   282A     -0.383670
     283A     -0.354237   284A     -0.354224   285A     -0.350574
     286A     -0.337995   287A     -0.335481   288A     -0.335425
     289A     -0.332631   290A     -0.332628   291A     -0.306978
     292A     -0.301847   293A     -0.301782   294A     -0.300757
     295A     -0.286072   296A     -0.256400   297A     -0.253382
     298A     -0.253340   299A     -0.204163   300A     -0.204075

  @DF-RHF Final Energy: -3650.34213145582180

   => Energetics <=

    Nuclear Repulsion Energy =          15611.4211649754306563
    One-Electron Energy =              -36072.2069394643986016
    Two-Electron Energy =               16810.4436430331479642
    Total Energy =                      -3650.3421314558218000
 Dipole X            :         -0.0002935            0.0002112           -0.0000823
 Dipole Y            :        123.2195231         -123.2131634            0.0063597
 Dipole Z            :       -337.1330615          337.1370677            0.0040062
 Magnitude           :                                                    0.0075168

    SAPT Results
  --------------------------------------------------------------------------------------------------------
    Electrostatics                -27.98634202 [mEh]     -17.56169475 [kcal/mol]     -73.47813085 [kJ/mol]
      Elst10,r                    -27.98634202 [mEh]     -17.56169475 [kcal/mol]     -73.47813085 [kJ/mol]

    Exchange                       59.43630462 [mEh]      37.29684424 [kcal/mol]     156.04999629 [kJ/mol]
      Exch10                       59.43630462 [mEh]      37.29684424 [kcal/mol]     156.04999629 [kJ/mol]
      Exch10(S^2)                  58.48998297 [mEh]      36.70301843 [kcal/mol]     153.56542912 [kJ/mol]

    Induction                     -31.87788324 [mEh]     -20.00367374 [kcal/mol]     -83.69537091 [kJ/mol]
      Ind20,r                     -39.68899477 [mEh]     -24.90522022 [kcal/mol]    -104.20344140 [kJ/mol]
      Exch-Ind20,r                 17.33073001 [mEh]      10.87519727 [kcal/mol]      45.50182538 [kJ/mol]
      delta HF,r (2)               -9.51961848 [mEh]      -5.97365078 [kcal/mol]     -24.99375488 [kJ/mol]

    Dispersion                    -38.05492470 [mEh]     -23.87982577 [kcal/mol]     -99.91319103 [kJ/mol]
      Disp20                      -41.96840160 [mEh]     -26.33556960 [kcal/mol]    -110.18802321 [kJ/mol]
      Exch-Disp20                   3.91347690 [mEh]       2.45574383 [kcal/mol]      10.27483218 [kJ/mol]
      Disp20 (SS)                 -20.98420080 [mEh]     -13.16778480 [kcal/mol]     -55.09401161 [kJ/mol]
      Disp20 (OS)                 -20.98420080 [mEh]     -13.16778480 [kcal/mol]     -55.09401161 [kJ/mol]
      Exch-Disp20 (SS)              2.41074939 [mEh]       1.51276808 [kcal/mol]       6.32942165 [kJ/mol]
      Exch-Disp20 (OS)              1.50272751 [mEh]       0.94297575 [kcal/mol]       3.94541053 [kJ/mol]

  Total HF                         -0.42792063 [mEh]      -0.26852425 [kcal/mol]      -1.12350547 [kJ/mol]
  Total SAPT0                     -38.48284533 [mEh]     -24.14835002 [kcal/mol]    -101.03669650 [kJ/mol]

  Special recipe for scaled SAPT0 (see Manual):
    Electrostatics sSAPT0         -27.98634202 [mEh]     -17.56169475 [kcal/mol]     -73.47813085 [kJ/mol]
    Exchange sSAPT0                59.43630462 [mEh]      37.29684424 [kcal/mol]     156.04999629 [kJ/mol]
    Induction sSAPT0              -31.02300750 [mEh]     -19.46723111 [kcal/mol]     -81.45089498 [kJ/mol]
    Dispersion sSAPT0             -37.86188399 [mEh]     -23.75869090 [kcal/mol]     -99.40636271 [kJ/mol]
  Total sSAPT0                    -37.43492889 [mEh]     -23.49077253 [kcal/mol]     -98.28539225 [kJ/mol]
  --------------------------------------------------------------------------------------------------------

*** Psi4 exiting successfully. Buy a developer a beer!
