                               Psi4 1.9 release

  ==> Input File <==

--------------------------------------------------------------------------
memory 64 GB # how much memory is available ! Depends on the nodes/cores !

molecule dimer {
# monomer A
+1 1    # Charge and multiplicity
C  0.680067 -0.008042 -6.015929
C -0.680504 -0.006014 -6.015545
N -1.085635 -0.005016 -4.697221
C  0.000108 -0.001740 -3.915820
C -2.477365  0.044390 -4.229242
N  1.085222 -0.005016 -4.697221
H  1.385146 -0.015870 -6.833368
H -1.385302 -0.006204 -6.833214
H -0.000009  0.000007 -2.834731
C  2.478117 -0.021908 -4.232123
H  2.490592  0.005437 -3.141870
H  2.967028 -0.935354 -4.579299
H  3.001428  0.853575 -4.623595
H -2.857359  1.066461 -4.309201
H -3.082679 -0.625694 -4.842306
H -2.518128 -0.282594 -3.189294
--
# monomer B
0 1     # Charge and multiplicity
C   -3.66844126402057      7.80375217008252      0.00190004133558
C   -4.84759871934653      7.13124183134024     -0.00046653359696
C   -4.89495929917518      5.69633040353158     -0.00103944469517
C   -3.65374067877320      4.98073034095895      0.00662099703436
C   -2.40942512149445      7.11398103667468      0.00209438359570
C   -2.42547734410473      5.68112195090346     -0.00491050527438
C   -1.19474401643570      7.78614419430947      0.00356656413763
C   0.03795902893699      7.09942164575698      0.00139585983271
C   0.03033258741920      5.66948955970466     -0.00408752508301
C   -1.20098450790502      4.96927034791531      0.00488220885047
C   1.27795782581485      7.77285944319479      0.00277170839332
C   2.48535808472416      7.08769688523756      0.00049722048857
C   2.48612868491717      5.65477081024076     -0.00644052849921
C   1.25408291964399      4.95607811366431      0.00518741308898
C   3.75171459140595      7.76391215098033      0.00062407186893
C   4.92356605618520      7.07878077698995     -0.00143240883900
C   4.95560727132542      5.64344746336949     -0.00159282164606
C   3.70680153420475      4.94121020833308      0.00349873852374
H   -3.65852113775815      8.89082741913536      0.00358502958574
H   -1.18921332975660      8.87412108735996      0.00753844057883
H   1.28429423888630      8.86083343548850      0.00693053253426
H   3.75354208679975      8.85103527897216      0.00214659618464
H   5.86995870320703      7.61379483465560     -0.00235777588134
H   -5.78823170750226      7.67630221293400     -0.00202638095293
C   -6.09197395869619      4.99326001364347     -0.00291168518608
C   -6.12866148031747      3.58258016879823     -0.00171050815740
C   -3.66457974004527      3.56418217974434     -0.00463560277484
C   -4.89429820469869      2.86108077590057      0.00453338221034
C   -2.43733499489796      2.84761165708481      0.00719617576166
C   -1.20922785759670      3.54788693497833     -0.00648285103018
C   1.24714157216223      3.53468075142962     -0.00729145743546
C   0.01517603956900      2.83311183930540      0.00439272578912
C   2.46764517244071      2.82128997725533      0.00449278391269
C   3.70254947457969      3.52466015442405     -0.00899517692985
C   6.14498038638375      4.92757236613191     -0.00282626685777
C   6.16658835886151      3.51658447594213     -0.00065971342101
C   4.92460995845939      2.80840792535402      0.00587903281610
H   7.08990550964105      5.46688776622306     -0.00658814770723
H   -7.03104175110130      5.54268795285765     -0.00714490013730
C   -7.33969804112295      2.85841153457957     -0.00333767559888
C   -7.36488195805880      1.47032337158330     -0.00157213747140
C   -4.90350460894690      1.44442681216000     -0.00628840166334
C   -6.13225715261081      0.73993935705394      0.00600164231964
C   -3.67687480051673      0.72669714267312      0.00433931473643
C   -2.44565658606518      1.42964113326212     -0.00597039546461
C   -1.22360068130162      0.71532450163492      0.00545886906656
C   0.00763786931376      1.41738314923765      0.00392452278437
C   1.23121980774686      0.70211669058719     -0.01490206287210
C   2.46082110053113      1.40329203612573      0.00460244601878
C   3.68443025419614      0.68719842821222      0.00377365974158
C   4.91870890153864      1.39173456118907     -0.00862816189375
C   7.36980207796101      2.77948220318441     -0.00242013321349
C   7.38016266612146      1.39121750785509     -0.00087345036788
C   6.13979953912259      0.67411862320065      0.00545489144369
H   -8.27919079934664      3.40711804112415     -0.00763522772059
H   8.31511347147953      3.31811809662368     -0.00663070901292
C   -8.59175593758115      0.72483255304480     -0.00123170985383
C   -8.59902460370342     -0.63263980622873      0.00089141472904
C   -6.13981313911873     -0.67413663715361     -0.00609792660607
C   -7.38018411213749     -1.39126618958160      0.00131813493501
C   -4.91868448025621     -1.39175501803000      0.00624257154343
C   -3.68443829568458     -0.68723731573599     -0.00478966852105
C   -2.46081704024768     -1.40334517882457      0.00575341766833
C   -1.23116201232071     -0.70217386488055     -0.00636696112346
C   -0.00756962538737     -1.41741884941102      0.00108956317991
C   1.22364771588843     -0.71527537726392      0.01109518512883
C   2.44567064933149     -1.42964328900682     -0.00065482763106
C   3.67686670284649     -0.72670743155550     -0.00479541202602
C   6.13224884641929     -0.73997883984993     -0.00632338623858
C   4.90351914550401     -1.44445752054090      0.00751768830159
C   8.59901484869081      0.63260386666793     -0.00101133422380
C   8.59174548810050     -0.72485086719319      0.00072504603735
C   7.36486276438985     -1.47033266560598      0.00049486934466
H   -9.52830597181814      1.27684744919284     -0.00270163681798
H   9.54141097460619      1.17457248844457     -0.00206336648518
C   -7.36983790976868     -2.77954514593389      0.00312634335708
C   -4.92459910905015     -2.80843725734101     -0.00460528907921
C   -6.16662249566744     -3.51665219282533      0.00169655107992
C   -3.70251035970491     -3.52468154912026      0.00571878010666
C   -2.46764698511392     -2.82132596280400     -0.00632585824990
C   -0.01513347410770     -2.83314164539971     -0.00604426974092
C   -1.24712184122656     -3.53473217556300      0.00551968366725
C   1.20924506964357     -3.54791467864352      0.00805871345849
C   2.43733602215464     -2.84764173817541     -0.00608104485234
C   4.89430234377080     -2.86112296828604     -0.00526030478103
C   3.66461525504104     -3.56421984553201      0.00761911515957
C   6.12863901474565     -3.58258405771778      0.00096495711699
C   7.33967266469532     -2.85841330737039      0.00248018319869
H   -9.54144911125902     -1.17456346666430      0.00226083090216
H   9.52826186807155     -1.27691907390448      0.00197485379837
H   -8.31516504384864     -3.31814985321231      0.00729857188773
H   8.27915514249207     -3.40714078989363      0.00681973918158
C   -6.14499418870218     -4.92764727278338      0.00302254913999
C   -3.70678334799751     -4.94126171411716     -0.00679841894792
C   -4.95559005800169     -5.64349397349412      0.00116871569699
C   -2.48612132622665     -5.65478557440947      0.00614125209662
C   -1.25405833548005     -4.95612205000132     -0.00503435388927
C   1.20101257386816     -4.96928038819302     -0.00385322963129
C   -0.03033667441341     -5.66952030313900      0.00398997003238
C   3.65375010132847     -4.98074377541453     -0.00309522988330
C   2.42549269587528     -5.68117463552727      0.00628170066869
C   6.09196561781097     -4.99325796338655      0.00325918379042
C   4.89497644461045     -5.69634842095790      0.00202298796027
H   -7.08989238804069     -5.46699984223871      0.00742531082125
H   7.03105520920009     -5.54265853633254      0.00683896355417
C   -4.92354532219813     -7.07882109967734      0.00061394679214
C   -2.48534208823777     -7.08772807792913     -0.00189594564379
C   -3.75168589177895     -7.76394715763627     -0.00170126671874
C   -0.03794895698805     -7.09946487446944     -0.00168022049625
C   -1.27795610040136     -7.77290438466689     -0.00366491325785
C   2.40944432072629     -7.11402201200282     -0.00081701968533
C   1.19474993715296     -7.78618536556242     -0.00296931056689
C   4.84762105249800     -7.13126211057943      0.00168979497423
C   3.66847160587561     -7.80378799294376     -0.00065863938960
H   -5.86994035041618     -7.61383059804164      0.00215798365757
H   5.78824962538815     -7.67633218931421      0.00281691445618
H   -3.75352693944918     -8.85107156923607     -0.00353718114765
H   -1.28430440589466     -8.86087539249706     -0.00809229711623
H   1.18922157469537     -8.87416062058945     -0.00706194725726
H   3.65854661482387     -8.89086063405326     -0.00231318081200

    units angstrom      # Angstroms are the default
    no_reorient         # Geometry fixed, default
    symmetry c1         # C1 symmetry, default
}

set {
    scf_type DF         # Density fitting, faster than exact integrals
    freeze_core True    # Freeze core electrons
    basis jun-cc-pVDZ   # Jun-cc-pVDZ basis set, recommended for sSAPT0 in https://doi.org/10.1063/1.4867135
}

energy('ssapt0')        # Compute sSAPT0 energy, includes also SAPT0
--------------------------------------------------------------------------

  //              Dimer HF             //
    Molecular point group: c1
  Charge       = 1
  Multiplicity = 1
  Basis Set: JUN-CC-PVDZ
    Blend: JUN-CC-PVDZ
  Basis Set: (JUN-CC-PVDZ AUX)
    Blend: JUN-CC-PVDZ-JKFIT
  @DF-RHF Final Energy: -3953.66066522318033
    Total Energy =                      -3953.6606652231785120
 Dipole X            :         -0.0025900            0.0004804           -0.0021096
 Dipole Y            :         -0.0514141            0.0561130            0.0046989
 Dipole Z            :         20.9691002          -27.2651866           -6.2960863
 Magnitude           :                                                    6.2960884
  //            Monomer A HF           //
    Molecular point group: c1
  Multiplicity = 1
  Basis Set: JUN-CC-PVDZ
    Blend: JUN-CC-PVDZ
  Basis Set: (JUN-CC-PVDZ AUX)
    Blend: JUN-CC-PVDZ-JKFIT
  @DF-RHF Final Energy:  -303.29798183729747
    Total Energy =                       -303.2979818372974705
  //            Monomer B HF           //
    Molecular point group: c1

    Geometry (in Angstrom), charge = 0, multiplicity = 1:

       Center              X                  Y                   Z               Mass
    ------------   -----------------  -----------------  -----------------  -----------------
      Gh(C)           0.680062820275    -0.008027535675    -5.649971854981    12.000000000000
      Gh(C)          -0.680508179725    -0.005999535675    -5.649587854981    12.000000000000
      Gh(N)          -1.085639179725    -0.005001535675    -4.331263854981    14.003074004430
      Gh(C)           0.000103820275    -0.001725535675    -3.549862854981    12.000000000000
      Gh(C)          -2.477369179725     0.044404464325    -3.863284854981    12.000000000000
      Gh(N)           1.085217820275    -0.005001535675    -4.331263854981    14.003074004430
      Gh(H)           1.385141820275    -0.015855535675    -6.467410854981     1.007825032230
      Gh(H)          -1.385306179725    -0.006189535675    -6.467256854981     1.007825032230
      Gh(H)          -0.000013179725     0.000021464325    -2.468773854981     1.007825032230
      Gh(C)           2.478112820275    -0.021893535675    -3.866165854981    12.000000000000
      Gh(H)           2.490587820275     0.005451464325    -2.775912854981     1.007825032230
      Gh(H)           2.967023820275    -0.935339535675    -4.213341854981     1.007825032230
      Gh(H)           3.001423820275     0.853589464325    -4.257637854981     1.007825032230
      Gh(H)          -2.857363179725     1.066475464325    -3.943243854981     1.007825032230
      Gh(H)          -3.082683179725    -0.625679535675    -4.476348854981     1.007825032230
      Gh(H)          -2.518132179725    -0.282579535675    -2.823336854981     1.007825032230
         C           -3.668445443746     7.803766634408     0.367857186355    12.000000000000
         C           -4.847602899072     7.131256295665     0.365490611422    12.000000000000
         C           -4.894963478901     5.696344867857     0.364917700324    12.000000000000
         C           -3.653744858499     4.980744805284     0.372578142054    12.000000000000
         C           -2.409429301220     7.113995501000     0.368051528615    12.000000000000
         C           -2.425481523830     5.681136415228     0.361046639745    12.000000000000
         C           -1.194748196161     7.786158658634     0.369523709157    12.000000000000
         C            0.037954849212     7.099436110082     0.367353004852    12.000000000000
         C            0.030328407694     5.669504024030     0.361869619936    12.000000000000
         C           -1.200988687630     4.969284812240     0.370839353870    12.000000000000
         C            1.277953646089     7.772873907520     0.368728853413    12.000000000000
         C            2.485353904999     7.087711349563     0.366454365508    12.000000000000
         C            2.486124505192     5.654785274566     0.359516616520    12.000000000000
         C            1.254078739919     4.956092577989     0.371144558108    12.000000000000
         C            3.751710411681     7.763926615305     0.366581216888    12.000000000000
         C            4.923561876460     7.078795241315     0.364524736180    12.000000000000
         C            4.955603091600     5.643461927694     0.364364323373    12.000000000000
         C            3.706797354479     4.941224672658     0.369455883543    12.000000000000
         H           -3.658525317484     8.890841883460     0.369542174605     1.007825032230
         H           -1.189217509482     8.874135551685     0.373495585598     1.007825032230
         H            1.284290059161     8.860847899813     0.372887677553     1.007825032230
         H            3.753537907074     8.851049743297     0.368103741204     1.007825032230
         H            5.869954523482     7.613809298981     0.363599369138     1.007825032230
         H           -5.788235887228     7.676316677259     0.363930764066     1.007825032230
         C           -6.091978138422     4.993274477968     0.363045459833    12.000000000000
         C           -6.128665660043     3.582594633123     0.364246636862    12.000000000000
         C           -3.664583919771     3.564196644069     0.361321542244    12.000000000000
         C           -4.894302384424     2.861095240226     0.370490527230    12.000000000000
         C           -2.437339174623     2.847626121410     0.373153320781    12.000000000000
         C           -1.209232037322     3.547901399303     0.359474293989    12.000000000000
         C            1.247137392437     3.534695215755     0.358665687584    12.000000000000
         C            0.015171859844     2.833126303630     0.370349870808    12.000000000000
         C            2.467640992715     2.821304441580     0.370449928932    12.000000000000
         C            3.702545294854     3.524674618749     0.356961968089    12.000000000000
         C            6.144976206658     4.927586830457     0.363130878161    12.000000000000
         C            6.166584179136     3.516598940267     0.365297431598    12.000000000000
         C            4.924605778734     2.808422389679     0.371836177835    12.000000000000
         H            7.089901329916     5.466902230548     0.359368997312     1.007825032230
         H           -7.031045930827     5.542702417183     0.358812244882     1.007825032230
         C           -7.339702220848     2.858425998905     0.362619469420    12.000000000000
         C           -7.364886137784     1.470337835908     0.364385007548    12.000000000000
         C           -4.903508788672     1.444441276485     0.359668743356    12.000000000000
         C           -6.132261332336     0.739953821379     0.371958787339    12.000000000000
         C           -3.676878980242     0.726711606998     0.370296459756    12.000000000000
         C           -2.445660765791     1.429655597587     0.359986749555    12.000000000000
         C           -1.223604861027     0.715338965960     0.371416014086    12.000000000000
         C            0.007633689588     1.417397613563     0.369881667804    12.000000000000
         C            1.231215628021     0.702131154912     0.351055082147    12.000000000000
         C            2.460816920806     1.403306500451     0.370559591038    12.000000000000
         C            3.684426074471     0.687212892537     0.369730804761    12.000000000000
         C            4.918704721813     1.391749025514     0.357328983125    12.000000000000
         C            7.369797898236     2.779496667509     0.363537011806    12.000000000000
         C            7.380158486396     1.391231972180     0.365083694651    12.000000000000
         C            6.139795359397     0.674133087526     0.371412036463    12.000000000000
         H           -8.279194979072     3.407132505449     0.358321917299     1.007825032230
         H            8.315109291754     3.318132560949     0.359326436006     1.007825032230
         C           -8.591760117307     0.724847017370     0.364725435165    12.000000000000
         C           -8.599028783429    -0.632625341904     0.366848559748    12.000000000000
         C           -6.139817318844    -0.674122172829     0.359859218413    12.000000000000
         C           -7.380188291863    -1.391251725257     0.367275279954    12.000000000000
         C           -4.918688659982    -1.391740553705     0.372199716563    12.000000000000
         C           -3.684442475410    -0.687222851411     0.361167476498    12.000000000000
         C           -2.460821219973    -1.403330714500     0.371710562688    12.000000000000
         C           -1.231166192046    -0.702159400556     0.359590183896    12.000000000000
         C           -0.007573805113    -1.417404385086     0.367046708199    12.000000000000
         C            1.223643536163    -0.715260912939     0.377052330148    12.000000000000
         C            2.445666469606    -1.429628824682     0.365302317388    12.000000000000
         C            3.676862523121    -0.726692967231     0.361161732993    12.000000000000
         C            6.132244666694    -0.739964375525     0.359633758781    12.000000000000
         C            4.903514965779    -1.444443056216     0.373474833321    12.000000000000
         C            8.599010668965     0.632618330993     0.364945810795    12.000000000000
         C            8.591741308375    -0.724836402868     0.366682191057    12.000000000000
         C            7.364858584664    -1.470318201281     0.366452014364    12.000000000000
         H           -9.528310151544     1.276861913518     0.363255508201     1.007825032230
         H            9.541406794881     1.174586952770     0.363893778534     1.007825032230
         C           -7.369842089494    -2.779530681609     0.369083488376    12.000000000000
         C           -4.924603288776    -2.808422793016     0.361351855940    12.000000000000
         C           -6.166626675393    -3.516637728500     0.367653696099    12.000000000000
         C           -3.702514539430    -3.524667084795     0.371675925126    12.000000000000
         C           -2.467651164839    -2.821311498479     0.359631286769    12.000000000000
         C           -0.015137653833    -2.833127181075     0.359912875278    12.000000000000
         C           -1.247126020952    -3.534717711238     0.371476828686    12.000000000000
         C            1.209240889918    -3.547900214319     0.374015858478    12.000000000000
         C            2.437331842429    -2.847627273850     0.359876100167    12.000000000000
         C            4.894298164045    -2.861108503961     0.360696840238    12.000000000000
         C            3.664611075316    -3.564205381207     0.373576260179    12.000000000000
         C            6.128634835020    -3.582569593393     0.366922102136    12.000000000000
         C            7.339668484970    -2.858398843045     0.368437328218    12.000000000000
         H           -9.541453290984    -1.174549002339     0.368217975921     1.007825032230
         H            9.528257688346    -1.276904609579     0.367931998818     1.007825032230
         H           -8.315169223574    -3.318135388887     0.373255716907     1.007825032230
         H            8.279150962767    -3.407126325569     0.372776884201     1.007825032230
         C           -6.144998368428    -4.927632808458     0.368979694159    12.000000000000
         C           -3.706787527723    -4.941247249792     0.359158726071    12.000000000000
         C           -4.955594237727    -5.643479509169     0.367125860716    12.000000000000
         C           -2.486125505952    -5.654771110084     0.372098397116    12.000000000000
         C           -1.254062515205    -4.956107585676     0.360922791130    12.000000000000
         C            1.201008394143    -4.969265923868     0.362103915388    12.000000000000
         C           -0.030340854139    -5.669505838814     0.369947115052    12.000000000000
         C            3.653745921603    -4.980729311090     0.362861915136    12.000000000000
         C            2.425488516150    -5.681160171202     0.372238845688    12.000000000000
         C            6.091961438086    -4.993243499062     0.369216328810    12.000000000000
         C            4.894972264885    -5.696333956633     0.367980132979    12.000000000000
         H           -7.089896567766    -5.466985377914     0.373382455840     1.007825032230
         H            7.031051029475    -5.542644072008     0.372796108573     1.007825032230
         C           -4.923549501924    -7.078806635352     0.366571091811    12.000000000000
         C           -2.485346267963    -7.087713613604     0.364061199375    12.000000000000
         C           -3.751690071504    -7.763932693311     0.364255878300    12.000000000000
         C           -0.037953136713    -7.099450410144     0.364276924523    12.000000000000
         C           -1.277960280127    -7.772889920342     0.362292231761    12.000000000000
         C            2.409440141001    -7.114007547678     0.365140125334    12.000000000000
         C            1.194745757428    -7.786170901237     0.362987834452    12.000000000000
         C            4.847616872773    -7.131247646254     0.367646939993    12.000000000000
         C            3.668467426150    -7.803773528619     0.365298505630    12.000000000000
         H           -5.869944530142    -7.613816133717     0.368115128677     1.007825032230
         H            5.788245445663    -7.676317724989     0.368774059475     1.007825032230
         H           -3.753531119175    -8.851057104911     0.362419963872     1.007825032230
         H           -1.284308585620    -8.860860928172     0.357864847903     1.007825032230
         H            1.189217394970    -8.874146156264     0.358895197762     1.007825032230
         H            3.658542435098    -8.890846169728     0.363643964207     1.007825032230

  Charge       = 0
  Multiplicity = 1
  Basis Set: JUN-CC-PVDZ
    Blend: JUN-CC-PVDZ
  Basis Set: (JUN-CC-PVDZ AUX)
    Blend: JUN-CC-PVDZ-JKFIT

    Orbital Energies [Eh]
    ---------------------

    Doubly Occupied:

       1A    -11.264036     2A    -11.263723     3A    -11.263659
       4A    -11.263329     5A    -11.263307     6A    -11.263257
       7A    -11.263145     8A    -11.263116     9A    -11.263072
      10A    -11.262896    11A    -11.262766    12A    -11.262746
      13A    -11.262276    14A    -11.262259    15A    -11.262238
      16A    -11.262186    17A    -11.262119    18A    -11.262096
      19A    -11.262057    20A    -11.262014    21A    -11.262008
      22A    -11.261896    23A    -11.261876    24A    -11.261737
      25A    -11.261730    26A    -11.261705    27A    -11.261702
      28A    -11.261660    29A    -11.261655    30A    -11.261567
      31A    -11.261547    32A    -11.261541    33A    -11.261523
      34A    -11.261518    35A    -11.261499    36A    -11.261494
      37A    -11.261314    38A    -11.261305    39A    -11.261298
      40A    -11.261295    41A    -11.261282    42A    -11.261277
      43A    -11.261267    44A    -11.261255    45A    -11.261246
      46A    -11.261225    47A    -11.261220    48A    -11.261215
      49A    -11.261069    50A    -11.261048    51A    -11.261008
      52A    -11.260970    53A    -11.260926    54A    -11.260885
      55A    -11.259896    56A    -11.259883    57A    -11.259880
      58A    -11.259851    59A    -11.259850    60A    -11.259834
      61A    -11.259267    62A    -11.259245    63A    -11.259236
      64A    -11.259189    65A    -11.259181    66A    -11.259154
      67A    -11.258899    68A    -11.258881    69A    -11.258880
      70A    -11.258851    71A    -11.258849    72A    -11.258837
      73A    -11.254511    74A    -11.254510    75A    -11.254505
      76A    -11.254501    77A    -11.254495    78A    -11.254487
      79A    -11.253638    80A    -11.253637    81A    -11.253627
      82A    -11.253624    83A    -11.253623    84A    -11.253616
      85A    -11.253553    86A    -11.253553    87A    -11.253542
      88A    -11.253539    89A    -11.253538    90A    -11.253531
      91A    -11.253039    92A    -11.253037    93A    -11.253033
      94A    -11.253029    95A    -11.253023    96A    -11.253015
      97A     -1.253894    98A     -1.238963    99A     -1.238936
     100A     -1.220427   101A     -1.220414   102A     -1.215395
     103A     -1.201004   104A     -1.195567   105A     -1.188101
     106A     -1.188086   107A     -1.173729   108A     -1.173727
     109A     -1.155582   110A     -1.155578   111A     -1.152669
     112A     -1.144689   113A     -1.144687   114A     -1.128523
     115A     -1.114667   116A     -1.113130   117A     -1.112443
     118A     -1.112415   119A     -1.111586   120A     -1.088387
     121A     -1.088367   122A     -1.076930   123A     -1.076928
     124A     -1.067575   125A     -1.067536   126A     -1.064924
     127A     -1.046760   128A     -1.046750   129A     -1.040436
     130A     -1.038706   131A     -1.038700   132A     -1.025192
     133A     -1.021336   134A     -1.021272   135A     -1.007142
     136A     -1.006762   137A     -1.003757   138A     -1.000446
     139A     -1.000388   140A     -0.991045   141A     -0.970945
     142A     -0.970893   143A     -0.955849   144A     -0.955790
     145A     -0.905532   146A     -0.905520   147A     -0.905497
     148A     -0.905476   149A     -0.904272   150A     -0.892305
     151A     -0.892251   152A     -0.890311   153A     -0.890257
     154A     -0.889404   155A     -0.872183   156A     -0.869029
     157A     -0.851499   158A     -0.847809   159A     -0.847798
     160A     -0.845546   161A     -0.842964   162A     -0.834519
     163A     -0.834509   164A     -0.828086   165A     -0.828077
     166A     -0.784508   167A     -0.784498   168A     -0.783613
     169A     -0.783596   170A     -0.782237   171A     -0.782219
     172A     -0.781981   173A     -0.766945   174A     -0.760738
     175A     -0.750524   176A     -0.733450   177A     -0.727036
     178A     -0.726997   179A     -0.725033   180A     -0.724501
     181A     -0.724470   182A     -0.718438   183A     -0.713719
     184A     -0.713712   185A     -0.699537   186A     -0.699513
     187A     -0.686069   188A     -0.685917   189A     -0.685906
     190A     -0.682128   191A     -0.682119   192A     -0.678732
     193A     -0.653583   194A     -0.650828   195A     -0.650793
     196A     -0.649753   197A     -0.649748   198A     -0.649524
     199A     -0.640882   200A     -0.640835   201A     -0.640043
     202A     -0.639120   203A     -0.635973   204A     -0.635941
     205A     -0.629090   206A     -0.617761   207A     -0.615266
     208A     -0.615239   209A     -0.608756   210A     -0.608749
     211A     -0.599169   212A     -0.599086   213A     -0.598695
     214A     -0.598543   215A     -0.598529   216A     -0.597983
     217A     -0.595025   218A     -0.595012   219A     -0.594675
     220A     -0.594169   221A     -0.591904   222A     -0.591901
     223A     -0.587330   224A     -0.577766   225A     -0.577746
     226A     -0.575693   227A     -0.575652   228A     -0.573334
     229A     -0.569571   230A     -0.568089   231A     -0.568062
     232A     -0.566700   233A     -0.566695   234A     -0.560878
     235A     -0.558674   236A     -0.558630   237A     -0.558391
     238A     -0.554318   239A     -0.550553   240A     -0.547439
     241A     -0.544242   242A     -0.535003   243A     -0.534948
     244A     -0.533491   245A     -0.533474   246A     -0.528035
     247A     -0.528016   248A     -0.527729   249A     -0.517109
     250A     -0.517083   251A     -0.515326   252A     -0.515321
     253A     -0.509596   254A     -0.509584   255A     -0.497976
     256A     -0.496409   257A     -0.496363   258A     -0.493798
     259A     -0.493725   260A     -0.489426   261A     -0.481405
     262A     -0.477387   263A     -0.477385   264A     -0.473945
     265A     -0.469379   266A     -0.466467   267A     -0.466465
     268A     -0.458785   269A     -0.446614   270A     -0.446562
     271A     -0.440992   272A     -0.440754   273A     -0.440685
     274A     -0.434655   275A     -0.433877   276A     -0.407333
     277A     -0.407319   278A     -0.386378   279A     -0.386310
     280A     -0.385700   281A     -0.385695   282A     -0.383720
     283A     -0.354283   284A     -0.354262   285A     -0.350629
     286A     -0.338045   287A     -0.335523   288A     -0.335503
     289A     -0.332682   290A     -0.332672   291A     -0.307022
     292A     -0.301894   293A     -0.301833   294A     -0.300814
     295A     -0.286130   296A     -0.256444   297A     -0.253439
     298A     -0.253405   299A     -0.204218   300A     -0.204136

  @DF-RHF Final Energy: -3650.34071040608706

   => Energetics <=

    Nuclear Repulsion Energy =          15611.4211649754306563
    One-Electron Energy =              -36072.1686918670820887
    Two-Electron Energy =               16810.4068164855671057
    Total Energy =                      -3650.3407104060861457
 Dipole X            :         -0.0005857            0.0002112           -0.0003746
 Dipole Y            :          0.0011714           -0.0013774           -0.0002060
 Dipole Z            :       -414.9316631          414.9386586            0.0069955
 Magnitude           :                                                    0.0070085

    SAPT Results
  --------------------------------------------------------------------------------------------------------
    Electrostatics                -12.16705142 [mEh]      -7.63494004 [kcal/mol]     -31.94458912 [kJ/mol]
      Elst10,r                    -12.16705142 [mEh]      -7.63494004 [kcal/mol]     -31.94458912 [kJ/mol]

    Exchange                        2.49185800 [mEh]       1.56366450 [kcal/mol]       6.54237227 [kJ/mol]
      Exch10                        2.49185800 [mEh]       1.56366450 [kcal/mol]       6.54237227 [kJ/mol]
      Exch10(S^2)                   2.48964943 [mEh]       1.56227860 [kcal/mol]       6.53657367 [kJ/mol]

    Induction                     -12.29778637 [mEh]      -7.71697745 [kcal/mol]     -32.28783366 [kJ/mol]
      Ind20,r                     -11.74770003 [mEh]      -7.37179306 [kcal/mol]     -30.84358217 [kJ/mol]
      Exch-Ind20,r                  0.48637175 [mEh]       0.30520288 [kcal/mol]       1.27696887 [kJ/mol]
      delta HF,r (2)               -1.03645810 [mEh]      -0.65038727 [kcal/mol]      -2.72122036 [kJ/mol]

    Dispersion                    -12.61415801 [mEh]      -7.91550366 [kcal/mol]     -33.11846730 [kJ/mol]
      Disp20                      -12.89088679 [mEh]      -8.08915359 [kcal/mol]     -33.84501862 [kJ/mol]
      Exch-Disp20                   0.27672878 [mEh]       0.17364993 [kcal/mol]       0.72655132 [kJ/mol]
      Disp20 (SS)                  -6.44544340 [mEh]      -4.04457679 [kcal/mol]     -16.92250931 [kJ/mol]
      Disp20 (OS)                  -6.44544340 [mEh]      -4.04457679 [kcal/mol]     -16.92250931 [kJ/mol]
      Exch-Disp20 (SS)              0.17435059 [mEh]       0.10940665 [kcal/mol]       0.45775742 [kJ/mol]
      Exch-Disp20 (OS)              0.10237819 [mEh]       0.06424328 [kcal/mol]       0.26879390 [kJ/mol]

  Total HF                        -21.97297980 [mEh]     -13.78825299 [kcal/mol]     -57.69005051 [kJ/mol]
  Total SAPT0                     -34.58713781 [mEh]     -21.70375665 [kcal/mol]     -90.80851780 [kJ/mol]

  Special recipe for scaled SAPT0 (see Manual):
    Electrostatics sSAPT0         -12.16705142 [mEh]      -7.63494004 [kcal/mol]     -31.94458912 [kJ/mol]
    Exchange sSAPT0                 2.49185800 [mEh]       1.56366450 [kcal/mol]       6.54237227 [kJ/mol]
    Induction sSAPT0              -12.29649084 [mEh]      -7.71616449 [kcal/mol]     -32.28443224 [kJ/mol]
    Dispersion sSAPT0             -12.61342090 [mEh]      -7.91504111 [kcal/mol]     -33.11653201 [kJ/mol]
  Total sSAPT0                    -34.58510516 [mEh]     -21.70248114 [kcal/mol]     -90.80318109 [kJ/mol]
  --------------------------------------------------------------------------------------------------------

*** Psi4 exiting successfully. Buy a developer a beer!
