                               Psi4 1.9 release

  ==> Input File <==

--------------------------------------------------------------------------
memory 64 GB # how much memory is available ! Depends on the nodes/cores !

molecule dimer {
# monomer A
+1 1    # Charge and multiplicity
C  0.680067 -0.008042 -7.815929
C -0.680504 -0.006014 -7.815545
N -1.085635 -0.005016 -6.497221
C  0.000108 -0.001740 -5.715820
C -2.477365  0.044390 -6.029242
N  1.085222 -0.005016 -6.497221
H  1.385146 -0.015870 -8.633368
H -1.385302 -0.006204 -8.633214
H -0.000009  0.000007 -4.634731
C  2.478117 -0.021908 -6.032123
H  2.490592  0.005437 -4.941870
H  2.967028 -0.935354 -6.379299
H  3.001428  0.853575 -6.423595
H -2.857359  1.066461 -6.109201
H -3.082679 -0.625694 -6.642306
H -2.518128 -0.282594 -4.989294
--
# monomer B
0 1     # Charge and multiplicity
C   -3.66844126402057      7.80375217008252      0.00190004133558
C   -4.84759871934653      7.13124183134024     -0.00046653359696
C   -4.89495929917518      5.69633040353158     -0.00103944469517
C   -3.65374067877320      4.98073034095895      0.00662099703436
C   -2.40942512149445      7.11398103667468      0.00209438359570
C   -2.42547734410473      5.68112195090346     -0.00491050527438
C   -1.19474401643570      7.78614419430947      0.00356656413763
C   0.03795902893699      7.09942164575698      0.00139585983271
C   0.03033258741920      5.66948955970466     -0.00408752508301
C   -1.20098450790502      4.96927034791531      0.00488220885047
C   1.27795782581485      7.77285944319479      0.00277170839332
C   2.48535808472416      7.08769688523756      0.00049722048857
C   2.48612868491717      5.65477081024076     -0.00644052849921
C   1.25408291964399      4.95607811366431      0.00518741308898
C   3.75171459140595      7.76391215098033      0.00062407186893
C   4.92356605618520      7.07878077698995     -0.00143240883900
C   4.95560727132542      5.64344746336949     -0.00159282164606
C   3.70680153420475      4.94121020833308      0.00349873852374
H   -3.65852113775815      8.89082741913536      0.00358502958574
H   -1.18921332975660      8.87412108735996      0.00753844057883
H   1.28429423888630      8.86083343548850      0.00693053253426
H   3.75354208679975      8.85103527897216      0.00214659618464
H   5.86995870320703      7.61379483465560     -0.00235777588134
H   -5.78823170750226      7.67630221293400     -0.00202638095293
C   -6.09197395869619      4.99326001364347     -0.00291168518608
C   -6.12866148031747      3.58258016879823     -0.00171050815740
C   -3.66457974004527      3.56418217974434     -0.00463560277484
C   -4.89429820469869      2.86108077590057      0.00453338221034
C   -2.43733499489796      2.84761165708481      0.00719617576166
C   -1.20922785759670      3.54788693497833     -0.00648285103018
C   1.24714157216223      3.53468075142962     -0.00729145743546
C   0.01517603956900      2.83311183930540      0.00439272578912
C   2.46764517244071      2.82128997725533      0.00449278391269
C   3.70254947457969      3.52466015442405     -0.00899517692985
C   6.14498038638375      4.92757236613191     -0.00282626685777
C   6.16658835886151      3.51658447594213     -0.00065971342101
C   4.92460995845939      2.80840792535402      0.00587903281610
H   7.08990550964105      5.46688776622306     -0.00658814770723
H   -7.03104175110130      5.54268795285765     -0.00714490013730
C   -7.33969804112295      2.85841153457957     -0.00333767559888
C   -7.36488195805880      1.47032337158330     -0.00157213747140
C   -4.90350460894690      1.44442681216000     -0.00628840166334
C   -6.13225715261081      0.73993935705394      0.00600164231964
C   -3.67687480051673      0.72669714267312      0.00433931473643
C   -2.44565658606518      1.42964113326212     -0.00597039546461
C   -1.22360068130162      0.71532450163492      0.00545886906656
C   0.00763786931376      1.41738314923765      0.00392452278437
C   1.23121980774686      0.70211669058719     -0.01490206287210
C   2.46082110053113      1.40329203612573      0.00460244601878
C   3.68443025419614      0.68719842821222      0.00377365974158
C   4.91870890153864      1.39173456118907     -0.00862816189375
C   7.36980207796101      2.77948220318441     -0.00242013321349
C   7.38016266612146      1.39121750785509     -0.00087345036788
C   6.13979953912259      0.67411862320065      0.00545489144369
H   -8.27919079934664      3.40711804112415     -0.00763522772059
H   8.31511347147953      3.31811809662368     -0.00663070901292
C   -8.59175593758115      0.72483255304480     -0.00123170985383
C   -8.59902460370342     -0.63263980622873      0.00089141472904
C   -6.13981313911873     -0.67413663715361     -0.00609792660607
C   -7.38018411213749     -1.39126618958160      0.00131813493501
C   -4.91868448025621     -1.39175501803000      0.00624257154343
C   -3.68443829568458     -0.68723731573599     -0.00478966852105
C   -2.46081704024768     -1.40334517882457      0.00575341766833
C   -1.23116201232071     -0.70217386488055     -0.00636696112346
C   -0.00756962538737     -1.41741884941102      0.00108956317991
C   1.22364771588843     -0.71527537726392      0.01109518512883
C   2.44567064933149     -1.42964328900682     -0.00065482763106
C   3.67686670284649     -0.72670743155550     -0.00479541202602
C   6.13224884641929     -0.73997883984993     -0.00632338623858
C   4.90351914550401     -1.44445752054090      0.00751768830159
C   8.59901484869081      0.63260386666793     -0.00101133422380
C   8.59174548810050     -0.72485086719319      0.00072504603735
C   7.36486276438985     -1.47033266560598      0.00049486934466
H   -9.52830597181814      1.27684744919284     -0.00270163681798
H   9.54141097460619      1.17457248844457     -0.00206336648518
C   -7.36983790976868     -2.77954514593389      0.00312634335708
C   -4.92459910905015     -2.80843725734101     -0.00460528907921
C   -6.16662249566744     -3.51665219282533      0.00169655107992
C   -3.70251035970491     -3.52468154912026      0.00571878010666
C   -2.46764698511392     -2.82132596280400     -0.00632585824990
C   -0.01513347410770     -2.83314164539971     -0.00604426974092
C   -1.24712184122656     -3.53473217556300      0.00551968366725
C   1.20924506964357     -3.54791467864352      0.00805871345849
C   2.43733602215464     -2.84764173817541     -0.00608104485234
C   4.89430234377080     -2.86112296828604     -0.00526030478103
C   3.66461525504104     -3.56421984553201      0.00761911515957
C   6.12863901474565     -3.58258405771778      0.00096495711699
C   7.33967266469532     -2.85841330737039      0.00248018319869
H   -9.54144911125902     -1.17456346666430      0.00226083090216
H   9.52826186807155     -1.27691907390448      0.00197485379837
H   -8.31516504384864     -3.31814985321231      0.00729857188773
H   8.27915514249207     -3.40714078989363      0.00681973918158
C   -6.14499418870218     -4.92764727278338      0.00302254913999
C   -3.70678334799751     -4.94126171411716     -0.00679841894792
C   -4.95559005800169     -5.64349397349412      0.00116871569699
C   -2.48612132622665     -5.65478557440947      0.00614125209662
C   -1.25405833548005     -4.95612205000132     -0.00503435388927
C   1.20101257386816     -4.96928038819302     -0.00385322963129
C   -0.03033667441341     -5.66952030313900      0.00398997003238
C   3.65375010132847     -4.98074377541453     -0.00309522988330
C   2.42549269587528     -5.68117463552727      0.00628170066869
C   6.09196561781097     -4.99325796338655      0.00325918379042
C   4.89497644461045     -5.69634842095790      0.00202298796027
H   -7.08989238804069     -5.46699984223871      0.00742531082125
H   7.03105520920009     -5.54265853633254      0.00683896355417
C   -4.92354532219813     -7.07882109967734      0.00061394679214
C   -2.48534208823777     -7.08772807792913     -0.00189594564379
C   -3.75168589177895     -7.76394715763627     -0.00170126671874
C   -0.03794895698805     -7.09946487446944     -0.00168022049625
C   -1.27795610040136     -7.77290438466689     -0.00366491325785
C   2.40944432072629     -7.11402201200282     -0.00081701968533
C   1.19474993715296     -7.78618536556242     -0.00296931056689
C   4.84762105249800     -7.13126211057943      0.00168979497423
C   3.66847160587561     -7.80378799294376     -0.00065863938960
H   -5.86994035041618     -7.61383059804164      0.00215798365757
H   5.78824962538815     -7.67633218931421      0.00281691445618
H   -3.75352693944918     -8.85107156923607     -0.00353718114765
H   -1.28430440589466     -8.86087539249706     -0.00809229711623
H   1.18922157469537     -8.87416062058945     -0.00706194725726
H   3.65854661482387     -8.89086063405326     -0.00231318081200

    units angstrom      # Angstroms are the default
    no_reorient         # Geometry fixed, default
    symmetry c1         # C1 symmetry, default
}

set {
    scf_type DF         # Density fitting, faster than exact integrals
    freeze_core True    # Freeze core electrons
    basis jun-cc-pVDZ   # Jun-cc-pVDZ basis set, recommended for sSAPT0 in https://doi.org/10.1063/1.4867135
}

energy('ssapt0')        # Compute sSAPT0 energy, includes also SAPT0
--------------------------------------------------------------------------

  //              Dimer HF             //
    Molecular point group: c1
  Charge       = 1
  Multiplicity = 1
  Basis Set: JUN-CC-PVDZ
    Blend: JUN-CC-PVDZ
  Basis Set: (JUN-CC-PVDZ AUX)
    Blend: JUN-CC-PVDZ-JKFIT
  @DF-RHF Final Energy: -3953.64931028108094
    Total Energy =                      -3953.6493102810818527
 Dipole X            :         -0.0023674            0.0004804           -0.0018870
 Dipole Y            :         -0.0497429            0.0561130            0.0063701
 Dipole Z            :         28.3140223          -38.1969296           -9.8829073
 Magnitude           :                                                    9.8829095
  //            Monomer A HF           //
    Molecular point group: c1
  Multiplicity = 1
  Basis Set: JUN-CC-PVDZ
    Blend: JUN-CC-PVDZ
  Basis Set: (JUN-CC-PVDZ AUX)
    Blend: JUN-CC-PVDZ-JKFIT
  @DF-RHF Final Energy:  -303.29732905656283
    Total Energy =                       -303.2973290565628304
  //            Monomer B HF           //
    Molecular point group: c1

    Geometry (in Angstrom), charge = 0, multiplicity = 1:

       Center              X                  Y                   Z               Mass
    ------------   -----------------  -----------------  -----------------  -----------------
      Gh(C)           0.680062820275    -0.008027535675    -7.312735758930    12.000000000000
      Gh(C)          -0.680508179725    -0.005999535675    -7.312351758930    12.000000000000
      Gh(N)          -1.085639179725    -0.005001535675    -5.994027758930    14.003074004430
      Gh(C)           0.000103820275    -0.001725535675    -5.212626758930    12.000000000000
      Gh(C)          -2.477369179725     0.044404464325    -5.526048758930    12.000000000000
      Gh(N)           1.085217820275    -0.005001535675    -5.994027758930    14.003074004430
      Gh(H)           1.385141820275    -0.015855535675    -8.130174758930     1.007825032230
      Gh(H)          -1.385306179725    -0.006189535675    -8.130020758930     1.007825032230
      Gh(H)          -0.000013179725     0.000021464325    -4.131537758930     1.007825032230
      Gh(C)           2.478112820275    -0.021893535675    -5.528929758930    12.000000000000
      Gh(H)           2.490587820275     0.005451464325    -4.438676758930     1.007825032230
      Gh(H)           2.967023820275    -0.935339535675    -5.876105758930     1.007825032230
      Gh(H)           3.001423820275     0.853589464325    -5.920401758930     1.007825032230
      Gh(H)          -2.857363179725     1.066475464325    -5.606007758930     1.007825032230
      Gh(H)          -3.082683179725    -0.625679535675    -6.139112758930     1.007825032230
      Gh(H)          -2.518132179725    -0.282579535675    -4.486100758930     1.007825032230
         C           -3.668445443746     7.803766634408     0.505093282405    12.000000000000
         C           -4.847602899072     7.131256295665     0.502726707473    12.000000000000
         C           -4.894963478901     5.696344867857     0.502153796375    12.000000000000
         C           -3.653744858499     4.980744805284     0.509814238104    12.000000000000
         C           -2.409429301220     7.113995501000     0.505287624666    12.000000000000
         C           -2.425481523830     5.681136415228     0.498282735795    12.000000000000
         C           -1.194748196161     7.786158658634     0.506759805207    12.000000000000
         C            0.037954849212     7.099436110082     0.504589100903    12.000000000000
         C            0.030328407694     5.669504024030     0.499105715987    12.000000000000
         C           -1.200988687630     4.969284812240     0.508075449920    12.000000000000
         C            1.277953646089     7.772873907520     0.505964949463    12.000000000000
         C            2.485353904999     7.087711349563     0.503690461558    12.000000000000
         C            2.486124505192     5.654785274566     0.496752712571    12.000000000000
         C            1.254078739919     4.956092577989     0.508380654159    12.000000000000
         C            3.751710411681     7.763926615305     0.503817312939    12.000000000000
         C            4.923561876460     7.078795241315     0.501760832231    12.000000000000
         C            4.955603091600     5.643461927694     0.501600419424    12.000000000000
         C            3.706797354479     4.941224672658     0.506691979594    12.000000000000
         H           -3.658525317484     8.890841883460     0.506778270656     1.007825032230
         H           -1.189217509482     8.874135551685     0.510731681649     1.007825032230
         H            1.284290059161     8.860847899813     0.510123773604     1.007825032230
         H            3.753537907074     8.851049743297     0.505339837254     1.007825032230
         H            5.869954523482     7.613809298981     0.500835465189     1.007825032230
         H           -5.788235887228     7.676316677259     0.501166860117     1.007825032230
         C           -6.091978138422     4.993274477968     0.500281555884    12.000000000000
         C           -6.128665660043     3.582594633123     0.501482732912    12.000000000000
         C           -3.664583919771     3.564196644069     0.498557638295    12.000000000000
         C           -4.894302384424     2.861095240226     0.507726623280    12.000000000000
         C           -2.437339174623     2.847626121410     0.510389416832    12.000000000000
         C           -1.209232037322     3.547901399303     0.496710390040    12.000000000000
         C            1.247137392437     3.534695215755     0.495901783634    12.000000000000
         C            0.015171859844     2.833126303630     0.507585966859    12.000000000000
         C            2.467640992715     2.821304441580     0.507686024983    12.000000000000
         C            3.702545294854     3.524674618749     0.494198064140    12.000000000000
         C            6.144976206658     4.927586830457     0.500366974212    12.000000000000
         C            6.166584179136     3.516598940267     0.502533527649    12.000000000000
         C            4.924605778734     2.808422389679     0.509072273886    12.000000000000
         H            7.089901329916     5.466902230548     0.496605093363     1.007825032230
         H           -7.031045930827     5.542702417183     0.496048340933     1.007825032230
         C           -7.339702220848     2.858425998905     0.499855565471    12.000000000000
         C           -7.364886137784     1.470337835908     0.501621103598    12.000000000000
         C           -4.903508788672     1.444441276485     0.496904839407    12.000000000000
         C           -6.132261332336     0.739953821379     0.509194883389    12.000000000000
         C           -3.676878980242     0.726711606998     0.507532555806    12.000000000000
         C           -2.445660765791     1.429655597587     0.497222845605    12.000000000000
         C           -1.223604861027     0.715338965960     0.508652110136    12.000000000000
         C            0.007633689588     1.417397613563     0.507117763854    12.000000000000
         C            1.231215628021     0.702131154912     0.488291178198    12.000000000000
         C            2.460816920806     1.403306500451     0.507795687089    12.000000000000
         C            3.684426074471     0.687212892537     0.506966900811    12.000000000000
         C            4.918704721813     1.391749025514     0.494565079176    12.000000000000
         C            7.369797898236     2.779496667509     0.500773107856    12.000000000000
         C            7.380158486396     1.391231972180     0.502319790702    12.000000000000
         C            6.139795359397     0.674133087526     0.508648132514    12.000000000000
         H           -8.279194979072     3.407132505449     0.495558013349     1.007825032230
         H            8.315109291754     3.318132560949     0.496562532057     1.007825032230
         C           -8.591760117307     0.724847017370     0.501961531216    12.000000000000
         C           -8.599028783429    -0.632625341904     0.504084655799    12.000000000000
         C           -6.139817318844    -0.674122172829     0.497095314464    12.000000000000
         C           -7.380188291863    -1.391251725257     0.504511376005    12.000000000000
         C           -4.918688659982    -1.391740553705     0.509435812613    12.000000000000
         C           -3.684442475410    -0.687222851411     0.498403572549    12.000000000000
         C           -2.460821219973    -1.403330714500     0.508946658738    12.000000000000
         C           -1.231166192046    -0.702159400556     0.496826279946    12.000000000000
         C           -0.007573805113    -1.417404385086     0.504282804250    12.000000000000
         C            1.223643536163    -0.715260912939     0.514288426199    12.000000000000
         C            2.445666469606    -1.429628824682     0.502538413439    12.000000000000
         C            3.676862523121    -0.726692967231     0.498397829044    12.000000000000
         C            6.132244666694    -0.739964375525     0.496869854831    12.000000000000
         C            4.903514965779    -1.444443056216     0.510710929371    12.000000000000
         C            8.599010668965     0.632618330993     0.502181906846    12.000000000000
         C            8.591741308375    -0.724836402868     0.503918287107    12.000000000000
         C            7.364858584664    -1.470318201281     0.503688110415    12.000000000000
         H           -9.528310151544     1.276861913518     0.500491604252     1.007825032230
         H            9.541406794881     1.174586952770     0.501129874585     1.007825032230
         C           -7.369842089494    -2.779530681609     0.506319584427    12.000000000000
         C           -4.924603288776    -2.808422793016     0.498587951991    12.000000000000
         C           -6.166626675393    -3.516637728500     0.504889792150    12.000000000000
         C           -3.702514539430    -3.524667084795     0.508912021177    12.000000000000
         C           -2.467651164839    -2.821311498479     0.496867382820    12.000000000000
         C           -0.015137653833    -2.833127181075     0.497148971329    12.000000000000
         C           -1.247126020952    -3.534717711238     0.508712924737    12.000000000000
         C            1.209240889918    -3.547900214319     0.511251954528    12.000000000000
         C            2.437331842429    -2.847627273850     0.497112196218    12.000000000000
         C            4.894298164045    -2.861108503961     0.497932936289    12.000000000000
         C            3.664611075316    -3.564205381207     0.510812356229    12.000000000000
         C            6.128634835020    -3.582569593393     0.504158198187    12.000000000000
         C            7.339668484970    -2.858398843045     0.505673424269    12.000000000000
         H           -9.541453290984    -1.174549002339     0.505454071972     1.007825032230
         H            9.528257688346    -1.276904609579     0.505168094868     1.007825032230
         H           -8.315169223574    -3.318135388887     0.510491812958     1.007825032230
         H            8.279150962767    -3.407126325569     0.510012980251     1.007825032230
         C           -6.144998368428    -4.927632808458     0.506215790210    12.000000000000
         C           -3.706787527723    -4.941247249792     0.496394822122    12.000000000000
         C           -4.955594237727    -5.643479509169     0.504361956767    12.000000000000
         C           -2.486125505952    -5.654771110084     0.509334493166    12.000000000000
         C           -1.254062515205    -4.956107585676     0.498158887181    12.000000000000
         C            1.201008394143    -4.969265923868     0.499340011439    12.000000000000
         C           -0.030340854139    -5.669505838814     0.507183211102    12.000000000000
         C            3.653745921603    -4.980729311090     0.500098011187    12.000000000000
         C            2.425488516150    -5.681160171202     0.509474941739    12.000000000000
         C            6.091961438086    -4.993243499062     0.506452424860    12.000000000000
         C            4.894972264885    -5.696333956633     0.505216229030    12.000000000000
         H           -7.089896567766    -5.466985377914     0.510618551891     1.007825032230
         H            7.031051029475    -5.542644072008     0.510032204624     1.007825032230
         C           -4.923549501924    -7.078806635352     0.503807187862    12.000000000000
         C           -2.485346267963    -7.087713613604     0.501297295426    12.000000000000
         C           -3.751690071504    -7.763932693311     0.501491974351    12.000000000000
         C           -0.037953136713    -7.099450410144     0.501513020574    12.000000000000
         C           -1.277960280127    -7.772889920342     0.499528327812    12.000000000000
         C            2.409440141001    -7.114007547678     0.502376221385    12.000000000000
         C            1.194745757428    -7.786170901237     0.500223930503    12.000000000000
         C            4.847616872773    -7.131247646254     0.504883036044    12.000000000000
         C            3.668467426150    -7.803773528619     0.502534601680    12.000000000000
         H           -5.869944530142    -7.613816133717     0.505351224727     1.007825032230
         H            5.788245445663    -7.676317724989     0.506010155526     1.007825032230
         H           -3.753531119175    -8.851057104911     0.499656059922     1.007825032230
         H           -1.284308585620    -8.860860928172     0.495100943954     1.007825032230
         H            1.189217394970    -8.874146156264     0.496131293813     1.007825032230
         H            3.658542435098    -8.890846169728     0.500880060258     1.007825032230

  Charge       = 0
  Multiplicity = 1
  Basis Set: JUN-CC-PVDZ
    Blend: JUN-CC-PVDZ
  Basis Set: (JUN-CC-PVDZ AUX)
    Blend: JUN-CC-PVDZ-JKFIT

    Orbital Energies [Eh]
    ---------------------

    Doubly Occupied:

       1A    -11.264027     2A    -11.263710     3A    -11.263707
       4A    -11.263362     5A    -11.263359     6A    -11.263324
       7A    -11.263167     8A    -11.263143     9A    -11.263141
      10A    -11.262978    11A    -11.262820    12A    -11.262816
      13A    -11.262337    14A    -11.262334    15A    -11.262265
      16A    -11.262264    17A    -11.262209    18A    -11.262177
      19A    -11.262132    20A    -11.262095    21A    -11.262092
      22A    -11.261943    23A    -11.261938    24A    -11.261819
      25A    -11.261807    26A    -11.261790    27A    -11.261785
      28A    -11.261740    29A    -11.261731    30A    -11.261656
      31A    -11.261630    32A    -11.261626    33A    -11.261600
      34A    -11.261599    35A    -11.261578    36A    -11.261535
      37A    -11.261396    38A    -11.261385    39A    -11.261380
      40A    -11.261374    41A    -11.261366    42A    -11.261358
      43A    -11.261352    44A    -11.261337    45A    -11.261333
      46A    -11.261311    47A    -11.261305    48A    -11.261302
      49A    -11.261142    50A    -11.261111    51A    -11.261107
      52A    -11.261027    53A    -11.261026    54A    -11.260956
      55A    -11.259993    56A    -11.259981    57A    -11.259976
      58A    -11.259949    59A    -11.259945    60A    -11.259930
      61A    -11.259368    62A    -11.259344    63A    -11.259339
      64A    -11.259289    65A    -11.259285    66A    -11.259257
      67A    -11.258997    68A    -11.258980    69A    -11.258977
      70A    -11.258950    71A    -11.258946    72A    -11.258936
      73A    -11.254576    74A    -11.254575    75A    -11.254571
      76A    -11.254570    77A    -11.254566    78A    -11.254560
      79A    -11.253721    80A    -11.253720    81A    -11.253717
      82A    -11.253715    83A    -11.253713    84A    -11.253706
      85A    -11.253636    86A    -11.253635    87A    -11.253633
      88A    -11.253631    89A    -11.253628    90A    -11.253621
      91A    -11.253104    92A    -11.253103    93A    -11.253099
      94A    -11.253099    95A    -11.253093    96A    -11.253088
      97A     -1.254084    98A     -1.239108    99A     -1.239101
     100A     -1.220556   101A     -1.220549   102A     -1.215566
     103A     -1.201121   104A     -1.195688   105A     -1.188261
     106A     -1.188255   107A     -1.173840   108A     -1.173838
     109A     -1.155736   110A     -1.155733   111A     -1.152837
     112A     -1.144795   113A     -1.144793   114A     -1.128665
     115A     -1.114819   116A     -1.113237   117A     -1.112600
     118A     -1.112583   119A     -1.111687   120A     -1.088525
     121A     -1.088510   122A     -1.077033   123A     -1.077032
     124A     -1.067718   125A     -1.067686   126A     -1.065084
     127A     -1.046889   128A     -1.046880   129A     -1.040574
     130A     -1.038806   131A     -1.038805   132A     -1.025350
     133A     -1.021515   134A     -1.021461   135A     -1.007261
     136A     -1.006901   137A     -1.003879   138A     -1.000595
     139A     -1.000545   140A     -0.991143   141A     -0.971087
     142A     -0.971038   143A     -0.955963   144A     -0.955906
     145A     -0.905714   146A     -0.905675   147A     -0.905616
     148A     -0.905575   149A     -0.904467   150A     -0.892485
     151A     -0.892428   152A     -0.890475   153A     -0.890418
     154A     -0.889555   155A     -0.872293   156A     -0.869115
     157A     -0.851620   158A     -0.847971   159A     -0.847952
     160A     -0.845707   161A     -0.843115   162A     -0.834651
     163A     -0.834639   164A     -0.828188   165A     -0.828183
     166A     -0.784639   167A     -0.784629   168A     -0.783762
     169A     -0.783737   170A     -0.782382   171A     -0.782363
     172A     -0.782141   173A     -0.767077   174A     -0.760910
     175A     -0.750686   176A     -0.733559   177A     -0.727160
     178A     -0.727141   179A     -0.725178   180A     -0.724627
     181A     -0.724605   182A     -0.718611   183A     -0.713879
     184A     -0.713873   185A     -0.699663   186A     -0.699647
     187A     -0.686244   188A     -0.686032   189A     -0.686028
     190A     -0.682252   191A     -0.682242   192A     -0.678877
     193A     -0.653713   194A     -0.650960   195A     -0.650930
     196A     -0.649922   197A     -0.649910   198A     -0.649639
     199A     -0.641045   200A     -0.641013   201A     -0.640163
     202A     -0.639230   203A     -0.636122   204A     -0.636094
     205A     -0.629227   206A     -0.617730   207A     -0.615375
     208A     -0.615353   209A     -0.608882   210A     -0.608875
     211A     -0.599158   212A     -0.599145   213A     -0.598835
     214A     -0.598701   215A     -0.598683   216A     -0.598151
     217A     -0.595140   218A     -0.595128   219A     -0.594806
     220A     -0.594352   221A     -0.592049   222A     -0.592046
     223A     -0.587509   224A     -0.577855   225A     -0.577842
     226A     -0.575719   227A     -0.575712   228A     -0.573458
     229A     -0.569592   230A     -0.568251   231A     -0.568227
     232A     -0.566841   233A     -0.566832   234A     -0.560973
     235A     -0.558818   236A     -0.558792   237A     -0.558488
     238A     -0.554453   239A     -0.550612   240A     -0.547532
     241A     -0.544316   242A     -0.535019   243A     -0.535000
     244A     -0.533618   245A     -0.533597   246A     -0.528150
     247A     -0.528134   248A     -0.527906   249A     -0.517270
     250A     -0.517238   251A     -0.515402   252A     -0.515397
     253A     -0.509712   254A     -0.509697   255A     -0.498104
     256A     -0.496536   257A     -0.496504   258A     -0.493824
     259A     -0.493807   260A     -0.489469   261A     -0.481521
     262A     -0.477465   263A     -0.477463   264A     -0.474070
     265A     -0.469531   266A     -0.466610   267A     -0.466607
     268A     -0.458854   269A     -0.446805   270A     -0.446746
     271A     -0.441073   272A     -0.440805   273A     -0.440776
     274A     -0.434734   275A     -0.433952   276A     -0.407421
     277A     -0.407399   278A     -0.386459   279A     -0.386408
     280A     -0.385775   281A     -0.385775   282A     -0.383806
     283A     -0.354374   284A     -0.354356   285A     -0.350712
     286A     -0.338134   287A     -0.335635   288A     -0.335573
     289A     -0.332757   290A     -0.332752   291A     -0.307133
     292A     -0.301993   293A     -0.301935   294A     -0.300889
     295A     -0.286217   296A     -0.256507   297A     -0.253547
     298A     -0.253498   299A     -0.204308   300A     -0.204221

  @DF-RHF Final Energy: -3650.33828984377215

   => Energetics <=

    Nuclear Repulsion Energy =          15611.4211649754306563
    One-Electron Energy =              -36072.0988634381283191
    Two-Electron Energy =               16810.3394086189255177
    Total Energy =                      -3650.3382898437739641
 Dipole X            :         -0.0009179            0.0002112           -0.0007067
 Dipole Y            :          0.0011712           -0.0013774           -0.0002062
 Dipole Z            :       -570.5335886          570.5418402            0.0082516
 Magnitude           :                                                    0.0082844

    SAPT Results
  --------------------------------------------------------------------------------------------------------
    Electrostatics                 -9.20544638 [mEh]      -5.77650482 [kcal/mol]     -24.16889615 [kJ/mol]
      Elst10,r                     -9.20544638 [mEh]      -5.77650482 [kcal/mol]     -24.16889615 [kJ/mol]

    Exchange                        0.00343086 [mEh]       0.00215290 [kcal/mol]       0.00900773 [kJ/mol]
      Exch10                        0.00343086 [mEh]       0.00215290 [kcal/mol]       0.00900773 [kJ/mol]
      Exch10(S^2)                   0.00343086 [mEh]       0.00215289 [kcal/mol]       0.00900771 [kJ/mol]

    Induction                      -4.48936523 [mEh]      -2.81711921 [kcal/mol]     -11.78682678 [kJ/mol]
      Ind20,r                      -4.38142765 [mEh]      -2.74938736 [kcal/mol]     -11.50343671 [kJ/mol]
      Exch-Ind20,r                  0.00210335 [mEh]       0.00131987 [kcal/mol]       0.00552233 [kJ/mol]
      delta HF,r (2)               -0.11004093 [mEh]      -0.06905172 [kcal/mol]      -0.28891241 [kJ/mol]

    Dispersion                     -2.50223078 [mEh]      -1.57017352 [kcal/mol]      -6.56960601 [kJ/mol]
      Disp20                       -2.50322759 [mEh]      -1.57079903 [kcal/mol]      -6.57222314 [kJ/mol]
      Exch-Disp20                   0.00099681 [mEh]       0.00062551 [kcal/mol]       0.00261713 [kJ/mol]
      Disp20 (SS)                  -1.25161380 [mEh]      -0.78539951 [kcal/mol]      -3.28611157 [kJ/mol]
      Disp20 (OS)                  -1.25161380 [mEh]      -0.78539951 [kcal/mol]      -3.28611157 [kJ/mol]
      Exch-Disp20 (SS)              0.00072980 [mEh]       0.00045795 [kcal/mol]       0.00191608 [kJ/mol]
      Exch-Disp20 (OS)              0.00026702 [mEh]       0.00016756 [kcal/mol]       0.00070105 [kJ/mol]

  Total HF                        -13.69138075 [mEh]      -8.59147113 [kcal/mol]     -35.94671520 [kJ/mol]
  Total SAPT0                     -16.19361152 [mEh]     -10.16164465 [kcal/mol]     -42.51632120 [kJ/mol]

  Special recipe for scaled SAPT0 (see Manual):
    Electrostatics sSAPT0          -9.20544638 [mEh]      -5.77650482 [kcal/mol]     -24.16889615 [kJ/mol]
    Exchange sSAPT0                 0.00343086 [mEh]       0.00215290 [kcal/mol]       0.00900773 [kJ/mol]
    Induction sSAPT0               -4.48936523 [mEh]      -2.81711921 [kcal/mol]     -11.78682678 [kJ/mol]
    Dispersion sSAPT0              -2.50223078 [mEh]      -1.57017352 [kcal/mol]      -6.56960601 [kJ/mol]
  Total sSAPT0                    -16.19361152 [mEh]     -10.16164465 [kcal/mol]     -42.51632120 [kJ/mol]
  --------------------------------------------------------------------------------------------------------

*** Psi4 exiting successfully. Buy a developer a beer!
