                               Psi4 1.9 release

  ==> Input File <==

--------------------------------------------------------------------------
memory 47 GB # how much memory is available ! Depends on the nodes/cores !

molecule dimer {
# monomer A
+1 1    # Charge and multiplicity
C  0.680067 1.417258 -8.615929
C -0.680504 1.419286 -8.615545
N -1.085635 1.420284 -7.297221
C  0.000108 1.423560 -6.515820
C -2.477365 1.469690 -6.829242
N  1.085222 1.420284 -7.297221
H  1.385146 1.409430 -9.433368
H -1.385302 1.419096 -9.433214
H -0.000009 1.425307 -5.434731
C  2.478117 1.403392 -6.832123
H  2.490592 1.430737 -5.741870
H  2.967028 0.489946 -7.179299
H  3.001428 2.278875 -7.223595
H -2.857359 2.491761 -6.909201
H -3.082679 0.799606 -7.442306
H -2.518128 1.142706 -5.789294
--
# monomer B
0 1     # Charge and multiplicity
C   -3.66844126402057      7.80375217008252      0.00190004133558
C   -4.84759871934653      7.13124183134024     -0.00046653359696
C   -4.89495929917518      5.69633040353158     -0.00103944469517
C   -3.65374067877320      4.98073034095895      0.00662099703436
C   -2.40942512149445      7.11398103667468      0.00209438359570
C   -2.42547734410473      5.68112195090346     -0.00491050527438
C   -1.19474401643570      7.78614419430947      0.00356656413763
C   0.03795902893699      7.09942164575698      0.00139585983271
C   0.03033258741920      5.66948955970466     -0.00408752508301
C   -1.20098450790502      4.96927034791531      0.00488220885047
C   1.27795782581485      7.77285944319479      0.00277170839332
C   2.48535808472416      7.08769688523756      0.00049722048857
C   2.48612868491717      5.65477081024076     -0.00644052849921
C   1.25408291964399      4.95607811366431      0.00518741308898
C   3.75171459140595      7.76391215098033      0.00062407186893
C   4.92356605618520      7.07878077698995     -0.00143240883900
C   4.95560727132542      5.64344746336949     -0.00159282164606
C   3.70680153420475      4.94121020833308      0.00349873852374
H   -3.65852113775815      8.89082741913536      0.00358502958574
H   -1.18921332975660      8.87412108735996      0.00753844057883
H   1.28429423888630      8.86083343548850      0.00693053253426
H   3.75354208679975      8.85103527897216      0.00214659618464
H   5.86995870320703      7.61379483465560     -0.00235777588134
H   -5.78823170750226      7.67630221293400     -0.00202638095293
C   -6.09197395869619      4.99326001364347     -0.00291168518608
C   -6.12866148031747      3.58258016879823     -0.00171050815740
C   -3.66457974004527      3.56418217974434     -0.00463560277484
C   -4.89429820469869      2.86108077590057      0.00453338221034
C   -2.43733499489796      2.84761165708481      0.00719617576166
C   -1.20922785759670      3.54788693497833     -0.00648285103018
C   1.24714157216223      3.53468075142962     -0.00729145743546
C   0.01517603956900      2.83311183930540      0.00439272578912
C   2.46764517244071      2.82128997725533      0.00449278391269
C   3.70254947457969      3.52466015442405     -0.00899517692985
C   6.14498038638375      4.92757236613191     -0.00282626685777
C   6.16658835886151      3.51658447594213     -0.00065971342101
C   4.92460995845939      2.80840792535402      0.00587903281610
H   7.08990550964105      5.46688776622306     -0.00658814770723
H   -7.03104175110130      5.54268795285765     -0.00714490013730
C   -7.33969804112295      2.85841153457957     -0.00333767559888
C   -7.36488195805880      1.47032337158330     -0.00157213747140
C   -4.90350460894690      1.44442681216000     -0.00628840166334
C   -6.13225715261081      0.73993935705394      0.00600164231964
C   -3.67687480051673      0.72669714267312      0.00433931473643
C   -2.44565658606518      1.42964113326212     -0.00597039546461
C   -1.22360068130162      0.71532450163492      0.00545886906656
C   0.00763786931376      1.41738314923765      0.00392452278437
C   1.23121980774686      0.70211669058719     -0.01490206287210
C   2.46082110053113      1.40329203612573      0.00460244601878
C   3.68443025419614      0.68719842821222      0.00377365974158
C   4.91870890153864      1.39173456118907     -0.00862816189375
C   7.36980207796101      2.77948220318441     -0.00242013321349
C   7.38016266612146      1.39121750785509     -0.00087345036788
C   6.13979953912259      0.67411862320065      0.00545489144369
H   -8.27919079934664      3.40711804112415     -0.00763522772059
H   8.31511347147953      3.31811809662368     -0.00663070901292
C   -8.59175593758115      0.72483255304480     -0.00123170985383
C   -8.59902460370342     -0.63263980622873      0.00089141472904
C   -6.13981313911873     -0.67413663715361     -0.00609792660607
C   -7.38018411213749     -1.39126618958160      0.00131813493501
C   -4.91868448025621     -1.39175501803000      0.00624257154343
C   -3.68443829568458     -0.68723731573599     -0.00478966852105
C   -2.46081704024768     -1.40334517882457      0.00575341766833
C   -1.23116201232071     -0.70217386488055     -0.00636696112346
C   -0.00756962538737     -1.41741884941102      0.00108956317991
C   1.22364771588843     -0.71527537726392      0.01109518512883
C   2.44567064933149     -1.42964328900682     -0.00065482763106
C   3.67686670284649     -0.72670743155550     -0.00479541202602
C   6.13224884641929     -0.73997883984993     -0.00632338623858
C   4.90351914550401     -1.44445752054090      0.00751768830159
C   8.59901484869081      0.63260386666793     -0.00101133422380
C   8.59174548810050     -0.72485086719319      0.00072504603735
C   7.36486276438985     -1.47033266560598      0.00049486934466
H   -9.52830597181814      1.27684744919284     -0.00270163681798
H   9.54141097460619      1.17457248844457     -0.00206336648518
C   -7.36983790976868     -2.77954514593389      0.00312634335708
C   -4.92459910905015     -2.80843725734101     -0.00460528907921
C   -6.16662249566744     -3.51665219282533      0.00169655107992
C   -3.70251035970491     -3.52468154912026      0.00571878010666
C   -2.46764698511392     -2.82132596280400     -0.00632585824990
C   -0.01513347410770     -2.83314164539971     -0.00604426974092
C   -1.24712184122656     -3.53473217556300      0.00551968366725
C   1.20924506964357     -3.54791467864352      0.00805871345849
C   2.43733602215464     -2.84764173817541     -0.00608104485234
C   4.89430234377080     -2.86112296828604     -0.00526030478103
C   3.66461525504104     -3.56421984553201      0.00761911515957
C   6.12863901474565     -3.58258405771778      0.00096495711699
C   7.33967266469532     -2.85841330737039      0.00248018319869
H   -9.54144911125902     -1.17456346666430      0.00226083090216
H   9.52826186807155     -1.27691907390448      0.00197485379837
H   -8.31516504384864     -3.31814985321231      0.00729857188773
H   8.27915514249207     -3.40714078989363      0.00681973918158
C   -6.14499418870218     -4.92764727278338      0.00302254913999
C   -3.70678334799751     -4.94126171411716     -0.00679841894792
C   -4.95559005800169     -5.64349397349412      0.00116871569699
C   -2.48612132622665     -5.65478557440947      0.00614125209662
C   -1.25405833548005     -4.95612205000132     -0.00503435388927
C   1.20101257386816     -4.96928038819302     -0.00385322963129
C   -0.03033667441341     -5.66952030313900      0.00398997003238
C   3.65375010132847     -4.98074377541453     -0.00309522988330
C   2.42549269587528     -5.68117463552727      0.00628170066869
C   6.09196561781097     -4.99325796338655      0.00325918379042
C   4.89497644461045     -5.69634842095790      0.00202298796027
H   -7.08989238804069     -5.46699984223871      0.00742531082125
H   7.03105520920009     -5.54265853633254      0.00683896355417
C   -4.92354532219813     -7.07882109967734      0.00061394679214
C   -2.48534208823777     -7.08772807792913     -0.00189594564379
C   -3.75168589177895     -7.76394715763627     -0.00170126671874
C   -0.03794895698805     -7.09946487446944     -0.00168022049625
C   -1.27795610040136     -7.77290438466689     -0.00366491325785
C   2.40944432072629     -7.11402201200282     -0.00081701968533
C   1.19474993715296     -7.78618536556242     -0.00296931056689
C   4.84762105249800     -7.13126211057943      0.00168979497423
C   3.66847160587561     -7.80378799294376     -0.00065863938960
H   -5.86994035041618     -7.61383059804164      0.00215798365757
H   5.78824962538815     -7.67633218931421      0.00281691445618
H   -3.75352693944918     -8.85107156923607     -0.00353718114765
H   -1.28430440589466     -8.86087539249706     -0.00809229711623
H   1.18922157469537     -8.87416062058945     -0.00706194725726
H   3.65854661482387     -8.89086063405326     -0.00231318081200

    units angstrom      # Angstroms are the default
    no_reorient         # Geometry fixed, default
    symmetry c1         # C1 symmetry, default
}

set {
    scf_type DF         # Density fitting, faster than exact integrals
    freeze_core True    # Freeze core electrons
    basis jun-cc-pVDZ   # Jun-cc-pVDZ basis set, recommended for sSAPT0 in https://doi.org/10.1063/1.4867135
}

energy('ssapt0')        # Compute sSAPT0 energy, includes also SAPT0
--------------------------------------------------------------------------

  //              Dimer HF             //
    Molecular point group: c1
  Charge       = 1
  Multiplicity = 1
  Basis Set: JUN-CC-PVDZ
    Blend: JUN-CC-PVDZ
  Basis Set: (JUN-CC-PVDZ AUX)
    Blend: JUN-CC-PVDZ-JKFIT
  @DF-RHF Final Energy: -3953.64626801832583
    Total Energy =                      -3953.6462680183249176
 Dipole X            :         -0.0024272            0.0004804           -0.0019468
 Dipole Y            :         -6.8331402            8.7122315            1.8790913
 Dipole Z            :         31.6302798          -43.0554821          -11.4252023
 Magnitude           :                                                   11.5786975
  //            Monomer A HF           //
    Molecular point group: c1
  Multiplicity = 1
  Basis Set: JUN-CC-PVDZ
    Blend: JUN-CC-PVDZ
  Basis Set: (JUN-CC-PVDZ AUX)
    Blend: JUN-CC-PVDZ-JKFIT
  @DF-RHF Final Energy:  -303.29723598189196
    Total Energy =                       -303.2972359818919585
  //            Monomer B HF           //
    Molecular point group: c1

    Geometry (in Angstrom), charge = 0, multiplicity = 1:

       Center              X                  Y                   Z               Mass
    ------------   -----------------  -----------------  -----------------  -----------------
      Gh(C)           0.680062820275     1.308604348936    -8.051741938463    12.000000000000
      Gh(C)          -0.680508179725     1.310632348936    -8.051357938463    12.000000000000
      Gh(N)          -1.085639179725     1.311630348936    -6.733033938463    14.003074004430
      Gh(C)           0.000103820275     1.314906348936    -5.951632938463    12.000000000000
      Gh(C)          -2.477369179725     1.361036348936    -6.265054938463    12.000000000000
      Gh(N)           1.085217820275     1.311630348936    -6.733033938463    14.003074004430
      Gh(H)           1.385141820275     1.300776348936    -8.869180938463     1.007825032230
      Gh(H)          -1.385306179725     1.310442348936    -8.869026938463     1.007825032230
      Gh(H)          -0.000013179725     1.316653348936    -4.870543938463     1.007825032230
      Gh(C)           2.478112820275     1.294738348936    -6.267935938463    12.000000000000
      Gh(H)           2.490587820275     1.322083348936    -5.177682938463     1.007825032230
      Gh(H)           2.967023820275     0.381292348936    -6.615111938463     1.007825032230
      Gh(H)           3.001423820275     2.170221348936    -6.659407938463     1.007825032230
      Gh(H)          -2.857363179725     2.383107348936    -6.345013938463     1.007825032230
      Gh(H)          -3.082683179725     0.690952348936    -6.878118938463     1.007825032230
      Gh(H)          -2.518132179725     1.034052348936    -5.225106938463     1.007825032230
         C           -3.668445443746     7.695098519018     0.566087102872    12.000000000000
         C           -4.847602899072     7.022588180276     0.563720527940    12.000000000000
         C           -4.894963478901     5.587676752467     0.563147616842    12.000000000000
         C           -3.653744858499     4.872076689895     0.570808058571    12.000000000000
         C           -2.409429301220     7.005327385610     0.566281445133    12.000000000000
         C           -2.425481523830     5.572468299839     0.559276556262    12.000000000000
         C           -1.194748196161     7.677490543245     0.567753625674    12.000000000000
         C            0.037954849212     6.990767994693     0.565582921370    12.000000000000
         C            0.030328407694     5.560835908640     0.560099536454    12.000000000000
         C           -1.200988687630     4.860616696851     0.569069270387    12.000000000000
         C            1.277953646089     7.664205792130     0.566958769930    12.000000000000
         C            2.485353904999     6.979043234173     0.564684282025    12.000000000000
         C            2.486124505192     5.546117159176     0.557746533038    12.000000000000
         C            1.254078739919     4.847424462600     0.569374474626    12.000000000000
         C            3.751710411681     7.655258499916     0.564811133406    12.000000000000
         C            4.923561876460     6.970127125926     0.562754652698    12.000000000000
         C            4.955603091600     5.534793812305     0.562594239891    12.000000000000
         C            3.706797354479     4.832556557269     0.567685800061    12.000000000000
         H           -3.658525317484     8.782173768071     0.567772091123     1.007825032230
         H           -1.189217509482     8.765467436296     0.571725502116     1.007825032230
         H            1.284290059161     8.752179784424     0.571117594071     1.007825032230
         H            3.753537907074     8.742381627908     0.566333657721     1.007825032230
         H            5.869954523482     7.505141183591     0.561829285655     1.007825032230
         H           -5.788235887228     7.567648561870     0.562160680584     1.007825032230
         C           -6.091978138422     4.884606362579     0.561275376351    12.000000000000
         C           -6.128665660043     3.473926517734     0.562476553379    12.000000000000
         C           -3.664583919771     3.455528528680     0.559551458762    12.000000000000
         C           -4.894302384424     2.752427124836     0.568720443747    12.000000000000
         C           -2.437339174623     2.738958006020     0.571383237298    12.000000000000
         C           -1.209232037322     3.439233283914     0.557704210507    12.000000000000
         C            1.247137392437     3.426027100365     0.556895604101    12.000000000000
         C            0.015171859844     2.724458188241     0.568579787326    12.000000000000
         C            2.467640992715     2.712636326191     0.568679845449    12.000000000000
         C            3.702545294854     3.416006503360     0.555191884607    12.000000000000
         C            6.144976206658     4.818918715067     0.561360794679    12.000000000000
         C            6.166584179136     3.407930824878     0.563527348116    12.000000000000
         C            4.924605778734     2.699754274290     0.570066094353    12.000000000000
         H            7.089901329916     5.358234115159     0.557598913830     1.007825032230
         H           -7.031045930827     5.434034301793     0.557042161400     1.007825032230
         C           -7.339702220848     2.749757883515     0.560849385938    12.000000000000
         C           -7.364886137784     1.361669720519     0.562614924065    12.000000000000
         C           -4.903508788672     1.335773161096     0.557898659873    12.000000000000
         C           -6.132261332336     0.631285705989     0.570188703856    12.000000000000
         C           -3.676878980242     0.618043491609     0.568526376273    12.000000000000
         C           -2.445660765791     1.320987482198     0.558216666072    12.000000000000
         C           -1.223604861027     0.606670850570     0.569645930603    12.000000000000
         C            0.007633689588     1.308729498173     0.568111584321    12.000000000000
         C            1.231215628021     0.593463039523     0.549284998665    12.000000000000
         C            2.460816920806     1.294638385061     0.568789507556    12.000000000000
         C            3.684426074471     0.578544777148     0.567960721278    12.000000000000
         C            4.918704721813     1.283080910125     0.555558899643    12.000000000000
         C            7.369797898236     2.670828552120     0.561766928323    12.000000000000
         C            7.380158486396     1.282563856791     0.563313611169    12.000000000000
         C            6.139795359397     0.565464972136     0.569641952980    12.000000000000
         H           -8.279194979072     3.298464390060     0.556551833816     1.007825032230
         H            8.315109291754     3.209464445559     0.557556352524     1.007825032230
         C           -8.591760117307     0.616178901980     0.562955351683    12.000000000000
         C           -8.599028783429    -0.741293457293     0.565078476266    12.000000000000
         C           -6.139817318844    -0.782790288218     0.558089134931    12.000000000000
         C           -7.380188291863    -1.499919840646     0.565505196472    12.000000000000
         C           -4.918688659982    -1.500408669094     0.570429633080    12.000000000000
         C           -3.684442475410    -0.795890966800     0.559397393016    12.000000000000
         C           -2.460821219973    -1.511998829889     0.569940479205    12.000000000000
         C           -1.231166192046    -0.810827515945     0.557820100413    12.000000000000
         C           -0.007573805113    -1.526072500475     0.565276624717    12.000000000000
         C            1.223643536163    -0.823929028328     0.575282246666    12.000000000000
         C            2.445666469606    -1.538296940071     0.563532233906    12.000000000000
         C            3.676862523121    -0.835361082620     0.559391649511    12.000000000000
         C            6.132244666694    -0.848632490914     0.557863675298    12.000000000000
         C            4.903514965779    -1.553111171605     0.571704749838    12.000000000000
         C            8.599010668965     0.523950215603     0.563175727313    12.000000000000
         C            8.591741308375    -0.833504518258     0.564912107574    12.000000000000
         C            7.364858584664    -1.578986316670     0.564681930881    12.000000000000
         H           -9.528310151544     1.168193798128     0.561485424719     1.007825032230
         H            9.541406794881     1.065918837380     0.562123695052     1.007825032230
         C           -7.369842089494    -2.888198796998     0.567313404894    12.000000000000
         C           -4.924603288776    -2.917090908405     0.559581772458    12.000000000000
         C           -6.166626675393    -3.625305843890     0.565883612617    12.000000000000
         C           -3.702514539430    -3.633335200185     0.569905841643    12.000000000000
         C           -2.467651164839    -2.929979613868     0.557861203287    12.000000000000
         C           -0.015137653833    -2.941795296464     0.558142791796    12.000000000000
         C           -1.247126020952    -3.643385826627     0.569706745204    12.000000000000
         C            1.209240889918    -3.656568329708     0.572245774995    12.000000000000
         C            2.437331842429    -2.956295389240     0.558106016684    12.000000000000
         C            4.894298164045    -2.969776619350     0.558926756756    12.000000000000
         C            3.664611075316    -3.672873496596     0.571806176696    12.000000000000
         C            6.128634835020    -3.691237708782     0.565152018654    12.000000000000
         C            7.339668484970    -2.967066958435     0.566667244735    12.000000000000
         H           -9.541453290984    -1.283217117729     0.566447892439     1.007825032230
         H            9.528257688346    -1.385572724969     0.566161915335     1.007825032230
         H           -8.315169223574    -3.426803504277     0.571485633425     1.007825032230
         H            8.279150962767    -3.515794440958     0.571006800718     1.007825032230
         C           -6.144998368428    -5.036300923848     0.567209610677    12.000000000000
         C           -3.706787527723    -5.049915365182     0.557388642589    12.000000000000
         C           -4.955594237727    -5.752147624559     0.565355777234    12.000000000000
         C           -2.486125505952    -5.763439225474     0.570328313633    12.000000000000
         C           -1.254062515205    -5.064775701066     0.559152707648    12.000000000000
         C            1.201008394143    -5.077934039257     0.560333831906    12.000000000000
         C           -0.030340854139    -5.778173954203     0.568177031569    12.000000000000
         C            3.653745921603    -5.089397426479     0.561091831654    12.000000000000
         C            2.425488516150    -5.789828286592     0.570468762205    12.000000000000
         C            6.091961438086    -5.101911614451     0.567446245327    12.000000000000
         C            4.894972264885    -5.805002072022     0.566210049497    12.000000000000
         H           -7.089896567766    -5.575653493303     0.571612372358     1.007825032230
         H            7.031051029475    -5.651312187397     0.571026025091     1.007825032230
         C           -4.923549501924    -7.187474750742     0.564801008329    12.000000000000
         C           -2.485346267963    -7.196381728994     0.562291115893    12.000000000000
         C           -3.751690071504    -7.872600808701     0.562485794818    12.000000000000
         C           -0.037953136713    -7.208118525534     0.562506841041    12.000000000000
         C           -1.277960280127    -7.881558035731     0.560522148279    12.000000000000
         C            2.409440141001    -7.222675663067     0.563370041851    12.000000000000
         C            1.194745757428    -7.894839016627     0.561217750970    12.000000000000
         C            4.847616872773    -7.239915761644     0.565876856511    12.000000000000
         C            3.668467426150    -7.912441644008     0.563528422147    12.000000000000
         H           -5.869944530142    -7.722484249106     0.566345045194     1.007825032230
         H            5.788245445663    -7.784985840379     0.567003975993     1.007825032230
         H           -3.753531119175    -8.959725220301     0.560649880389     1.007825032230
         H           -1.284308585620    -8.969529043562     0.556094764421     1.007825032230
         H            1.189217394970    -8.982814271654     0.557125114280     1.007825032230
         H            3.658542435098    -8.999514285118     0.561873880725     1.007825032230

  Charge       = 0
  Multiplicity = 1
  Basis Set: JUN-CC-PVDZ
    Blend: JUN-CC-PVDZ
  Basis Set: (JUN-CC-PVDZ AUX)
    Blend: JUN-CC-PVDZ-JKFIT

    Orbital Energies [Eh]
    ---------------------

    Doubly Occupied:

       1A    -11.264042     2A    -11.263728     3A    -11.263726
       4A    -11.263385     5A    -11.263382     6A    -11.263347
       7A    -11.263190     8A    -11.263164     9A    -11.263161
      10A    -11.263004    11A    -11.262846    12A    -11.262839
      13A    -11.262363    14A    -11.262358    15A    -11.262285
      16A    -11.262285    17A    -11.262234    18A    -11.262199
      19A    -11.262154    20A    -11.262116    21A    -11.262114
      22A    -11.261961    23A    -11.261957    24A    -11.261838
      25A    -11.261824    26A    -11.261809    27A    -11.261805
      28A    -11.261758    29A    -11.261750    30A    -11.261677
      31A    -11.261651    32A    -11.261647    33A    -11.261621
      34A    -11.261620    35A    -11.261599    36A    -11.261551
      37A    -11.261414    38A    -11.261403    39A    -11.261396
      40A    -11.261389    41A    -11.261384    42A    -11.261375
      43A    -11.261371    44A    -11.261357    45A    -11.261352
      46A    -11.261330    47A    -11.261325    48A    -11.261320
      49A    -11.261166    50A    -11.261135    51A    -11.261132
      52A    -11.261052    53A    -11.261050    54A    -11.260980
      55A    -11.260014    56A    -11.260000    57A    -11.259997
      58A    -11.259968    59A    -11.259967    60A    -11.259950
      61A    -11.259391    62A    -11.259365    63A    -11.259363
      64A    -11.259311    65A    -11.259309    66A    -11.259280
      67A    -11.259018    68A    -11.259000    69A    -11.258998
      70A    -11.258970    71A    -11.258969    72A    -11.258956
      73A    -11.254589    74A    -11.254588    75A    -11.254586
      76A    -11.254585    77A    -11.254578    78A    -11.254576
      79A    -11.253739    80A    -11.253737    81A    -11.253735
      82A    -11.253732    83A    -11.253732    84A    -11.253724
      85A    -11.253655    86A    -11.253652    87A    -11.253650
      88A    -11.253648    89A    -11.253647    90A    -11.253639
      91A    -11.253116    92A    -11.253116    93A    -11.253114
      94A    -11.253113    95A    -11.253105    96A    -11.253104
      97A     -1.254128    98A     -1.239137    99A     -1.239137
     100A     -1.220581   101A     -1.220577   102A     -1.215605
     103A     -1.201144   104A     -1.195713   105A     -1.188295
     106A     -1.188294   107A     -1.173863   108A     -1.173860
     109A     -1.155769   110A     -1.155766   111A     -1.152874
     112A     -1.144817   113A     -1.144814   114A     -1.128693
     115A     -1.114851   116A     -1.113258   117A     -1.112635
     118A     -1.112621   119A     -1.111707   120A     -1.088555
     121A     -1.088540   122A     -1.077055   123A     -1.077053
     124A     -1.067748   125A     -1.067718   126A     -1.065118
     127A     -1.046914   128A     -1.046907   129A     -1.040602
     130A     -1.038827   131A     -1.038827   132A     -1.025385
     133A     -1.021555   134A     -1.021505   135A     -1.007286
     136A     -1.006929   137A     -1.003906   138A     -1.000628
     139A     -1.000580   140A     -0.991163   141A     -0.971117
     142A     -0.971069   143A     -0.955987   144A     -0.955931
     145A     -0.905755   146A     -0.905713   147A     -0.905635
     148A     -0.905595   149A     -0.904510   150A     -0.892525
     151A     -0.892466   152A     -0.890511   153A     -0.890454
     154A     -0.889587   155A     -0.872316   156A     -0.869132
     157A     -0.851645   158A     -0.848007   159A     -0.847985
     160A     -0.845742   161A     -0.843147   162A     -0.834679
     163A     -0.834666   164A     -0.828209   165A     -0.828205
     166A     -0.784669   167A     -0.784657   168A     -0.783795
     169A     -0.783768   170A     -0.782414   171A     -0.782394
     172A     -0.782176   173A     -0.767103   174A     -0.760948
     175A     -0.750724   176A     -0.733582   177A     -0.727186
     178A     -0.727172   179A     -0.725209   180A     -0.724652
     181A     -0.724634   182A     -0.718651   183A     -0.713915
     184A     -0.713909   185A     -0.699688   186A     -0.699676
     187A     -0.686284   188A     -0.686055   189A     -0.686052
     190A     -0.682277   191A     -0.682267   192A     -0.678910
     193A     -0.653741   194A     -0.650989   195A     -0.650959
     196A     -0.649961   197A     -0.649945   198A     -0.649663
     199A     -0.641080   200A     -0.641053   201A     -0.640187
     202A     -0.639252   203A     -0.636154   204A     -0.636128
     205A     -0.629256   206A     -0.617686   207A     -0.615397
     208A     -0.615377   209A     -0.608908   210A     -0.608901
     211A     -0.599181   212A     -0.599145   213A     -0.598865
     214A     -0.598738   215A     -0.598712   216A     -0.598190
     217A     -0.595164   218A     -0.595151   219A     -0.594835
     220A     -0.594392   221A     -0.592081   222A     -0.592078
     223A     -0.587549   224A     -0.577872   225A     -0.577862
     226A     -0.575732   227A     -0.575727   228A     -0.573483
     229A     -0.569573   230A     -0.568288   231A     -0.568264
     232A     -0.566871   233A     -0.566861   234A     -0.560992
     235A     -0.558848   236A     -0.558829   237A     -0.558508
     238A     -0.554482   239A     -0.550625   240A     -0.547551
     241A     -0.544335   242A     -0.535034   243A     -0.535001
     244A     -0.533646   245A     -0.533624   246A     -0.528174
     247A     -0.528159   248A     -0.527946   249A     -0.517308
     250A     -0.517274   251A     -0.515419   252A     -0.515414
     253A     -0.509736   254A     -0.509720   255A     -0.498130
     256A     -0.496562   257A     -0.496535   258A     -0.493837
     259A     -0.493828   260A     -0.489472   261A     -0.481545
     262A     -0.477482   263A     -0.477479   264A     -0.474096
     265A     -0.469563   266A     -0.466641   267A     -0.466636
     268A     -0.458870   269A     -0.446848   270A     -0.446788
     271A     -0.441093   272A     -0.440820   273A     -0.440795
     274A     -0.434750   275A     -0.433967   276A     -0.407441
     277A     -0.407418   278A     -0.386478   279A     -0.386430
     280A     -0.385791   281A     -0.385790   282A     -0.383822
     283A     -0.354393   284A     -0.354376   285A     -0.350730
     286A     -0.338160   287A     -0.335659   288A     -0.335592
     289A     -0.332774   290A     -0.332768   291A     -0.307156
     292A     -0.302017   293A     -0.301957   294A     -0.300906
     295A     -0.286235   296A     -0.256522   297A     -0.253569
     298A     -0.253518   299A     -0.204328   300A     -0.204240

  @DF-RHF Final Energy: -3650.33783481416640

   => Energetics <=

    Nuclear Repulsion Energy =          15611.4211649754306563
    One-Electron Energy =              -36072.0834221536715631
    Two-Electron Energy =               16810.3244223640758719
    Total Energy =                      -3650.3378348141668539
 Dipole X            :         -0.0009261            0.0002112           -0.0007149
 Dipole Y            :        123.2133925         -123.2131634            0.0002291
 Dipole Z            :       -639.6939797          639.6988098            0.0048301
 Magnitude           :                                                    0.0048881

    SAPT Results
  --------------------------------------------------------------------------------------------------------
    Electrostatics                 -8.05389141 [mEh]      -5.05389316 [kcal/mol]     -21.14548899 [kJ/mol]
      Elst10,r                     -8.05389141 [mEh]      -5.05389316 [kcal/mol]     -21.14548899 [kJ/mol]

    Exchange                       -0.00013763 [mEh]      -0.00008637 [kcal/mol]      -0.00036135 [kJ/mol]
      Exch10                       -0.00013763 [mEh]      -0.00008637 [kcal/mol]      -0.00036135 [kJ/mol]
      Exch10(S^2)                  -0.00013763 [mEh]      -0.00008637 [kcal/mol]      -0.00036135 [kJ/mol]

    Induction                      -3.14319322 [mEh]      -1.97238353 [kcal/mol]      -8.25245267 [kJ/mol]
      Ind20,r                      -3.08903894 [mEh]      -1.93840120 [kcal/mol]      -8.11027062 [kJ/mol]
      Exch-Ind20,r                  0.00048493 [mEh]       0.00030430 [kcal/mol]       0.00127317 [kJ/mol]
      delta HF,r (2)               -0.05463921 [mEh]      -0.03428662 [kcal/mol]      -0.14345522 [kJ/mol]

    Dispersion                     -1.41358568 [mEh]      -0.88703841 [kcal/mol]      -3.71136869 [kJ/mol]
      Disp20                       -1.41373712 [mEh]      -0.88713344 [kcal/mol]      -3.71176629 [kJ/mol]
      Exch-Disp20                   0.00015144 [mEh]       0.00009503 [kcal/mol]       0.00039760 [kJ/mol]
      Disp20 (SS)                  -0.70686856 [mEh]      -0.44356672 [kcal/mol]      -1.85588315 [kJ/mol]
      Disp20 (OS)                  -0.70686856 [mEh]      -0.44356672 [kcal/mol]      -1.85588315 [kJ/mol]
      Exch-Disp20 (SS)              0.00011423 [mEh]       0.00007168 [kcal/mol]       0.00029990 [kJ/mol]
      Exch-Disp20 (OS)              0.00003721 [mEh]       0.00002335 [kcal/mol]       0.00009770 [kJ/mol]

  Total HF                        -11.19722227 [mEh]      -7.02636305 [kcal/mol]     -29.39830301 [kJ/mol]
  Total SAPT0                     -12.61080795 [mEh]      -7.91340146 [kcal/mol]     -33.10967171 [kJ/mol]

  Special recipe for scaled SAPT0 (see Manual):
    Electrostatics sSAPT0          -8.05389141 [mEh]      -5.05389316 [kcal/mol]     -21.14548899 [kJ/mol]
    Exchange sSAPT0                -0.00013763 [mEh]      -0.00008637 [kcal/mol]      -0.00036135 [kJ/mol]
    Induction sSAPT0               -3.14319322 [mEh]      -1.97238353 [kcal/mol]      -8.25245267 [kJ/mol]
    Dispersion sSAPT0              -1.41358568 [mEh]      -0.88703841 [kcal/mol]      -3.71136869 [kJ/mol]
  Total sSAPT0                    -12.61080795 [mEh]      -7.91340146 [kcal/mol]     -33.10967171 [kJ/mol]
  --------------------------------------------------------------------------------------------------------

*** Psi4 exiting successfully. Buy a developer a beer!
