                               Psi4 1.9 release

  ==> Input File <==

--------------------------------------------------------------------------
memory 80 GB # how much memory is available ! Depends on the nodes/cores !

molecule dimer {
# monomer A
+1 1    # Charge and multiplicity
C  0.680067 1.417258 -5.915929
C -0.680504 1.419286 -5.915545
N -1.085635 1.420284 -4.597221
C  0.000108 1.423560 -3.815820
C -2.477365 1.469690 -4.129242
N  1.085222 1.420284 -4.597221
H  1.385146 1.409430 -6.733368
H -1.385302 1.419096 -6.733214
H -0.000009 1.425307 -2.734731
C  2.478117 1.403392 -4.132123
H  2.490592 1.430737 -3.041870
H  2.967028 0.489946 -4.479299
H  3.001428 2.278875 -4.523595
H -2.857359 2.491761 -4.209201
H -3.082679 0.799606 -4.742306
H -2.518128 1.142706 -3.089294
--
# monomer B
0 1     # Charge and multiplicity
C   -3.66844126402057      7.80375217008252      0.00190004133558
C   -4.84759871934653      7.13124183134024     -0.00046653359696
C   -4.89495929917518      5.69633040353158     -0.00103944469517
C   -3.65374067877320      4.98073034095895      0.00662099703436
C   -2.40942512149445      7.11398103667468      0.00209438359570
C   -2.42547734410473      5.68112195090346     -0.00491050527438
C   -1.19474401643570      7.78614419430947      0.00356656413763
C   0.03795902893699      7.09942164575698      0.00139585983271
C   0.03033258741920      5.66948955970466     -0.00408752508301
C   -1.20098450790502      4.96927034791531      0.00488220885047
C   1.27795782581485      7.77285944319479      0.00277170839332
C   2.48535808472416      7.08769688523756      0.00049722048857
C   2.48612868491717      5.65477081024076     -0.00644052849921
C   1.25408291964399      4.95607811366431      0.00518741308898
C   3.75171459140595      7.76391215098033      0.00062407186893
C   4.92356605618520      7.07878077698995     -0.00143240883900
C   4.95560727132542      5.64344746336949     -0.00159282164606
C   3.70680153420475      4.94121020833308      0.00349873852374
H   -3.65852113775815      8.89082741913536      0.00358502958574
H   -1.18921332975660      8.87412108735996      0.00753844057883
H   1.28429423888630      8.86083343548850      0.00693053253426
H   3.75354208679975      8.85103527897216      0.00214659618464
H   5.86995870320703      7.61379483465560     -0.00235777588134
H   -5.78823170750226      7.67630221293400     -0.00202638095293
C   -6.09197395869619      4.99326001364347     -0.00291168518608
C   -6.12866148031747      3.58258016879823     -0.00171050815740
C   -3.66457974004527      3.56418217974434     -0.00463560277484
C   -4.89429820469869      2.86108077590057      0.00453338221034
C   -2.43733499489796      2.84761165708481      0.00719617576166
C   -1.20922785759670      3.54788693497833     -0.00648285103018
C   1.24714157216223      3.53468075142962     -0.00729145743546
C   0.01517603956900      2.83311183930540      0.00439272578912
C   2.46764517244071      2.82128997725533      0.00449278391269
C   3.70254947457969      3.52466015442405     -0.00899517692985
C   6.14498038638375      4.92757236613191     -0.00282626685777
C   6.16658835886151      3.51658447594213     -0.00065971342101
C   4.92460995845939      2.80840792535402      0.00587903281610
H   7.08990550964105      5.46688776622306     -0.00658814770723
H   -7.03104175110130      5.54268795285765     -0.00714490013730
C   -7.33969804112295      2.85841153457957     -0.00333767559888
C   -7.36488195805880      1.47032337158330     -0.00157213747140
C   -4.90350460894690      1.44442681216000     -0.00628840166334
C   -6.13225715261081      0.73993935705394      0.00600164231964
C   -3.67687480051673      0.72669714267312      0.00433931473643
C   -2.44565658606518      1.42964113326212     -0.00597039546461
C   -1.22360068130162      0.71532450163492      0.00545886906656
C   0.00763786931376      1.41738314923765      0.00392452278437
C   1.23121980774686      0.70211669058719     -0.01490206287210
C   2.46082110053113      1.40329203612573      0.00460244601878
C   3.68443025419614      0.68719842821222      0.00377365974158
C   4.91870890153864      1.39173456118907     -0.00862816189375
C   7.36980207796101      2.77948220318441     -0.00242013321349
C   7.38016266612146      1.39121750785509     -0.00087345036788
C   6.13979953912259      0.67411862320065      0.00545489144369
H   -8.27919079934664      3.40711804112415     -0.00763522772059
H   8.31511347147953      3.31811809662368     -0.00663070901292
C   -8.59175593758115      0.72483255304480     -0.00123170985383
C   -8.59902460370342     -0.63263980622873      0.00089141472904
C   -6.13981313911873     -0.67413663715361     -0.00609792660607
C   -7.38018411213749     -1.39126618958160      0.00131813493501
C   -4.91868448025621     -1.39175501803000      0.00624257154343
C   -3.68443829568458     -0.68723731573599     -0.00478966852105
C   -2.46081704024768     -1.40334517882457      0.00575341766833
C   -1.23116201232071     -0.70217386488055     -0.00636696112346
C   -0.00756962538737     -1.41741884941102      0.00108956317991
C   1.22364771588843     -0.71527537726392      0.01109518512883
C   2.44567064933149     -1.42964328900682     -0.00065482763106
C   3.67686670284649     -0.72670743155550     -0.00479541202602
C   6.13224884641929     -0.73997883984993     -0.00632338623858
C   4.90351914550401     -1.44445752054090      0.00751768830159
C   8.59901484869081      0.63260386666793     -0.00101133422380
C   8.59174548810050     -0.72485086719319      0.00072504603735
C   7.36486276438985     -1.47033266560598      0.00049486934466
H   -9.52830597181814      1.27684744919284     -0.00270163681798
H   9.54141097460619      1.17457248844457     -0.00206336648518
C   -7.36983790976868     -2.77954514593389      0.00312634335708
C   -4.92459910905015     -2.80843725734101     -0.00460528907921
C   -6.16662249566744     -3.51665219282533      0.00169655107992
C   -3.70251035970491     -3.52468154912026      0.00571878010666
C   -2.46764698511392     -2.82132596280400     -0.00632585824990
C   -0.01513347410770     -2.83314164539971     -0.00604426974092
C   -1.24712184122656     -3.53473217556300      0.00551968366725
C   1.20924506964357     -3.54791467864352      0.00805871345849
C   2.43733602215464     -2.84764173817541     -0.00608104485234
C   4.89430234377080     -2.86112296828604     -0.00526030478103
C   3.66461525504104     -3.56421984553201      0.00761911515957
C   6.12863901474565     -3.58258405771778      0.00096495711699
C   7.33967266469532     -2.85841330737039      0.00248018319869
H   -9.54144911125902     -1.17456346666430      0.00226083090216
H   9.52826186807155     -1.27691907390448      0.00197485379837
H   -8.31516504384864     -3.31814985321231      0.00729857188773
H   8.27915514249207     -3.40714078989363      0.00681973918158
C   -6.14499418870218     -4.92764727278338      0.00302254913999
C   -3.70678334799751     -4.94126171411716     -0.00679841894792
C   -4.95559005800169     -5.64349397349412      0.00116871569699
C   -2.48612132622665     -5.65478557440947      0.00614125209662
C   -1.25405833548005     -4.95612205000132     -0.00503435388927
C   1.20101257386816     -4.96928038819302     -0.00385322963129
C   -0.03033667441341     -5.66952030313900      0.00398997003238
C   3.65375010132847     -4.98074377541453     -0.00309522988330
C   2.42549269587528     -5.68117463552727      0.00628170066869
C   6.09196561781097     -4.99325796338655      0.00325918379042
C   4.89497644461045     -5.69634842095790      0.00202298796027
H   -7.08989238804069     -5.46699984223871      0.00742531082125
H   7.03105520920009     -5.54265853633254      0.00683896355417
C   -4.92354532219813     -7.07882109967734      0.00061394679214
C   -2.48534208823777     -7.08772807792913     -0.00189594564379
C   -3.75168589177895     -7.76394715763627     -0.00170126671874
C   -0.03794895698805     -7.09946487446944     -0.00168022049625
C   -1.27795610040136     -7.77290438466689     -0.00366491325785
C   2.40944432072629     -7.11402201200282     -0.00081701968533
C   1.19474993715296     -7.78618536556242     -0.00296931056689
C   4.84762105249800     -7.13126211057943      0.00168979497423
C   3.66847160587561     -7.80378799294376     -0.00065863938960
H   -5.86994035041618     -7.61383059804164      0.00215798365757
H   5.78824962538815     -7.67633218931421      0.00281691445618
H   -3.75352693944918     -8.85107156923607     -0.00353718114765
H   -1.28430440589466     -8.86087539249706     -0.00809229711623
H   1.18922157469537     -8.87416062058945     -0.00706194725726
H   3.65854661482387     -8.89086063405326     -0.00231318081200

    units angstrom      # Angstroms are the default
    no_reorient         # Geometry fixed, default
    symmetry c1         # C1 symmetry, default
}

set {
    scf_type DF         # Density fitting, faster than exact integrals
    freeze_core True    # Freeze core electrons
    basis jun-cc-pVDZ   # Jun-cc-pVDZ basis set, recommended for sSAPT0 in https://doi.org/10.1063/1.4867135
}

energy('ssapt0')        # Compute sSAPT0 energy, includes also SAPT0
--------------------------------------------------------------------------

  //              Dimer HF             //
    Molecular point group: c1
  Charge       = 1
  Multiplicity = 1
  Basis Set: JUN-CC-PVDZ
    Blend: JUN-CC-PVDZ
  Basis Set: (JUN-CC-PVDZ AUX)
    Blend: JUN-CC-PVDZ-JKFIT
  @DF-RHF Final Energy: -3953.66095256187600
    Total Energy =                      -3953.6609525618769112
 Dipole X            :         -0.0041659            0.0004804           -0.0036855
 Dipole Y            :         -7.2336687            8.7122315            1.4785628
 Dipole Z            :         20.5728623          -26.6578675           -6.0850052
 Magnitude           :                                                    6.2620644
  //            Monomer A HF           //
    Molecular point group: c1
  Multiplicity = 1
  Basis Set: JUN-CC-PVDZ
    Blend: JUN-CC-PVDZ
  Basis Set: (JUN-CC-PVDZ AUX)
    Blend: JUN-CC-PVDZ-JKFIT
  @DF-RHF Final Energy:  -303.29805794056529
    Total Energy =                       -303.2980579405652861
  //            Monomer B HF           //
    Molecular point group: c1

    Geometry (in Angstrom), charge = 0, multiplicity = 1:

       Center              X                  Y                   Z               Mass
    ------------   -----------------  -----------------  -----------------  -----------------
      Gh(C)           0.680062820275     1.308604348936    -5.557596082539    12.000000000000
      Gh(C)          -0.680508179725     1.310632348936    -5.557212082539    12.000000000000
      Gh(N)          -1.085639179725     1.311630348936    -4.238888082539    14.003074004430
      Gh(C)           0.000103820275     1.314906348936    -3.457487082539    12.000000000000
      Gh(C)          -2.477369179725     1.361036348936    -3.770909082539    12.000000000000
      Gh(N)           1.085217820275     1.311630348936    -4.238888082539    14.003074004430
      Gh(H)           1.385141820275     1.300776348936    -6.375035082539     1.007825032230
      Gh(H)          -1.385306179725     1.310442348936    -6.374881082539     1.007825032230
      Gh(H)          -0.000013179725     1.316653348936    -2.376398082539     1.007825032230
      Gh(C)           2.478112820275     1.294738348936    -3.773790082539    12.000000000000
      Gh(H)           2.490587820275     1.322083348936    -2.683537082539     1.007825032230
      Gh(H)           2.967023820275     0.381292348936    -4.120966082539     1.007825032230
      Gh(H)           3.001423820275     2.170221348936    -4.165262082539     1.007825032230
      Gh(H)          -2.857363179725     2.383107348936    -3.850868082539     1.007825032230
      Gh(H)          -3.082683179725     0.690952348936    -4.383973082539     1.007825032230
      Gh(H)          -2.518132179725     1.034052348936    -2.730961082539     1.007825032230
         C           -3.668445443746     7.695098519018     0.360232958796    12.000000000000
         C           -4.847602899072     7.022588180276     0.357866383864    12.000000000000
         C           -4.894963478901     5.587676752467     0.357293472766    12.000000000000
         C           -3.653744858499     4.872076689895     0.364953914495    12.000000000000
         C           -2.409429301220     7.005327385610     0.360427301057    12.000000000000
         C           -2.425481523830     5.572468299839     0.353422412186    12.000000000000
         C           -1.194748196161     7.677490543245     0.361899481598    12.000000000000
         C            0.037954849212     6.990767994693     0.359728777294    12.000000000000
         C            0.030328407694     5.560835908640     0.354245392378    12.000000000000
         C           -1.200988687630     4.860616696851     0.363215126311    12.000000000000
         C            1.277953646089     7.664205792130     0.361104625854    12.000000000000
         C            2.485353904999     6.979043234173     0.358830137949    12.000000000000
         C            2.486124505192     5.546117159176     0.351892388962    12.000000000000
         C            1.254078739919     4.847424462600     0.363520330550    12.000000000000
         C            3.751710411681     7.655258499916     0.358956989330    12.000000000000
         C            4.923561876460     6.970127125926     0.356900508622    12.000000000000
         C            4.955603091600     5.534793812305     0.356740095815    12.000000000000
         C            3.706797354479     4.832556557269     0.361831655985    12.000000000000
         H           -3.658525317484     8.782173768071     0.361917947047     1.007825032230
         H           -1.189217509482     8.765467436296     0.365871358040     1.007825032230
         H            1.284290059161     8.752179784424     0.365263449995     1.007825032230
         H            3.753537907074     8.742381627908     0.360479513645     1.007825032230
         H            5.869954523482     7.505141183591     0.355975141579     1.007825032230
         H           -5.788235887228     7.567648561870     0.356306536508     1.007825032230
         C           -6.091978138422     4.884606362579     0.355421232275    12.000000000000
         C           -6.128665660043     3.473926517734     0.356622409303    12.000000000000
         C           -3.664583919771     3.455528528680     0.353697314686    12.000000000000
         C           -4.894302384424     2.752427124836     0.362866299671    12.000000000000
         C           -2.437339174623     2.738958006020     0.365529093222    12.000000000000
         C           -1.209232037322     3.439233283914     0.351850066431    12.000000000000
         C            1.247137392437     3.426027100365     0.351041460025    12.000000000000
         C            0.015171859844     2.724458188241     0.362725643250    12.000000000000
         C            2.467640992715     2.712636326191     0.362825701374    12.000000000000
         C            3.702545294854     3.416006503360     0.349337740531    12.000000000000
         C            6.144976206658     4.818918715067     0.355506650603    12.000000000000
         C            6.166584179136     3.407930824878     0.357673204040    12.000000000000
         C            4.924605778734     2.699754274290     0.364211950277    12.000000000000
         H            7.089901329916     5.358234115159     0.351744769754     1.007825032230
         H           -7.031045930827     5.434034301793     0.351188017324     1.007825032230
         C           -7.339702220848     2.749757883515     0.354995241862    12.000000000000
         C           -7.364886137784     1.361669720519     0.356760779989    12.000000000000
         C           -4.903508788672     1.335773161096     0.352044515797    12.000000000000
         C           -6.132261332336     0.631285705989     0.364334559780    12.000000000000
         C           -3.676878980242     0.618043491609     0.362672232197    12.000000000000
         C           -2.445660765791     1.320987482198     0.352362521996    12.000000000000
         C           -1.223604861027     0.606670850570     0.363791786527    12.000000000000
         C            0.007633689588     1.308729498173     0.362257440245    12.000000000000
         C            1.231215628021     0.593463039523     0.343430854589    12.000000000000
         C            2.460816920806     1.294638385061     0.362935363480    12.000000000000
         C            3.684426074471     0.578544777148     0.362106577202    12.000000000000
         C            4.918704721813     1.283080910125     0.349704755567    12.000000000000
         C            7.369797898236     2.670828552120     0.355912784247    12.000000000000
         C            7.380158486396     1.282563856791     0.357459467093    12.000000000000
         C            6.139795359397     0.565464972136     0.363787808905    12.000000000000
         H           -8.279194979072     3.298464390060     0.350697689740     1.007825032230
         H            8.315109291754     3.209464445559     0.351702208448     1.007825032230
         C           -8.591760117307     0.616178901980     0.357101207607    12.000000000000
         C           -8.599028783429    -0.741293457293     0.359224332190    12.000000000000
         C           -6.139817318844    -0.782790288218     0.352234990855    12.000000000000
         C           -7.380188291863    -1.499919840646     0.359651052396    12.000000000000
         C           -4.918688659982    -1.500408669094     0.364575489004    12.000000000000
         C           -3.684442475410    -0.795890966800     0.353543248940    12.000000000000
         C           -2.460821219973    -1.511998829889     0.364086335129    12.000000000000
         C           -1.231166192046    -0.810827515945     0.351965956337    12.000000000000
         C           -0.007573805113    -1.526072500475     0.359422480641    12.000000000000
         C            1.223643536163    -0.823929028328     0.369428102590    12.000000000000
         C            2.445666469606    -1.538296940071     0.357678089830    12.000000000000
         C            3.676862523121    -0.835361082620     0.353537505435    12.000000000000
         C            6.132244666694    -0.848632490914     0.352009531222    12.000000000000
         C            4.903514965779    -1.553111171605     0.365850605762    12.000000000000
         C            8.599010668965     0.523950215603     0.357321583237    12.000000000000
         C            8.591741308375    -0.833504518258     0.359057963498    12.000000000000
         C            7.364858584664    -1.578986316670     0.358827786805    12.000000000000
         H           -9.528310151544     1.168193798128     0.355631280643     1.007825032230
         H            9.541406794881     1.065918837380     0.356269550976     1.007825032230
         C           -7.369842089494    -2.888198796998     0.361459260818    12.000000000000
         C           -4.924603288776    -2.917090908405     0.353727628382    12.000000000000
         C           -6.166626675393    -3.625305843890     0.360029468541    12.000000000000
         C           -3.702514539430    -3.633335200185     0.364051697567    12.000000000000
         C           -2.467651164839    -2.929979613868     0.352007059211    12.000000000000
         C           -0.015137653833    -2.941795296464     0.352288647720    12.000000000000
         C           -1.247126020952    -3.643385826627     0.363852601128    12.000000000000
         C            1.209240889918    -3.656568329708     0.366391630919    12.000000000000
         C            2.437331842429    -2.956295389240     0.352251872608    12.000000000000
         C            4.894298164045    -2.969776619350     0.353072612680    12.000000000000
         C            3.664611075316    -3.672873496596     0.365952032620    12.000000000000
         C            6.128634835020    -3.691237708782     0.359297874578    12.000000000000
         C            7.339668484970    -2.967066958435     0.360813100660    12.000000000000
         H           -9.541453290984    -1.283217117729     0.360593748363     1.007825032230
         H            9.528257688346    -1.385572724969     0.360307771259     1.007825032230
         H           -8.315169223574    -3.426803504277     0.365631489349     1.007825032230
         H            8.279150962767    -3.515794440958     0.365152656642     1.007825032230
         C           -6.144998368428    -5.036300923848     0.361355466601    12.000000000000
         C           -3.706787527723    -5.049915365182     0.351534498513    12.000000000000
         C           -4.955594237727    -5.752147624559     0.359501633158    12.000000000000
         C           -2.486125505952    -5.763439225474     0.364474169557    12.000000000000
         C           -1.254062515205    -5.064775701066     0.353298563572    12.000000000000
         C            1.201008394143    -5.077934039257     0.354479687830    12.000000000000
         C           -0.030340854139    -5.778173954203     0.362322887493    12.000000000000
         C            3.653745921603    -5.089397426479     0.355237687578    12.000000000000
         C            2.425488516150    -5.789828286592     0.364614618130    12.000000000000
         C            6.091961438086    -5.101911614451     0.361592101251    12.000000000000
         C            4.894972264885    -5.805002072022     0.360355905421    12.000000000000
         H           -7.089896567766    -5.575653493303     0.365758228282     1.007825032230
         H            7.031051029475    -5.651312187397     0.365171881015     1.007825032230
         C           -4.923549501924    -7.187474750742     0.358946864253    12.000000000000
         C           -2.485346267963    -7.196381728994     0.356436971817    12.000000000000
         C           -3.751690071504    -7.872600808701     0.356631650742    12.000000000000
         C           -0.037953136713    -7.208118525534     0.356652696965    12.000000000000
         C           -1.277960280127    -7.881558035731     0.354668004203    12.000000000000
         C            2.409440141001    -7.222675663067     0.357515897776    12.000000000000
         C            1.194745757428    -7.894839016627     0.355363606894    12.000000000000
         C            4.847616872773    -7.239915761644     0.360022712435    12.000000000000
         C            3.668467426150    -7.912441644008     0.357674278071    12.000000000000
         H           -5.869944530142    -7.722484249106     0.360490901118     1.007825032230
         H            5.788245445663    -7.784985840379     0.361149831917     1.007825032230
         H           -3.753531119175    -8.959725220301     0.354795736313     1.007825032230
         H           -1.284308585620    -8.969529043562     0.350240620345     1.007825032230
         H            1.189217394970    -8.982814271654     0.351270970204     1.007825032230
         H            3.658542435098    -8.999514285118     0.356019736649     1.007825032230

  Charge       = 0
  Multiplicity = 1
  Basis Set: JUN-CC-PVDZ
    Blend: JUN-CC-PVDZ
  Basis Set: (JUN-CC-PVDZ AUX)
    Blend: JUN-CC-PVDZ-JKFIT

    Orbital Energies [Eh]
    ---------------------

    Doubly Occupied:

       1A    -11.264010     2A    -11.263693     3A    -11.263649
       4A    -11.263334     5A    -11.263309     6A    -11.263266
       7A    -11.263107     8A    -11.263097     9A    -11.263075
      10A    -11.262910    11A    -11.262761    12A    -11.262749
      13A    -11.262274    14A    -11.262267    15A    -11.262199
      16A    -11.262194    17A    -11.262127    18A    -11.262103
      19A    -11.262065    20A    -11.262022    21A    -11.262006
      22A    -11.261878    23A    -11.261867    24A    -11.261734
      25A    -11.261724    26A    -11.261701    27A    -11.261698
      28A    -11.261654    29A    -11.261646    30A    -11.261566
      31A    -11.261543    32A    -11.261541    33A    -11.261518
      34A    -11.261512    35A    -11.261495    36A    -11.261475
      37A    -11.261313    38A    -11.261305    39A    -11.261291
      40A    -11.261283    41A    -11.261274    42A    -11.261271
      43A    -11.261260    44A    -11.261250    45A    -11.261245
      46A    -11.261228    47A    -11.261215    48A    -11.261208
      49A    -11.261061    50A    -11.261034    51A    -11.261031
      52A    -11.260960    53A    -11.260956    54A    -11.260877
      55A    -11.259903    56A    -11.259878    57A    -11.259869
      58A    -11.259849    59A    -11.259837    60A    -11.259819
      61A    -11.259274    62A    -11.259245    63A    -11.259242
      64A    -11.259191    65A    -11.259188    66A    -11.259158
      67A    -11.258904    68A    -11.258878    69A    -11.258868
      70A    -11.258849    71A    -11.258839    72A    -11.258824
      73A    -11.254512    74A    -11.254507    75A    -11.254495
      76A    -11.254490    77A    -11.254485    78A    -11.254482
      79A    -11.253645    80A    -11.253628    81A    -11.253627
      82A    -11.253613    83A    -11.253610    84A    -11.253600
      85A    -11.253561    86A    -11.253542    87A    -11.253541
      88A    -11.253529    89A    -11.253526    90A    -11.253515
      91A    -11.253040    92A    -11.253035    93A    -11.253023
      94A    -11.253018    95A    -11.253012    96A    -11.253010
      97A     -1.253895    98A     -1.238958    99A     -1.238930
     100A     -1.220417   101A     -1.220406   102A     -1.215391
     103A     -1.200994   104A     -1.195556   105A     -1.188105
     106A     -1.188081   107A     -1.173718   108A     -1.173717
     109A     -1.155580   110A     -1.155573   111A     -1.152666
     112A     -1.144678   113A     -1.144675   114A     -1.128517
     115A     -1.114664   116A     -1.113119   117A     -1.112443
     118A     -1.112410   119A     -1.111575   120A     -1.088380
     121A     -1.088365   122A     -1.076919   123A     -1.076917
     124A     -1.067566   125A     -1.067533   126A     -1.064918
     127A     -1.046752   128A     -1.046742   129A     -1.040431
     130A     -1.038694   131A     -1.038690   132A     -1.025189
     133A     -1.021336   134A     -1.021270   135A     -1.007131
     136A     -1.006752   137A     -1.003748   138A     -1.000441
     139A     -1.000387   140A     -0.991035   141A     -0.970938
     142A     -0.970886   143A     -0.955841   144A     -0.955782
     145A     -0.905530   146A     -0.905512   147A     -0.905491
     148A     -0.905465   149A     -0.904270   150A     -0.892303
     151A     -0.892245   152A     -0.890304   153A     -0.890252
     154A     -0.889395   155A     -0.872173   156A     -0.869019
     157A     -0.851490   158A     -0.847803   159A     -0.847792
     160A     -0.845540   161A     -0.842958   162A     -0.834510
     163A     -0.834500   164A     -0.828077   165A     -0.828069
     166A     -0.784502   167A     -0.784492   168A     -0.783607
     169A     -0.783591   170A     -0.782235   171A     -0.782212
     172A     -0.781972   173A     -0.766931   174A     -0.760732
     175A     -0.750521   176A     -0.733440   177A     -0.727024
     178A     -0.726991   179A     -0.725026   180A     -0.724488
     181A     -0.724458   182A     -0.718436   183A     -0.713714
     184A     -0.713707   185A     -0.699531   186A     -0.699507
     187A     -0.686068   188A     -0.685906   189A     -0.685897
     190A     -0.682115   191A     -0.682108   192A     -0.678729
     193A     -0.653578   194A     -0.650821   195A     -0.650788
     196A     -0.649751   197A     -0.649743   198A     -0.649514
     199A     -0.640881   200A     -0.640835   201A     -0.640030
     202A     -0.639108   203A     -0.635969   204A     -0.635936
     205A     -0.629082   206A     -0.617749   207A     -0.615255
     208A     -0.615229   209A     -0.608744   210A     -0.608738
     211A     -0.599154   212A     -0.599113   213A     -0.598689
     214A     -0.598537   215A     -0.598525   216A     -0.597982
     217A     -0.595014   218A     -0.595001   219A     -0.594668
     220A     -0.594166   221A     -0.591899   222A     -0.591896
     223A     -0.587328   224A     -0.577753   225A     -0.577736
     226A     -0.575686   227A     -0.575680   228A     -0.573322
     229A     -0.569547   230A     -0.568086   231A     -0.568059
     232A     -0.566695   233A     -0.566688   234A     -0.560868
     235A     -0.558667   236A     -0.558628   237A     -0.558380
     238A     -0.554310   239A     -0.550547   240A     -0.547429
     241A     -0.544257   242A     -0.534979   243A     -0.534968
     244A     -0.533483   245A     -0.533466   246A     -0.528024
     247A     -0.528007   248A     -0.527728   249A     -0.517110
     250A     -0.517081   251A     -0.515328   252A     -0.515324
     253A     -0.509586   254A     -0.509574   255A     -0.497965
     256A     -0.496396   257A     -0.496357   258A     -0.493771
     259A     -0.493746   260A     -0.489399   261A     -0.481395
     262A     -0.477383   263A     -0.477383   264A     -0.473935
     265A     -0.469369   266A     -0.466458   267A     -0.466457
     268A     -0.458777   269A     -0.446612   270A     -0.446559
     271A     -0.441000   272A     -0.440728   273A     -0.440707
     274A     -0.434650   275A     -0.433867   276A     -0.407339
     277A     -0.407314   278A     -0.386368   279A     -0.386324
     280A     -0.385690   281A     -0.385689   282A     -0.383703
     283A     -0.354281   284A     -0.354261   285A     -0.350618
     286A     -0.338069   287A     -0.335545   288A     -0.335471
     289A     -0.332667   290A     -0.332666   291A     -0.307026
     292A     -0.301907   293A     -0.301841   294A     -0.300797
     295A     -0.286124   296A     -0.256429   297A     -0.253442
     298A     -0.253395   299A     -0.204218   300A     -0.204124

  @DF-RHF Final Energy: -3650.34083922065474

   => Energetics <=

    Nuclear Repulsion Energy =          15611.4211649754306563
    One-Electron Energy =              -36072.1722464232516359
    Two-Electron Energy =               16810.4102422271680553
    Total Energy =                      -3650.3408392206547433
 Dipole X            :         -0.0007692            0.0002112           -0.0005581
 Dipole Y            :        123.2191120         -123.2131634            0.0059486
 Dipole Z            :       -406.2872897          406.2940373            0.0067477
 Magnitude           :                                                    0.0090127

    SAPT Results
  --------------------------------------------------------------------------------------------------------
    Electrostatics                -12.99754014 [mEh]      -8.15607958 [kcal/mol]     -34.12503695 [kJ/mol]
      Elst10,r                    -12.99754014 [mEh]      -8.15607958 [kcal/mol]     -34.12503695 [kJ/mol]

    Exchange                        4.49341809 [mEh]       2.81966242 [kcal/mol]      11.79746758 [kJ/mol]
      Exch10                        4.49341809 [mEh]       2.81966242 [kcal/mol]      11.79746758 [kJ/mol]
      Exch10(S^2)                   4.48692859 [mEh]       2.81559020 [kcal/mol]      11.78042939 [kJ/mol]

    Induction                     -13.55127861 [mEh]      -8.50355571 [kcal/mol]     -35.57887708 [kJ/mol]
      Ind20,r                     -13.15566998 [mEh]      -8.25530754 [kcal/mol]     -34.54020676 [kJ/mol]
      Exch-Ind20,r                  1.06874429 [mEh]       0.67064717 [kcal/mol]       2.80598775 [kJ/mol]
      delta HF,r (2)               -1.46435292 [mEh]      -0.91889533 [kcal/mol]      -3.84465807 [kJ/mol]

    Dispersion                    -14.12708540 [mEh]      -8.86487992 [kcal/mol]     -37.09065760 [kJ/mol]
      Disp20                      -14.55157595 [mEh]      -9.13125177 [kcal/mol]     -38.20515740 [kJ/mol]
      Exch-Disp20                   0.42449056 [mEh]       0.26637185 [kcal/mol]       1.11449980 [kJ/mol]
      Disp20 (SS)                  -7.27578798 [mEh]      -4.56562588 [kcal/mol]     -19.10257870 [kJ/mol]
      Disp20 (OS)                  -7.27578798 [mEh]      -4.56562588 [kcal/mol]     -19.10257870 [kJ/mol]
      Exch-Disp20 (SS)              0.26740086 [mEh]       0.16779657 [kcal/mol]       0.70206085 [kJ/mol]
      Exch-Disp20 (OS)              0.15708970 [mEh]       0.09857528 [kcal/mol]       0.41243896 [kJ/mol]

  Total HF                        -22.05540066 [mEh]     -13.83997286 [kcal/mol]     -57.90644644 [kJ/mol]
  Total SAPT0                     -36.18248605 [mEh]     -22.70485278 [kcal/mol]     -94.99710404 [kJ/mol]

  Special recipe for scaled SAPT0 (see Manual):
    Electrostatics sSAPT0         -12.99754014 [mEh]      -8.15607958 [kcal/mol]     -34.12503695 [kJ/mol]
    Exchange sSAPT0                 4.49341809 [mEh]       2.81966242 [kcal/mol]      11.79746758 [kJ/mol]
    Induction sSAPT0              -13.54663468 [mEh]      -8.50064160 [kcal/mol]     -35.56668445 [kJ/mol]
    Dispersion sSAPT0             -14.12524089 [mEh]      -8.86372248 [kcal/mol]     -37.08581485 [kJ/mol]
  Total sSAPT0                    -36.17599762 [mEh]     -22.70078123 [kcal/mol]     -94.98006867 [kJ/mol]
  --------------------------------------------------------------------------------------------------------

*** Psi4 exiting successfully. Buy a developer a beer!
