                               Psi4 1.9 release

  ==> Input File <==

--------------------------------------------------------------------------
memory 64 GB # how much memory is available ! Depends on the nodes/cores !

molecule dimer {
# monomer A
+1 1    # Charge and multiplicity
C  0.680067 -1.215929 4.808042
C -0.680504 -1.215545 4.806014
N -1.085635  0.102779 4.805016
C  0.000108  0.884180 4.801740
C -2.477365  0.570758 4.755610
N  1.085222  0.102779 4.805016
H  1.385146 -2.033368 4.815870
H -1.385302 -2.033214 4.806204
H -0.000009  1.965269 4.799993
C  2.478117  0.567877 4.821908
H  2.490592  1.658130 4.794563
H  2.967028  0.220701 5.735354
H  3.001428  0.176405 3.946425
H -2.857359  0.490799 3.733539
H -3.082679 -0.042306 5.425694
H -2.518128  1.610706 5.082594
--
# monomer B
0 1     # Charge and multiplicity
C   -3.66844126402057      7.80375217008252      0.00190004133558
C   -4.84759871934653      7.13124183134024     -0.00046653359696
C   -4.89495929917518      5.69633040353158     -0.00103944469517
C   -3.65374067877320      4.98073034095895      0.00662099703436
C   -2.40942512149445      7.11398103667468      0.00209438359570
C   -2.42547734410473      5.68112195090346     -0.00491050527438
C   -1.19474401643570      7.78614419430947      0.00356656413763
C   0.03795902893699      7.09942164575698      0.00139585983271
C   0.03033258741920      5.66948955970466     -0.00408752508301
C   -1.20098450790502      4.96927034791531      0.00488220885047
C   1.27795782581485      7.77285944319479      0.00277170839332
C   2.48535808472416      7.08769688523756      0.00049722048857
C   2.48612868491717      5.65477081024076     -0.00644052849921
C   1.25408291964399      4.95607811366431      0.00518741308898
C   3.75171459140595      7.76391215098033      0.00062407186893
C   4.92356605618520      7.07878077698995     -0.00143240883900
C   4.95560727132542      5.64344746336949     -0.00159282164606
C   3.70680153420475      4.94121020833308      0.00349873852374
H   -3.65852113775815      8.89082741913536      0.00358502958574
H   -1.18921332975660      8.87412108735996      0.00753844057883
H   1.28429423888630      8.86083343548850      0.00693053253426
H   3.75354208679975      8.85103527897216      0.00214659618464
H   5.86995870320703      7.61379483465560     -0.00235777588134
H   -5.78823170750226      7.67630221293400     -0.00202638095293
C   -6.09197395869619      4.99326001364347     -0.00291168518608
C   -6.12866148031747      3.58258016879823     -0.00171050815740
C   -3.66457974004527      3.56418217974434     -0.00463560277484
C   -4.89429820469869      2.86108077590057      0.00453338221034
C   -2.43733499489796      2.84761165708481      0.00719617576166
C   -1.20922785759670      3.54788693497833     -0.00648285103018
C   1.24714157216223      3.53468075142962     -0.00729145743546
C   0.01517603956900      2.83311183930540      0.00439272578912
C   2.46764517244071      2.82128997725533      0.00449278391269
C   3.70254947457969      3.52466015442405     -0.00899517692985
C   6.14498038638375      4.92757236613191     -0.00282626685777
C   6.16658835886151      3.51658447594213     -0.00065971342101
C   4.92460995845939      2.80840792535402      0.00587903281610
H   7.08990550964105      5.46688776622306     -0.00658814770723
H   -7.03104175110130      5.54268795285765     -0.00714490013730
C   -7.33969804112295      2.85841153457957     -0.00333767559888
C   -7.36488195805880      1.47032337158330     -0.00157213747140
C   -4.90350460894690      1.44442681216000     -0.00628840166334
C   -6.13225715261081      0.73993935705394      0.00600164231964
C   -3.67687480051673      0.72669714267312      0.00433931473643
C   -2.44565658606518      1.42964113326212     -0.00597039546461
C   -1.22360068130162      0.71532450163492      0.00545886906656
C   0.00763786931376      1.41738314923765      0.00392452278437
C   1.23121980774686      0.70211669058719     -0.01490206287210
C   2.46082110053113      1.40329203612573      0.00460244601878
C   3.68443025419614      0.68719842821222      0.00377365974158
C   4.91870890153864      1.39173456118907     -0.00862816189375
C   7.36980207796101      2.77948220318441     -0.00242013321349
C   7.38016266612146      1.39121750785509     -0.00087345036788
C   6.13979953912259      0.67411862320065      0.00545489144369
H   -8.27919079934664      3.40711804112415     -0.00763522772059
H   8.31511347147953      3.31811809662368     -0.00663070901292
C   -8.59175593758115      0.72483255304480     -0.00123170985383
C   -8.59902460370342     -0.63263980622873      0.00089141472904
C   -6.13981313911873     -0.67413663715361     -0.00609792660607
C   -7.38018411213749     -1.39126618958160      0.00131813493501
C   -4.91868448025621     -1.39175501803000      0.00624257154343
C   -3.68443829568458     -0.68723731573599     -0.00478966852105
C   -2.46081704024768     -1.40334517882457      0.00575341766833
C   -1.23116201232071     -0.70217386488055     -0.00636696112346
C   -0.00756962538737     -1.41741884941102      0.00108956317991
C   1.22364771588843     -0.71527537726392      0.01109518512883
C   2.44567064933149     -1.42964328900682     -0.00065482763106
C   3.67686670284649     -0.72670743155550     -0.00479541202602
C   6.13224884641929     -0.73997883984993     -0.00632338623858
C   4.90351914550401     -1.44445752054090      0.00751768830159
C   8.59901484869081      0.63260386666793     -0.00101133422380
C   8.59174548810050     -0.72485086719319      0.00072504603735
C   7.36486276438985     -1.47033266560598      0.00049486934466
H   -9.52830597181814      1.27684744919284     -0.00270163681798
H   9.54141097460619      1.17457248844457     -0.00206336648518
C   -7.36983790976868     -2.77954514593389      0.00312634335708
C   -4.92459910905015     -2.80843725734101     -0.00460528907921
C   -6.16662249566744     -3.51665219282533      0.00169655107992
C   -3.70251035970491     -3.52468154912026      0.00571878010666
C   -2.46764698511392     -2.82132596280400     -0.00632585824990
C   -0.01513347410770     -2.83314164539971     -0.00604426974092
C   -1.24712184122656     -3.53473217556300      0.00551968366725
C   1.20924506964357     -3.54791467864352      0.00805871345849
C   2.43733602215464     -2.84764173817541     -0.00608104485234
C   4.89430234377080     -2.86112296828604     -0.00526030478103
C   3.66461525504104     -3.56421984553201      0.00761911515957
C   6.12863901474565     -3.58258405771778      0.00096495711699
C   7.33967266469532     -2.85841330737039      0.00248018319869
H   -9.54144911125902     -1.17456346666430      0.00226083090216
H   9.52826186807155     -1.27691907390448      0.00197485379837
H   -8.31516504384864     -3.31814985321231      0.00729857188773
H   8.27915514249207     -3.40714078989363      0.00681973918158
C   -6.14499418870218     -4.92764727278338      0.00302254913999
C   -3.70678334799751     -4.94126171411716     -0.00679841894792
C   -4.95559005800169     -5.64349397349412      0.00116871569699
C   -2.48612132622665     -5.65478557440947      0.00614125209662
C   -1.25405833548005     -4.95612205000132     -0.00503435388927
C   1.20101257386816     -4.96928038819302     -0.00385322963129
C   -0.03033667441341     -5.66952030313900      0.00398997003238
C   3.65375010132847     -4.98074377541453     -0.00309522988330
C   2.42549269587528     -5.68117463552727      0.00628170066869
C   6.09196561781097     -4.99325796338655      0.00325918379042
C   4.89497644461045     -5.69634842095790      0.00202298796027
H   -7.08989238804069     -5.46699984223871      0.00742531082125
H   7.03105520920009     -5.54265853633254      0.00683896355417
C   -4.92354532219813     -7.07882109967734      0.00061394679214
C   -2.48534208823777     -7.08772807792913     -0.00189594564379
C   -3.75168589177895     -7.76394715763627     -0.00170126671874
C   -0.03794895698805     -7.09946487446944     -0.00168022049625
C   -1.27795610040136     -7.77290438466689     -0.00366491325785
C   2.40944432072629     -7.11402201200282     -0.00081701968533
C   1.19474993715296     -7.78618536556242     -0.00296931056689
C   4.84762105249800     -7.13126211057943      0.00168979497423
C   3.66847160587561     -7.80378799294376     -0.00065863938960
H   -5.86994035041618     -7.61383059804164      0.00215798365757
H   5.78824962538815     -7.67633218931421      0.00281691445618
H   -3.75352693944918     -8.85107156923607     -0.00353718114765
H   -1.28430440589466     -8.86087539249706     -0.00809229711623
H   1.18922157469537     -8.87416062058945     -0.00706194725726
H   3.65854661482387     -8.89086063405326     -0.00231318081200

    units angstrom      # Angstroms are the default
    no_reorient         # Geometry fixed, default
    symmetry c1         # C1 symmetry, default
}

set {
    scf_type DF         # Density fitting, faster than exact integrals
    freeze_core True    # Freeze core electrons
    basis jun-cc-pVDZ   # Jun-cc-pVDZ basis set, recommended for sSAPT0 in https://doi.org/10.1063/1.4867135
}

energy('ssapt0')        # Compute sSAPT0 energy, includes also SAPT0
--------------------------------------------------------------------------

  //              Dimer HF             //
    Molecular point group: c1
  Charge       = 1
  Multiplicity = 1
  Basis Set: JUN-CC-PVDZ
    Blend: JUN-CC-PVDZ
  Basis Set: (JUN-CC-PVDZ AUX)
    Blend: JUN-CC-PVDZ-JKFIT
  @DF-RHF Final Energy: -3953.65654889232883
    Total Energy =                      -3953.6565488923297380
 Dipole X            :          0.0016546            0.0004804            0.0021351
 Dipole Y            :         -1.5873527            1.8866171            0.2992644
 Dipole Z            :        -22.1368591           29.0948259            6.9579668
 Magnitude           :                                                    6.9643998
  //            Monomer A HF           //
    Molecular point group: c1
  Multiplicity = 1
  Basis Set: JUN-CC-PVDZ
    Blend: JUN-CC-PVDZ
  Basis Set: (JUN-CC-PVDZ AUX)
    Blend: JUN-CC-PVDZ-JKFIT
  @DF-RHF Final Energy:  -303.29799346217641
    Total Energy =                       -303.2979934621764073
  //            Monomer B HF           //
    Molecular point group: c1

    Geometry (in Angstrom), charge = 0, multiplicity = 1:

       Center              X                  Y                   Z               Mass
    ------------   -----------------  -----------------  -----------------  -----------------
      Gh(C)           0.680062820275    -1.215917226251     4.442075966142    12.000000000000
      Gh(C)          -0.680508179725    -1.215533226251     4.440047966142    12.000000000000
      Gh(N)          -1.085639179725     0.102790773749     4.439049966142    14.003074004430
      Gh(C)           0.000103820275     0.884191773749     4.435773966142    12.000000000000
      Gh(C)          -2.477369179725     0.570769773749     4.389643966142    12.000000000000
      Gh(N)           1.085217820275     0.102790773749     4.439049966142    14.003074004430
      Gh(H)           1.385141820275    -2.033356226251     4.449903966142     1.007825032230
      Gh(H)          -1.385306179725    -2.033202226251     4.440237966142     1.007825032230
      Gh(H)          -0.000013179725     1.965280773749     4.434026966142     1.007825032230
      Gh(C)           2.478112820275     0.567888773749     4.455941966142    12.000000000000
      Gh(H)           2.490587820275     1.658141773750     4.428596966142     1.007825032230
      Gh(H)           2.967023820275     0.220712773749     5.369387966142     1.007825032230
      Gh(H)           3.001423820275     0.176416773749     3.580458966142     1.007825032230
      Gh(H)          -2.857363179725     0.490810773749     3.367572966142     1.007825032230
      Gh(H)          -3.082683179725    -0.042294226251     5.059727966142     1.007825032230
      Gh(H)          -2.518132179725     1.610717773749     4.716627966142     1.007825032230
         C           -3.668445443746     7.803763943832    -0.364065992522    12.000000000000
         C           -4.847602899072     7.131253605090    -0.366432567455    12.000000000000
         C           -4.894963478901     5.696342177281    -0.367005478553    12.000000000000
         C           -3.653744858499     4.980742114708    -0.359345036824    12.000000000000
         C           -2.409429301220     7.113992810424    -0.363871650262    12.000000000000
         C           -2.425481523830     5.681133724653    -0.370876539132    12.000000000000
         C           -1.194748196161     7.786155968059    -0.362399469720    12.000000000000
         C            0.037954849212     7.099433419506    -0.364570174025    12.000000000000
         C            0.030328407694     5.669501333454    -0.370053558941    12.000000000000
         C           -1.200988687630     4.969282121665    -0.361083825008    12.000000000000
         C            1.277953646089     7.772871216944    -0.363194325465    12.000000000000
         C            2.485353904999     7.087708658987    -0.365468813369    12.000000000000
         C            2.486124505192     5.654782583990    -0.372406562357    12.000000000000
         C            1.254078739919     4.956089887414    -0.360778620769    12.000000000000
         C            3.751710411681     7.763923924730    -0.365341961989    12.000000000000
         C            4.923561876460     7.078792550739    -0.367398442697    12.000000000000
         C            4.955603091600     5.643459237119    -0.367558855504    12.000000000000
         C            3.706797354479     4.941221982083    -0.362467295334    12.000000000000
         H           -3.658525317484     8.890839192885    -0.362381004272     1.007825032230
         H           -1.189217509482     8.874132861109    -0.358427593279     1.007825032230
         H            1.284290059161     8.860845209238    -0.359035501324     1.007825032230
         H            3.753537907074     8.851047052722    -0.363819437673     1.007825032230
         H            5.869954523482     7.613806608405    -0.368323809739     1.007825032230
         H           -5.788235887228     7.676313986684    -0.367992414811     1.007825032230
         C           -6.091978138422     4.993271787393    -0.368877719044    12.000000000000
         C           -6.128665660043     3.582591942548    -0.367676542015    12.000000000000
         C           -3.664583919771     3.564193953494    -0.370601636633    12.000000000000
         C           -4.894302384424     2.861092549650    -0.361432651648    12.000000000000
         C           -2.437339174623     2.847623430834    -0.358769858096    12.000000000000
         C           -1.209232037322     3.547898708728    -0.372448884888    12.000000000000
         C            1.247137392437     3.534692525179    -0.373257491293    12.000000000000
         C            0.015171859844     2.833123613055    -0.361573308069    12.000000000000
         C            2.467640992715     2.821301751005    -0.361473249945    12.000000000000
         C            3.702545294854     3.524671928174    -0.374961210788    12.000000000000
         C            6.144976206658     4.927584139881    -0.368792300716    12.000000000000
         C            6.166584179136     3.516596249692    -0.366625747279    12.000000000000
         C            4.924605778734     2.808419699104    -0.360087001042    12.000000000000
         H            7.089901329916     5.466899539973    -0.372554181565     1.007825032230
         H           -7.031045930827     5.542699726607    -0.373110933995     1.007825032230
         C           -7.339702220848     2.858423308329    -0.369303709457    12.000000000000
         C           -7.364886137784     1.470335145333    -0.367538171329    12.000000000000
         C           -4.903508788672     1.444438585909    -0.372254435521    12.000000000000
         C           -6.132261332336     0.739951130803    -0.359964391538    12.000000000000
         C           -3.676878980242     0.726708916423    -0.361626719122    12.000000000000
         C           -2.445660765791     1.429652907012    -0.371936429323    12.000000000000
         C           -1.223604861027     0.715336275384    -0.360507164791    12.000000000000
         C            0.007633689588     1.417394922987    -0.362041511074    12.000000000000
         C            1.231215628021     0.702128464337    -0.380868096730    12.000000000000
         C            2.460816920806     1.403303809875    -0.361363587839    12.000000000000
         C            3.684426074471     0.687210201962    -0.362192374116    12.000000000000
         C            4.918704721813     1.391746334939    -0.374594195752    12.000000000000
         C            7.369797898236     2.779493976934    -0.368386167071    12.000000000000
         C            7.380158486396     1.391229281605    -0.366839484226    12.000000000000
         C            6.139795359397     0.674130396950    -0.360511142414    12.000000000000
         H           -8.279194979072     3.407129814874    -0.373601261579     1.007825032230
         H            8.315109291754     3.318129870373    -0.372596742871     1.007825032230
         C           -8.591760117307     0.724844326794    -0.367197743712    12.000000000000
         C           -8.599028783429    -0.632628032479    -0.365074619129    12.000000000000
         C           -6.139817318844    -0.674124863404    -0.372063960464    12.000000000000
         C           -7.380188291863    -1.391254415832    -0.364647898923    12.000000000000
         C           -4.918688659982    -1.391743244281    -0.359723462315    12.000000000000
         C           -3.684442475410    -0.687225541986    -0.370755702379    12.000000000000
         C           -2.460821219973    -1.403333405075    -0.360212616190    12.000000000000
         C           -1.231166192046    -0.702162091131    -0.372332994981    12.000000000000
         C           -0.007573805113    -1.417407075662    -0.364876470678    12.000000000000
         C            1.223643536163    -0.715263603514    -0.354870848729    12.000000000000
         C            2.445666469606    -1.429631515257    -0.366620861489    12.000000000000
         C            3.676862523121    -0.726695657806    -0.370761445884    12.000000000000
         C            6.132244666694    -0.739967066100    -0.372289420097    12.000000000000
         C            4.903514965779    -1.444445746791    -0.358448345556    12.000000000000
         C            8.599010668965     0.632615640417    -0.366977368082    12.000000000000
         C            8.591741308375    -0.724839093444    -0.365240987821    12.000000000000
         C            7.364858584664    -1.470320891856    -0.365471164513    12.000000000000
         H           -9.528310151544     1.276859222942    -0.368667670676     1.007825032230
         H            9.541406794881     1.174584262194    -0.368029400343     1.007825032230
         C           -7.369842089494    -2.779533372184    -0.362839690501    12.000000000000
         C           -4.924603288776    -2.808425483592    -0.370571322937    12.000000000000
         C           -6.166626675393    -3.516640419076    -0.364269482778    12.000000000000
         C           -3.702514539430    -3.524669775371    -0.360247253751    12.000000000000
         C           -2.467651164839    -2.821314189055    -0.372291892108    12.000000000000
         C           -0.015137653833    -2.833129871650    -0.372010303599    12.000000000000
         C           -1.247126020952    -3.534720401814    -0.360446350191    12.000000000000
         C            1.209240889918    -3.547902904894    -0.357907320399    12.000000000000
         C            2.437331842429    -2.847629964426    -0.372047078710    12.000000000000
         C            4.894298164045    -2.861111194537    -0.371226338639    12.000000000000
         C            3.664611075316    -3.564208071783    -0.358346918698    12.000000000000
         C            6.128634835020    -3.582572283968    -0.365001076741    12.000000000000
         C            7.339668484970    -2.858401533621    -0.363485850659    12.000000000000
         H           -9.541453290984    -1.174551692915    -0.363705202956     1.007825032230
         H            9.528257688346    -1.276907300155    -0.363991180060     1.007825032230
         H           -8.315169223574    -3.318138079463    -0.358667461970     1.007825032230
         H            8.279150962767    -3.407129016144    -0.359146294676     1.007825032230
         C           -6.144998368428    -4.927635499034    -0.362943484718    12.000000000000
         C           -3.706787527723    -4.941249940368    -0.372764452806    12.000000000000
         C           -4.955594237727    -5.643482199745    -0.364797318161    12.000000000000
         C           -2.486125505952    -5.654773800660    -0.359824781761    12.000000000000
         C           -1.254062515205    -4.956110276252    -0.371000387747    12.000000000000
         C            1.201008394143    -4.969268614444    -0.369819263489    12.000000000000
         C           -0.030340854139    -5.669508529390    -0.361976063826    12.000000000000
         C            3.653745921603    -4.980732001665    -0.369061263741    12.000000000000
         C            2.425488516150    -5.681162861778    -0.359684333189    12.000000000000
         C            6.091961438086    -4.993246189637    -0.362706850068    12.000000000000
         C            4.894972264885    -5.696336647208    -0.363943045898    12.000000000000
         H           -7.089896567766    -5.466988068489    -0.358540723037     1.007825032230
         H            7.031051029475    -5.542646762583    -0.359127070304     1.007825032230
         C           -4.923549501924    -7.078809325928    -0.365352087066    12.000000000000
         C           -2.485346267963    -7.087716304180    -0.367861979502    12.000000000000
         C           -3.751690071504    -7.763935383887    -0.367667300577    12.000000000000
         C           -0.037953136713    -7.099453100720    -0.367646254354    12.000000000000
         C           -1.277960280127    -7.772892610917    -0.369630947116    12.000000000000
         C            2.409440141001    -7.114010238253    -0.366783053543    12.000000000000
         C            1.194745757428    -7.786173591813    -0.368935344425    12.000000000000
         C            4.847616872773    -7.131250336830    -0.364276238884    12.000000000000
         C            3.668467426150    -7.803776219194    -0.366624673248    12.000000000000
         H           -5.869944530142    -7.613818824292    -0.363808050200     1.007825032230
         H            5.788245445663    -7.676320415565    -0.363149119402     1.007825032230
         H           -3.753531119175    -8.851059795487    -0.369503215006     1.007825032230
         H           -1.284308585620    -8.860863618748    -0.374058330974     1.007825032230
         H            1.189217394970    -8.874148846840    -0.373027981115     1.007825032230
         H            3.658542435098    -8.890848860304    -0.368279214670     1.007825032230

  Charge       = 0
  Multiplicity = 1
  Basis Set: JUN-CC-PVDZ
    Blend: JUN-CC-PVDZ
  Basis Set: (JUN-CC-PVDZ AUX)
    Blend: JUN-CC-PVDZ-JKFIT

    Orbital Energies [Eh]
    ---------------------

    Doubly Occupied:

       1A    -11.263996     2A    -11.263675     3A    -11.263655
       4A    -11.263307     5A    -11.263298     6A    -11.263264
       7A    -11.263112     8A    -11.263102     9A    -11.263082
      10A    -11.262909    11A    -11.262761    12A    -11.262753
      13A    -11.262269    14A    -11.262264    15A    -11.262210
      16A    -11.262195    17A    -11.262132    18A    -11.262101
      19A    -11.262058    20A    -11.262017    21A    -11.262015
      22A    -11.261882    23A    -11.261878    24A    -11.261748
      25A    -11.261737    26A    -11.261719    27A    -11.261714
      28A    -11.261670    29A    -11.261662    30A    -11.261576
      31A    -11.261553    32A    -11.261550    33A    -11.261526
      34A    -11.261522    35A    -11.261505    36A    -11.261490
      37A    -11.261327    38A    -11.261317    39A    -11.261310
      40A    -11.261306    41A    -11.261298    42A    -11.261292
      43A    -11.261280    44A    -11.261266    45A    -11.261260
      46A    -11.261237    47A    -11.261232    48A    -11.261228
      49A    -11.261066    50A    -11.261041    51A    -11.261030
      52A    -11.260965    53A    -11.260949    54A    -11.260892
      55A    -11.259908    56A    -11.259896    57A    -11.259891
      58A    -11.259864    59A    -11.259861    60A    -11.259845
      61A    -11.259282    62A    -11.259258    63A    -11.259252
      64A    -11.259202    65A    -11.259197    66A    -11.259169
      67A    -11.258911    68A    -11.258893    69A    -11.258891
      70A    -11.258864    71A    -11.258860    72A    -11.258849
      73A    -11.254520    74A    -11.254519    75A    -11.254514
      76A    -11.254513    77A    -11.254510    78A    -11.254506
      79A    -11.253649    80A    -11.253647    81A    -11.253644
      82A    -11.253640    83A    -11.253639    84A    -11.253635
      85A    -11.253565    86A    -11.253563    87A    -11.253559
      88A    -11.253556    89A    -11.253555    90A    -11.253551
      91A    -11.253048    92A    -11.253046    93A    -11.253042
      94A    -11.253041    95A    -11.253038    96A    -11.253034
      97A     -1.253916    98A     -1.238981    99A     -1.238964
     100A     -1.220446   101A     -1.220438   102A     -1.215420
     103A     -1.201026   104A     -1.195587   105A     -1.188124
     106A     -1.188109   107A     -1.173749   108A     -1.173748
     109A     -1.155604   110A     -1.155598   111A     -1.152692
     112A     -1.144709   113A     -1.144706   114A     -1.128543
     115A     -1.114688   116A     -1.113148   117A     -1.112466
     118A     -1.112442   119A     -1.111606   120A     -1.088406
     121A     -1.088392   122A     -1.076949   123A     -1.076947
     124A     -1.067593   125A     -1.067562   126A     -1.064947
     127A     -1.046781   128A     -1.046772   129A     -1.040457
     130A     -1.038722   131A     -1.038720   132A     -1.025214
     133A     -1.021362   134A     -1.021302   135A     -1.007160
     136A     -1.006784   137A     -1.003777   138A     -1.000465
     139A     -1.000415   140A     -0.991062   141A     -0.970966
     142A     -0.970917   143A     -0.955867   144A     -0.955810
     145A     -0.905560   146A     -0.905537   147A     -0.905520
     148A     -0.905495   149A     -0.904298   150A     -0.892333
     151A     -0.892273   152A     -0.890336   153A     -0.890281
     154A     -0.889427   155A     -0.872201   156A     -0.869045
     157A     -0.851520   158A     -0.847835   159A     -0.847819
     160A     -0.845569   161A     -0.842987   162A     -0.834542
     163A     -0.834531   164A     -0.828103   165A     -0.828096
     166A     -0.784529   167A     -0.784519   168A     -0.783637
     169A     -0.783616   170A     -0.782261   171A     -0.782239
     172A     -0.782003   173A     -0.766967   174A     -0.760759
     175A     -0.750544   176A     -0.733468   177A     -0.727050
     178A     -0.727025   179A     -0.725054   180A     -0.724519
     181A     -0.724495   182A     -0.718463   183A     -0.713742
     184A     -0.713736   185A     -0.699555   186A     -0.699535
     187A     -0.686091   188A     -0.685935   189A     -0.685930
     190A     -0.682148   191A     -0.682141   192A     -0.678754
     193A     -0.653603   194A     -0.650849   195A     -0.650816
     196A     -0.649780   197A     -0.649769   198A     -0.649545
     199A     -0.640903   200A     -0.640863   201A     -0.640063
     202A     -0.639140   203A     -0.635995   204A     -0.635963
     205A     -0.629110   206A     -0.617765   207A     -0.615283
     208A     -0.615259   209A     -0.608777   210A     -0.608770
     211A     -0.599129   212A     -0.599117   213A     -0.598715
     214A     -0.598566   215A     -0.598553   216A     -0.598009
     217A     -0.595043   218A     -0.595031   219A     -0.594695
     220A     -0.594195   221A     -0.591926   222A     -0.591922
     223A     -0.587354   224A     -0.577779   225A     -0.577766
     226A     -0.575685   227A     -0.575678   228A     -0.573353
     229A     -0.569573   230A     -0.568113   231A     -0.568087
     232A     -0.566723   233A     -0.566714   234A     -0.560895
     235A     -0.558690   236A     -0.558659   237A     -0.558408
     238A     -0.554339   239A     -0.550553   240A     -0.547455
     241A     -0.544253   242A     -0.535011   243A     -0.534995
     244A     -0.533512   245A     -0.533493   246A     -0.528054
     247A     -0.528038   248A     -0.527754   249A     -0.517136
     250A     -0.517103   251A     -0.515340   252A     -0.515334
     253A     -0.509615   254A     -0.509602   255A     -0.497996
     256A     -0.496425   257A     -0.496392   258A     -0.493792
     259A     -0.493772   260A     -0.489424   261A     -0.481425
     262A     -0.477401   263A     -0.477400   264A     -0.473965
     265A     -0.469402   266A     -0.466490   267A     -0.466487
     268A     -0.458793   269A     -0.446643   270A     -0.446587
     271A     -0.441002   272A     -0.440759   273A     -0.440714
     274A     -0.434670   275A     -0.433887   276A     -0.407350
     277A     -0.407328   278A     -0.386390   279A     -0.386331
     280A     -0.385711   281A     -0.385710   282A     -0.383732
     283A     -0.354300   284A     -0.354277   285A     -0.350642
     286A     -0.338058   287A     -0.335550   288A     -0.335514
     289A     -0.332691   290A     -0.332689   291A     -0.307041
     292A     -0.301913   293A     -0.301851   294A     -0.300816
     295A     -0.286144   296A     -0.256452   297A     -0.253461
     298A     -0.253418   299A     -0.204235   300A     -0.204149

  @DF-RHF Final Energy: -3650.34030138227854

   => Energetics <=

    Nuclear Repulsion Energy =          15611.4211649754324753
    One-Electron Energy =              -36072.1585309745714767
    Two-Electron Energy =               16810.3970646168600069
    Total Energy =                      -3650.3403013822789944
 Dipole X            :         -0.0010399            0.0002112           -0.0008287
 Dipole Y            :          0.0044482           -0.0044281            0.0000202
 Dipole Z            :        414.9298403         -414.9419532           -0.0121129
 Magnitude           :                                                    0.0121412

    SAPT Results
  --------------------------------------------------------------------------------------------------------
    Electrostatics                -11.36921212 [mEh]      -7.13428832 [kcal/mol]     -29.84986232 [kJ/mol]
      Elst10,r                    -11.36921212 [mEh]      -7.13428832 [kcal/mol]     -29.84986232 [kJ/mol]

    Exchange                        0.24086237 [mEh]       0.15114342 [kcal/mol]       0.63238407 [kJ/mol]
      Exch10                        0.24086237 [mEh]       0.15114342 [kcal/mol]       0.63238407 [kJ/mol]
      Exch10(S^2)                   0.24085740 [mEh]       0.15114030 [kcal/mol]       0.63237102 [kJ/mol]

    Induction                      -7.12569812 [mEh]      -4.47144308 [kcal/mol]     -18.70851785 [kJ/mol]
      Ind20,r                      -6.93864395 [mEh]      -4.35406481 [kcal/mol]     -18.21740718 [kJ/mol]
      Exch-Ind20,r                  0.04779708 [mEh]       0.02999312 [kcal/mol]       0.12549123 [kJ/mol]
      delta HF,r (2)               -0.23485126 [mEh]      -0.14737139 [kcal/mol]      -0.61660189 [kJ/mol]

    Dispersion                     -8.18949937 [mEh]      -5.13898844 [kcal/mol]     -21.50152763 [kJ/mol]
      Disp20                       -8.23641713 [mEh]      -5.16842978 [kcal/mol]     -21.62471020 [kJ/mol]
      Exch-Disp20                   0.04691776 [mEh]       0.02944134 [kcal/mol]       0.12318257 [kJ/mol]
      Disp20 (SS)                  -4.11820857 [mEh]      -2.58421489 [kcal/mol]     -10.81235510 [kJ/mol]
      Disp20 (OS)                  -4.11820857 [mEh]      -2.58421489 [kcal/mol]     -10.81235510 [kJ/mol]
      Exch-Disp20 (SS)              0.03149313 [mEh]       0.01976223 [kcal/mol]       0.08268519 [kJ/mol]
      Exch-Disp20 (OS)              0.01542464 [mEh]       0.00967911 [kcal/mol]       0.04049738 [kJ/mol]

  Total HF                        -18.25404787 [mEh]     -11.45458798 [kcal/mol]     -47.92599609 [kJ/mol]
  Total SAPT0                     -26.44354724 [mEh]     -16.59357641 [kcal/mol]     -69.42752372 [kJ/mol]

  Special recipe for scaled SAPT0 (see Manual):
    Electrostatics sSAPT0         -11.36921212 [mEh]      -7.13428832 [kcal/mol]     -29.84986232 [kJ/mol]
    Exchange sSAPT0                 0.24086237 [mEh]       0.15114342 [kcal/mol]       0.63238407 [kJ/mol]
    Induction sSAPT0               -7.12569516 [mEh]      -4.47144122 [kcal/mol]     -18.70851007 [kJ/mol]
    Dispersion sSAPT0              -8.18949646 [mEh]      -5.13898661 [kcal/mol]     -21.50152000 [kJ/mol]
  Total sSAPT0                    -26.44354137 [mEh]     -16.59357273 [kcal/mol]     -69.42750831 [kJ/mol]
  --------------------------------------------------------------------------------------------------------

*** Psi4 exiting successfully. Buy a developer a beer!
