                               Psi4 1.9 release

  ==> Input File <==

--------------------------------------------------------------------------
memory 64 GB # how much memory is available ! Depends on the nodes/cores !

molecule dimer {
# monomer A
+1 1    # Charge and multiplicity
C  0.680067 1.417258 -8.015929
C -0.680504 1.419286 -8.015545
N -1.085635 1.420284 -6.697221
C  0.000108 1.423560 -5.915820
C -2.477365 1.469690 -6.229242
N  1.085222 1.420284 -6.697221
H  1.385146 1.409430 -8.833368
H -1.385302 1.419096 -8.833214
H -0.000009 1.425307 -4.834731
C  2.478117 1.403392 -6.232123
H  2.490592 1.430737 -5.141870
H  2.967028 0.489946 -6.579299
H  3.001428 2.278875 -6.623595
H -2.857359 2.491761 -6.309201
H -3.082679 0.799606 -6.842306
H -2.518128 1.142706 -5.189294
--
# monomer B
0 1     # Charge and multiplicity
C   -3.66844126402057      7.80375217008252      0.00190004133558
C   -4.84759871934653      7.13124183134024     -0.00046653359696
C   -4.89495929917518      5.69633040353158     -0.00103944469517
C   -3.65374067877320      4.98073034095895      0.00662099703436
C   -2.40942512149445      7.11398103667468      0.00209438359570
C   -2.42547734410473      5.68112195090346     -0.00491050527438
C   -1.19474401643570      7.78614419430947      0.00356656413763
C   0.03795902893699      7.09942164575698      0.00139585983271
C   0.03033258741920      5.66948955970466     -0.00408752508301
C   -1.20098450790502      4.96927034791531      0.00488220885047
C   1.27795782581485      7.77285944319479      0.00277170839332
C   2.48535808472416      7.08769688523756      0.00049722048857
C   2.48612868491717      5.65477081024076     -0.00644052849921
C   1.25408291964399      4.95607811366431      0.00518741308898
C   3.75171459140595      7.76391215098033      0.00062407186893
C   4.92356605618520      7.07878077698995     -0.00143240883900
C   4.95560727132542      5.64344746336949     -0.00159282164606
C   3.70680153420475      4.94121020833308      0.00349873852374
H   -3.65852113775815      8.89082741913536      0.00358502958574
H   -1.18921332975660      8.87412108735996      0.00753844057883
H   1.28429423888630      8.86083343548850      0.00693053253426
H   3.75354208679975      8.85103527897216      0.00214659618464
H   5.86995870320703      7.61379483465560     -0.00235777588134
H   -5.78823170750226      7.67630221293400     -0.00202638095293
C   -6.09197395869619      4.99326001364347     -0.00291168518608
C   -6.12866148031747      3.58258016879823     -0.00171050815740
C   -3.66457974004527      3.56418217974434     -0.00463560277484
C   -4.89429820469869      2.86108077590057      0.00453338221034
C   -2.43733499489796      2.84761165708481      0.00719617576166
C   -1.20922785759670      3.54788693497833     -0.00648285103018
C   1.24714157216223      3.53468075142962     -0.00729145743546
C   0.01517603956900      2.83311183930540      0.00439272578912
C   2.46764517244071      2.82128997725533      0.00449278391269
C   3.70254947457969      3.52466015442405     -0.00899517692985
C   6.14498038638375      4.92757236613191     -0.00282626685777
C   6.16658835886151      3.51658447594213     -0.00065971342101
C   4.92460995845939      2.80840792535402      0.00587903281610
H   7.08990550964105      5.46688776622306     -0.00658814770723
H   -7.03104175110130      5.54268795285765     -0.00714490013730
C   -7.33969804112295      2.85841153457957     -0.00333767559888
C   -7.36488195805880      1.47032337158330     -0.00157213747140
C   -4.90350460894690      1.44442681216000     -0.00628840166334
C   -6.13225715261081      0.73993935705394      0.00600164231964
C   -3.67687480051673      0.72669714267312      0.00433931473643
C   -2.44565658606518      1.42964113326212     -0.00597039546461
C   -1.22360068130162      0.71532450163492      0.00545886906656
C   0.00763786931376      1.41738314923765      0.00392452278437
C   1.23121980774686      0.70211669058719     -0.01490206287210
C   2.46082110053113      1.40329203612573      0.00460244601878
C   3.68443025419614      0.68719842821222      0.00377365974158
C   4.91870890153864      1.39173456118907     -0.00862816189375
C   7.36980207796101      2.77948220318441     -0.00242013321349
C   7.38016266612146      1.39121750785509     -0.00087345036788
C   6.13979953912259      0.67411862320065      0.00545489144369
H   -8.27919079934664      3.40711804112415     -0.00763522772059
H   8.31511347147953      3.31811809662368     -0.00663070901292
C   -8.59175593758115      0.72483255304480     -0.00123170985383
C   -8.59902460370342     -0.63263980622873      0.00089141472904
C   -6.13981313911873     -0.67413663715361     -0.00609792660607
C   -7.38018411213749     -1.39126618958160      0.00131813493501
C   -4.91868448025621     -1.39175501803000      0.00624257154343
C   -3.68443829568458     -0.68723731573599     -0.00478966852105
C   -2.46081704024768     -1.40334517882457      0.00575341766833
C   -1.23116201232071     -0.70217386488055     -0.00636696112346
C   -0.00756962538737     -1.41741884941102      0.00108956317991
C   1.22364771588843     -0.71527537726392      0.01109518512883
C   2.44567064933149     -1.42964328900682     -0.00065482763106
C   3.67686670284649     -0.72670743155550     -0.00479541202602
C   6.13224884641929     -0.73997883984993     -0.00632338623858
C   4.90351914550401     -1.44445752054090      0.00751768830159
C   8.59901484869081      0.63260386666793     -0.00101133422380
C   8.59174548810050     -0.72485086719319      0.00072504603735
C   7.36486276438985     -1.47033266560598      0.00049486934466
H   -9.52830597181814      1.27684744919284     -0.00270163681798
H   9.54141097460619      1.17457248844457     -0.00206336648518
C   -7.36983790976868     -2.77954514593389      0.00312634335708
C   -4.92459910905015     -2.80843725734101     -0.00460528907921
C   -6.16662249566744     -3.51665219282533      0.00169655107992
C   -3.70251035970491     -3.52468154912026      0.00571878010666
C   -2.46764698511392     -2.82132596280400     -0.00632585824990
C   -0.01513347410770     -2.83314164539971     -0.00604426974092
C   -1.24712184122656     -3.53473217556300      0.00551968366725
C   1.20924506964357     -3.54791467864352      0.00805871345849
C   2.43733602215464     -2.84764173817541     -0.00608104485234
C   4.89430234377080     -2.86112296828604     -0.00526030478103
C   3.66461525504104     -3.56421984553201      0.00761911515957
C   6.12863901474565     -3.58258405771778      0.00096495711699
C   7.33967266469532     -2.85841330737039      0.00248018319869
H   -9.54144911125902     -1.17456346666430      0.00226083090216
H   9.52826186807155     -1.27691907390448      0.00197485379837
H   -8.31516504384864     -3.31814985321231      0.00729857188773
H   8.27915514249207     -3.40714078989363      0.00681973918158
C   -6.14499418870218     -4.92764727278338      0.00302254913999
C   -3.70678334799751     -4.94126171411716     -0.00679841894792
C   -4.95559005800169     -5.64349397349412      0.00116871569699
C   -2.48612132622665     -5.65478557440947      0.00614125209662
C   -1.25405833548005     -4.95612205000132     -0.00503435388927
C   1.20101257386816     -4.96928038819302     -0.00385322963129
C   -0.03033667441341     -5.66952030313900      0.00398997003238
C   3.65375010132847     -4.98074377541453     -0.00309522988330
C   2.42549269587528     -5.68117463552727      0.00628170066869
C   6.09196561781097     -4.99325796338655      0.00325918379042
C   4.89497644461045     -5.69634842095790      0.00202298796027
H   -7.08989238804069     -5.46699984223871      0.00742531082125
H   7.03105520920009     -5.54265853633254      0.00683896355417
C   -4.92354532219813     -7.07882109967734      0.00061394679214
C   -2.48534208823777     -7.08772807792913     -0.00189594564379
C   -3.75168589177895     -7.76394715763627     -0.00170126671874
C   -0.03794895698805     -7.09946487446944     -0.00168022049625
C   -1.27795610040136     -7.77290438466689     -0.00366491325785
C   2.40944432072629     -7.11402201200282     -0.00081701968533
C   1.19474993715296     -7.78618536556242     -0.00296931056689
C   4.84762105249800     -7.13126211057943      0.00168979497423
C   3.66847160587561     -7.80378799294376     -0.00065863938960
H   -5.86994035041618     -7.61383059804164      0.00215798365757
H   5.78824962538815     -7.67633218931421      0.00281691445618
H   -3.75352693944918     -8.85107156923607     -0.00353718114765
H   -1.28430440589466     -8.86087539249706     -0.00809229711623
H   1.18922157469537     -8.87416062058945     -0.00706194725726
H   3.65854661482387     -8.89086063405326     -0.00231318081200

    units angstrom      # Angstroms are the default
    no_reorient         # Geometry fixed, default
    symmetry c1         # C1 symmetry, default
}

set {
    scf_type DF         # Density fitting, faster than exact integrals
    freeze_core True    # Freeze core electrons
    basis jun-cc-pVDZ   # Jun-cc-pVDZ basis set, recommended for sSAPT0 in https://doi.org/10.1063/1.4867135
}

energy('ssapt0')        # Compute sSAPT0 energy, includes also SAPT0
--------------------------------------------------------------------------

  //              Dimer HF             //
    Molecular point group: c1
  Charge       = 1
  Multiplicity = 1
  Basis Set: JUN-CC-PVDZ
    Blend: JUN-CC-PVDZ
  Basis Set: (JUN-CC-PVDZ AUX)
    Blend: JUN-CC-PVDZ-JKFIT
  @DF-RHF Final Energy: -3953.64843852910872
    Total Energy =                      -3953.6484385291078070
 Dipole X            :         -0.0026073            0.0004804           -0.0021269
 Dipole Y            :         -6.9058779            8.7122315            1.8063536
 Dipole Z            :         29.1347735          -39.4115677          -10.2767942
 Magnitude           :                                                   10.4343383
  //            Monomer A HF           //
    Molecular point group: c1
  Multiplicity = 1
  Basis Set: JUN-CC-PVDZ
    Blend: JUN-CC-PVDZ
  Basis Set: (JUN-CC-PVDZ AUX)
    Blend: JUN-CC-PVDZ-JKFIT
  @DF-RHF Final Energy:  -303.29729850036131
    Total Energy =                       -303.2972985003613076
  //            Monomer B HF           //
    Molecular point group: c1

    Geometry (in Angstrom), charge = 0, multiplicity = 1:

       Center              X                  Y                   Z               Mass
    ------------   -----------------  -----------------  -----------------  -----------------
      Gh(C)           0.680062820275     1.308604348936    -7.497487303813    12.000000000000
      Gh(C)          -0.680508179725     1.310632348936    -7.497103303813    12.000000000000
      Gh(N)          -1.085639179725     1.311630348936    -6.178779303813    14.003074004430
      Gh(C)           0.000103820275     1.314906348936    -5.397378303813    12.000000000000
      Gh(C)          -2.477369179725     1.361036348936    -5.710800303813    12.000000000000
      Gh(N)           1.085217820275     1.311630348936    -6.178779303813    14.003074004430
      Gh(H)           1.385141820275     1.300776348936    -8.314926303813     1.007825032230
      Gh(H)          -1.385306179725     1.310442348936    -8.314772303813     1.007825032230
      Gh(H)          -0.000013179725     1.316653348936    -4.316289303813     1.007825032230
      Gh(C)           2.478112820275     1.294738348936    -5.713681303813    12.000000000000
      Gh(H)           2.490587820275     1.322083348936    -4.623428303813     1.007825032230
      Gh(H)           2.967023820275     0.381292348936    -6.060857303813     1.007825032230
      Gh(H)           3.001423820275     2.170221348936    -6.105153303813     1.007825032230
      Gh(H)          -2.857363179725     2.383107348936    -5.790759303813     1.007825032230
      Gh(H)          -3.082683179725     0.690952348936    -6.323864303813     1.007825032230
      Gh(H)          -2.518132179725     1.034052348936    -4.670852303813     1.007825032230
         C           -3.668445443746     7.695098519018     0.520341737522    12.000000000000
         C           -4.847602899072     7.022588180276     0.517975162590    12.000000000000
         C           -4.894963478901     5.587676752467     0.517402251491    12.000000000000
         C           -3.653744858499     4.872076689895     0.525062693221    12.000000000000
         C           -2.409429301220     7.005327385610     0.520536079782    12.000000000000
         C           -2.425481523830     5.572468299839     0.513531190912    12.000000000000
         C           -1.194748196161     7.677490543245     0.522008260324    12.000000000000
         C            0.037954849212     6.990767994693     0.519837556019    12.000000000000
         C            0.030328407694     5.560835908640     0.514354171104    12.000000000000
         C           -1.200988687630     4.860616696851     0.523323905037    12.000000000000
         C            1.277953646089     7.664205792130     0.521213404580    12.000000000000
         C            2.485353904999     6.979043234173     0.518938916675    12.000000000000
         C            2.486124505192     5.546117159176     0.512001167687    12.000000000000
         C            1.254078739919     4.847424462600     0.523629109276    12.000000000000
         C            3.751710411681     7.655258499916     0.519065768056    12.000000000000
         C            4.923561876460     6.970127125926     0.517009287348    12.000000000000
         C            4.955603091600     5.534793812305     0.516848874541    12.000000000000
         C            3.706797354479     4.832556557269     0.521940434710    12.000000000000
         H           -3.658525317484     8.782173768071     0.522026725772     1.007825032230
         H           -1.189217509482     8.765467436296     0.525980136765     1.007825032230
         H            1.284290059161     8.752179784424     0.525372228721     1.007825032230
         H            3.753537907074     8.742381627908     0.520588292371     1.007825032230
         H            5.869954523482     7.505141183591     0.516083920305     1.007825032230
         H           -5.788235887228     7.567648561870     0.516415315234     1.007825032230
         C           -6.091978138422     4.884606362579     0.515530011001    12.000000000000
         C           -6.128665660043     3.473926517734     0.516731188029    12.000000000000
         C           -3.664583919771     3.455528528680     0.513806093412    12.000000000000
         C           -4.894302384424     2.752427124836     0.522975078397    12.000000000000
         C           -2.437339174623     2.738958006020     0.525637871948    12.000000000000
         C           -1.209232037322     3.439233283914     0.511958845156    12.000000000000
         C            1.247137392437     3.426027100365     0.511150238751    12.000000000000
         C            0.015171859844     2.724458188241     0.522834421976    12.000000000000
         C            2.467640992715     2.712636326191     0.522934480099    12.000000000000
         C            3.702545294854     3.416006503360     0.509446519257    12.000000000000
         C            6.144976206658     4.818918715067     0.515615429329    12.000000000000
         C            6.166584179136     3.407930824878     0.517781982766    12.000000000000
         C            4.924605778734     2.699754274290     0.524320729003    12.000000000000
         H            7.089901329916     5.358234115159     0.511853548479     1.007825032230
         H           -7.031045930827     5.434034301793     0.511296796049     1.007825032230
         C           -7.339702220848     2.749757883515     0.515104020588    12.000000000000
         C           -7.364886137784     1.361669720519     0.516869558715    12.000000000000
         C           -4.903508788672     1.335773161096     0.512153294523    12.000000000000
         C           -6.132261332336     0.631285705989     0.524443338506    12.000000000000
         C           -3.676878980242     0.618043491609     0.522781010923    12.000000000000
         C           -2.445660765791     1.320987482198     0.512471300722    12.000000000000
         C           -1.223604861027     0.606670850570     0.523900565253    12.000000000000
         C            0.007633689588     1.308729498173     0.522366218971    12.000000000000
         C            1.231215628021     0.593463039523     0.503539633314    12.000000000000
         C            2.460816920806     1.294638385061     0.523044142205    12.000000000000
         C            3.684426074471     0.578544777148     0.522215355928    12.000000000000
         C            4.918704721813     1.283080910125     0.509813534293    12.000000000000
         C            7.369797898236     2.670828552120     0.516021562973    12.000000000000
         C            7.380158486396     1.282563856791     0.517568245819    12.000000000000
         C            6.139795359397     0.565464972136     0.523896587630    12.000000000000
         H           -8.279194979072     3.298464390060     0.510806468466     1.007825032230
         H            8.315109291754     3.209464445559     0.511810987174     1.007825032230
         C           -8.591760117307     0.616178901980     0.517209986333    12.000000000000
         C           -8.599028783429    -0.741293457293     0.519333110916    12.000000000000
         C           -6.139817318844    -0.782790288218     0.512343769581    12.000000000000
         C           -7.380188291863    -1.499919840646     0.519759831122    12.000000000000
         C           -4.918688659982    -1.500408669094     0.524684267730    12.000000000000
         C           -3.684442475410    -0.795890966800     0.513652027666    12.000000000000
         C           -2.460821219973    -1.511998829889     0.524195113855    12.000000000000
         C           -1.231166192046    -0.810827515945     0.512074735063    12.000000000000
         C           -0.007573805113    -1.526072500475     0.519531259367    12.000000000000
         C            1.223643536163    -0.823929028328     0.529536881315    12.000000000000
         C            2.445666469606    -1.538296940071     0.517786868556    12.000000000000
         C            3.676862523121    -0.835361082620     0.513646284161    12.000000000000
         C            6.132244666694    -0.848632490914     0.512118309948    12.000000000000
         C            4.903514965779    -1.553111171605     0.525959384488    12.000000000000
         C            8.599010668965     0.523950215603     0.517430361963    12.000000000000
         C            8.591741308375    -0.833504518258     0.519166742224    12.000000000000
         C            7.364858584664    -1.578986316670     0.518936565531    12.000000000000
         H           -9.528310151544     1.168193798128     0.515740059369     1.007825032230
         H            9.541406794881     1.065918837380     0.516378329701     1.007825032230
         C           -7.369842089494    -2.888198796998     0.521568039544    12.000000000000
         C           -4.924603288776    -2.917090908405     0.513836407107    12.000000000000
         C           -6.166626675393    -3.625305843890     0.520138247267    12.000000000000
         C           -3.702514539430    -3.633335200185     0.524160476293    12.000000000000
         C           -2.467651164839    -2.929979613868     0.512115837937    12.000000000000
         C           -0.015137653833    -2.941795296464     0.512397426446    12.000000000000
         C           -1.247126020952    -3.643385826627     0.523961379854    12.000000000000
         C            1.209240889918    -3.656568329708     0.526500409645    12.000000000000
         C            2.437331842429    -2.956295389240     0.512360651334    12.000000000000
         C            4.894298164045    -2.969776619350     0.513181391406    12.000000000000
         C            3.664611075316    -3.672873496596     0.526060811346    12.000000000000
         C            6.128634835020    -3.691237708782     0.519406653304    12.000000000000
         C            7.339668484970    -2.967066958435     0.520921879385    12.000000000000
         H           -9.541453290984    -1.283217117729     0.520702527089     1.007825032230
         H            9.528257688346    -1.385572724969     0.520416549985     1.007825032230
         H           -8.315169223574    -3.426803504277     0.525740268074     1.007825032230
         H            8.279150962767    -3.515794440958     0.525261435368     1.007825032230
         C           -6.144998368428    -5.036300923848     0.521464245327    12.000000000000
         C           -3.706787527723    -5.049915365182     0.511643277239    12.000000000000
         C           -4.955594237727    -5.752147624559     0.519610411884    12.000000000000
         C           -2.486125505952    -5.763439225474     0.524582948283    12.000000000000
         C           -1.254062515205    -5.064775701066     0.513407342297    12.000000000000
         C            1.201008394143    -5.077934039257     0.514588466555    12.000000000000
         C           -0.030340854139    -5.778173954203     0.522431666219    12.000000000000
         C            3.653745921603    -5.089397426479     0.515346466303    12.000000000000
         C            2.425488516150    -5.789828286592     0.524723396855    12.000000000000
         C            6.091961438086    -5.101911614451     0.521700879977    12.000000000000
         C            4.894972264885    -5.805002072022     0.520464684147    12.000000000000
         H           -7.089896567766    -5.575653493303     0.525867007008     1.007825032230
         H            7.031051029475    -5.651312187397     0.525280659741     1.007825032230
         C           -4.923549501924    -7.187474750742     0.519055642979    12.000000000000
         C           -2.485346267963    -7.196381728994     0.516545750543    12.000000000000
         C           -3.751690071504    -7.872600808701     0.516740429468    12.000000000000
         C           -0.037953136713    -7.208118525534     0.516761475690    12.000000000000
         C           -1.277960280127    -7.881558035731     0.514776782929    12.000000000000
         C            2.409440141001    -7.222675663067     0.517624676501    12.000000000000
         C            1.194745757428    -7.894839016627     0.515472385620    12.000000000000
         C            4.847616872773    -7.239915761644     0.520131491161    12.000000000000
         C            3.668467426150    -7.912441644008     0.517783056797    12.000000000000
         H           -5.869944530142    -7.722484249106     0.520599679844     1.007825032230
         H            5.788245445663    -7.784985840379     0.521258610643     1.007825032230
         H           -3.753531119175    -8.959725220301     0.514904515039     1.007825032230
         H           -1.284308585620    -8.969529043562     0.510349399070     1.007825032230
         H            1.189217394970    -8.982814271654     0.511379748929     1.007825032230
         H            3.658542435098    -8.999514285118     0.516128515375     1.007825032230

  Charge       = 0
  Multiplicity = 1
  Basis Set: JUN-CC-PVDZ
    Blend: JUN-CC-PVDZ
  Basis Set: (JUN-CC-PVDZ AUX)
    Blend: JUN-CC-PVDZ-JKFIT

    Orbital Energies [Eh]
    ---------------------

    Doubly Occupied:

       1A    -11.264026     2A    -11.263711     3A    -11.263709
       4A    -11.263367     5A    -11.263364     6A    -11.263330
       7A    -11.263172     8A    -11.263148     9A    -11.263143
      10A    -11.262986    11A    -11.262828    12A    -11.262821
      13A    -11.262345    14A    -11.262340    15A    -11.262269
      16A    -11.262268    17A    -11.262216    18A    -11.262183
      19A    -11.262137    20A    -11.262100    21A    -11.262097
      22A    -11.261945    23A    -11.261940    24A    -11.261823
      25A    -11.261810    26A    -11.261793    27A    -11.261789
      28A    -11.261742    29A    -11.261734    30A    -11.261662
      31A    -11.261634    32A    -11.261631    33A    -11.261605
      34A    -11.261604    35A    -11.261582    36A    -11.261535
      37A    -11.261400    38A    -11.261390    39A    -11.261383
      40A    -11.261376    41A    -11.261370    42A    -11.261361
      43A    -11.261357    44A    -11.261342    45A    -11.261337
      46A    -11.261316    47A    -11.261310    48A    -11.261305
      49A    -11.261149    50A    -11.261118    51A    -11.261114
      52A    -11.261034    53A    -11.261032    54A    -11.260962
      55A    -11.259999    56A    -11.259983    57A    -11.259981
      58A    -11.259953    59A    -11.259950    60A    -11.259933
      61A    -11.259375    62A    -11.259348    63A    -11.259346
      64A    -11.259295    65A    -11.259292    66A    -11.259262
      67A    -11.259002    68A    -11.258983    69A    -11.258981
      70A    -11.258955    71A    -11.258952    72A    -11.258938
      73A    -11.254579    74A    -11.254576    75A    -11.254576
      76A    -11.254574    77A    -11.254566    78A    -11.254564
      79A    -11.253727    80A    -11.253723    81A    -11.253720
      82A    -11.253719    83A    -11.253717    84A    -11.253708
      85A    -11.253642    86A    -11.253639    87A    -11.253635
      88A    -11.253634    89A    -11.253632    90A    -11.253624
      91A    -11.253107    92A    -11.253104    93A    -11.253103
      94A    -11.253102    95A    -11.253094    96A    -11.253093
      97A     -1.254095    98A     -1.239113    99A     -1.239111
     100A     -1.220560   101A     -1.220556   102A     -1.215576
     103A     -1.201125   104A     -1.195693   105A     -1.188269
     106A     -1.188267   107A     -1.173845   108A     -1.173843
     109A     -1.155744   110A     -1.155741   111A     -1.152846
     112A     -1.144800   113A     -1.144797   114A     -1.128671
     115A     -1.114827   116A     -1.113241   117A     -1.112608
     118A     -1.112594   119A     -1.111691   120A     -1.088533
     121A     -1.088517   122A     -1.077038   123A     -1.077036
     124A     -1.067724   125A     -1.067694   126A     -1.065091
     127A     -1.046894   128A     -1.046886   129A     -1.040580
     130A     -1.038810   131A     -1.038810   132A     -1.025359
     133A     -1.021524   134A     -1.021473   135A     -1.007266
     136A     -1.006906   137A     -1.003885   138A     -1.000603
     139A     -1.000554   140A     -0.991147   141A     -0.971093
     142A     -0.971045   143A     -0.955968   144A     -0.955912
     145A     -0.905725   146A     -0.905683   147A     -0.905619
     148A     -0.905579   149A     -0.904477   150A     -0.892495
     151A     -0.892437   152A     -0.890483   153A     -0.890426
     154A     -0.889562   155A     -0.872298   156A     -0.869118
     157A     -0.851625   158A     -0.847980   159A     -0.847959
     160A     -0.845715   161A     -0.843123   162A     -0.834657
     163A     -0.834644   164A     -0.828192   165A     -0.828188
     166A     -0.784646   167A     -0.784635   168A     -0.783770
     169A     -0.783744   170A     -0.782390   171A     -0.782370
     172A     -0.782149   173A     -0.767081   174A     -0.760919
     175A     -0.750696   176A     -0.733563   177A     -0.727164
     178A     -0.727149   179A     -0.725185   180A     -0.724631
     181A     -0.724612   182A     -0.718621   183A     -0.713888
     184A     -0.713882   185A     -0.699667   186A     -0.699655
     187A     -0.686254   188A     -0.686036   189A     -0.686033
     190A     -0.682257   191A     -0.682247   192A     -0.678885
     193A     -0.653719   194A     -0.650967   195A     -0.650937
     196A     -0.649932   197A     -0.649918   198A     -0.649644
     199A     -0.641052   200A     -0.641025   201A     -0.640167
     202A     -0.639234   203A     -0.636129   204A     -0.636102
     205A     -0.629233   206A     -0.617716   207A     -0.615379
     208A     -0.615358   209A     -0.608887   210A     -0.608880
     211A     -0.599172   212A     -0.599143   213A     -0.598842
     214A     -0.598711   215A     -0.598688   216A     -0.598161
     217A     -0.595145   218A     -0.595132   219A     -0.594813
     220A     -0.594361   221A     -0.592057   222A     -0.592054
     223A     -0.587519   224A     -0.577858   225A     -0.577846
     226A     -0.575725   227A     -0.575720   228A     -0.573462
     229A     -0.569575   230A     -0.568260   231A     -0.568237
     232A     -0.566848   233A     -0.566838   234A     -0.560977
     235A     -0.558824   236A     -0.558803   237A     -0.558492
     238A     -0.554460   239A     -0.550614   240A     -0.547535
     241A     -0.544324   242A     -0.535025   243A     -0.534995
     244A     -0.533624   245A     -0.533603   246A     -0.528155
     247A     -0.528139   248A     -0.527917   249A     -0.517281
     250A     -0.517247   251A     -0.515407   252A     -0.515402
     253A     -0.509717   254A     -0.509701   255A     -0.498108
     256A     -0.496540   257A     -0.496512   258A     -0.493825
     259A     -0.493815   260A     -0.489462   261A     -0.481526
     262A     -0.477469   263A     -0.477467   264A     -0.474075
     265A     -0.469538   266A     -0.466617   267A     -0.466613
     268A     -0.458857   269A     -0.446816   270A     -0.446756
     271A     -0.441079   272A     -0.440806   273A     -0.440782
     274A     -0.434738   275A     -0.433954   276A     -0.407426
     277A     -0.407403   278A     -0.386462   279A     -0.386415
     280A     -0.385779   281A     -0.385778   282A     -0.383806
     283A     -0.354378   284A     -0.354361   285A     -0.350715
     286A     -0.338142   287A     -0.335642   288A     -0.335573
     289A     -0.332761   290A     -0.332755   291A     -0.307139
     292A     -0.302000   293A     -0.301939   294A     -0.300892
     295A     -0.286221   296A     -0.256510   297A     -0.253553
     298A     -0.253501   299A     -0.204312   300A     -0.204225

  @DF-RHF Final Energy: -3650.33817863716558

   => Energetics <=

    Nuclear Repulsion Energy =          15611.4211649754306563
    One-Electron Energy =              -36072.0954296529089333
    Two-Electron Energy =               16810.3360860403154220
    Total Energy =                      -3650.3381786371646740
 Dipole X            :         -0.0008986            0.0002112           -0.0006875
 Dipole Y            :        123.2140186         -123.2131634            0.0008552
 Dipole Z            :       -587.8234960          587.8310826            0.0075866
 Magnitude           :                                                    0.0076655

    SAPT Results
  --------------------------------------------------------------------------------------------------------
    Electrostatics                 -8.85438843 [mEh]      -5.55621262 [kcal/mol]     -23.24719361 [kJ/mol]
      Elst10,r                     -8.85438843 [mEh]      -5.55621262 [kcal/mol]     -23.24719361 [kJ/mol]

    Exchange                        0.00161097 [mEh]       0.00101090 [kcal/mol]       0.00422961 [kJ/mol]
      Exch10                        0.00161097 [mEh]       0.00101090 [kcal/mol]       0.00422961 [kJ/mol]
      Exch10(S^2)                   0.00161097 [mEh]       0.00101090 [kcal/mol]       0.00422960 [kJ/mol]

    Induction                      -4.10861413 [mEh]      -2.57819429 [kcal/mol]     -10.78716491 [kJ/mol]
      Ind20,r                      -4.01785246 [mEh]      -2.52124048 [kcal/mol]     -10.54887018 [kJ/mol]
      Exch-Ind20,r                  0.00152801 [mEh]       0.00095884 [kcal/mol]       0.00401180 [kJ/mol]
      delta HF,r (2)               -0.09228968 [mEh]      -0.05791265 [kcal/mol]      -0.24230652 [kJ/mol]

    Dispersion                     -2.14080714 [mEh]      -1.34337676 [kcal/mol]      -5.62068838 [kJ/mol]
      Disp20                       -2.14140496 [mEh]      -1.34375190 [kcal/mol]      -5.62225794 [kJ/mol]
      Exch-Disp20                   0.00059781 [mEh]       0.00037513 [kcal/mol]       0.00156955 [kJ/mol]
      Disp20 (SS)                  -1.07070248 [mEh]      -0.67187595 [kcal/mol]      -2.81112897 [kJ/mol]
      Disp20 (OS)                  -1.07070248 [mEh]      -0.67187595 [kcal/mol]      -2.81112897 [kJ/mol]
      Exch-Disp20 (SS)              0.00043627 [mEh]       0.00027376 [kcal/mol]       0.00114542 [kJ/mol]
      Exch-Disp20 (OS)              0.00016154 [mEh]       0.00010137 [kcal/mol]       0.00042413 [kJ/mol]

  Total HF                        -12.96139158 [mEh]      -8.13339601 [kcal/mol]     -34.03012891 [kJ/mol]
  Total SAPT0                     -15.10219873 [mEh]      -9.47677278 [kcal/mol]     -39.65081729 [kJ/mol]

  Special recipe for scaled SAPT0 (see Manual):
    Electrostatics sSAPT0          -8.85438843 [mEh]      -5.55621262 [kcal/mol]     -23.24719361 [kJ/mol]
    Exchange sSAPT0                 0.00161097 [mEh]       0.00101090 [kcal/mol]       0.00422961 [kJ/mol]
    Induction sSAPT0               -4.10861413 [mEh]      -2.57819429 [kcal/mol]     -10.78716491 [kJ/mol]
    Dispersion sSAPT0              -2.14080714 [mEh]      -1.34337676 [kcal/mol]      -5.62068838 [kJ/mol]
  Total sSAPT0                    -15.10219873 [mEh]      -9.47677278 [kcal/mol]     -39.65081729 [kJ/mol]
  --------------------------------------------------------------------------------------------------------

*** Psi4 exiting successfully. Buy a developer a beer!
