                               Psi4 1.9 release

  ==> Input File <==

--------------------------------------------------------------------------
memory 64 GB # how much memory is available ! Depends on the nodes/cores !

molecule dimer {
# monomer A
-1 1    # Charge and multiplicity
B -1.977592e-04  2.742729e-04 5.200034
F  1.123153e-16  1.430594e-17 6.612819
F  1.147860e+00  6.757812e-01 4.728893
F  1.191806e-02 -1.332011e+00 4.729095
F -1.159666e+00  6.560735e-01 4.729174
--
# monomer B
0 1     # Charge and multiplicity
C   -3.66844126402057      7.80375217008252      0.00190004133558
C   -4.84759871934653      7.13124183134024     -0.00046653359696
C   -4.89495929917518      5.69633040353158     -0.00103944469517
C   -3.65374067877320      4.98073034095895      0.00662099703436
C   -2.40942512149445      7.11398103667468      0.00209438359570
C   -2.42547734410473      5.68112195090346     -0.00491050527438
C   -1.19474401643570      7.78614419430947      0.00356656413763
C   0.03795902893699      7.09942164575698      0.00139585983271
C   0.03033258741920      5.66948955970466     -0.00408752508301
C   -1.20098450790502      4.96927034791531      0.00488220885047
C   1.27795782581485      7.77285944319479      0.00277170839332
C   2.48535808472416      7.08769688523756      0.00049722048857
C   2.48612868491717      5.65477081024076     -0.00644052849921
C   1.25408291964399      4.95607811366431      0.00518741308898
C   3.75171459140595      7.76391215098033      0.00062407186893
C   4.92356605618520      7.07878077698995     -0.00143240883900
C   4.95560727132542      5.64344746336949     -0.00159282164606
C   3.70680153420475      4.94121020833308      0.00349873852374
H   -3.65852113775815      8.89082741913536      0.00358502958574
H   -1.18921332975660      8.87412108735996      0.00753844057883
H   1.28429423888630      8.86083343548850      0.00693053253426
H   3.75354208679975      8.85103527897216      0.00214659618464
H   5.86995870320703      7.61379483465560     -0.00235777588134
H   -5.78823170750226      7.67630221293400     -0.00202638095293
C   -6.09197395869619      4.99326001364347     -0.00291168518608
C   -6.12866148031747      3.58258016879823     -0.00171050815740
C   -3.66457974004527      3.56418217974434     -0.00463560277484
C   -4.89429820469869      2.86108077590057      0.00453338221034
C   -2.43733499489796      2.84761165708481      0.00719617576166
C   -1.20922785759670      3.54788693497833     -0.00648285103018
C   1.24714157216223      3.53468075142962     -0.00729145743546
C   0.01517603956900      2.83311183930540      0.00439272578912
C   2.46764517244071      2.82128997725533      0.00449278391269
C   3.70254947457969      3.52466015442405     -0.00899517692985
C   6.14498038638375      4.92757236613191     -0.00282626685777
C   6.16658835886151      3.51658447594213     -0.00065971342101
C   4.92460995845939      2.80840792535402      0.00587903281610
H   7.08990550964105      5.46688776622306     -0.00658814770723
H   -7.03104175110130      5.54268795285765     -0.00714490013730
C   -7.33969804112295      2.85841153457957     -0.00333767559888
C   -7.36488195805880      1.47032337158330     -0.00157213747140
C   -4.90350460894690      1.44442681216000     -0.00628840166334
C   -6.13225715261081      0.73993935705394      0.00600164231964
C   -3.67687480051673      0.72669714267312      0.00433931473643
C   -2.44565658606518      1.42964113326212     -0.00597039546461
C   -1.22360068130162      0.71532450163492      0.00545886906656
C   0.00763786931376      1.41738314923765      0.00392452278437
C   1.23121980774686      0.70211669058719     -0.01490206287210
C   2.46082110053113      1.40329203612573      0.00460244601878
C   3.68443025419614      0.68719842821222      0.00377365974158
C   4.91870890153864      1.39173456118907     -0.00862816189375
C   7.36980207796101      2.77948220318441     -0.00242013321349
C   7.38016266612146      1.39121750785509     -0.00087345036788
C   6.13979953912259      0.67411862320065      0.00545489144369
H   -8.27919079934664      3.40711804112415     -0.00763522772059
H   8.31511347147953      3.31811809662368     -0.00663070901292
C   -8.59175593758115      0.72483255304480     -0.00123170985383
C   -8.59902460370342     -0.63263980622873      0.00089141472904
C   -6.13981313911873     -0.67413663715361     -0.00609792660607
C   -7.38018411213749     -1.39126618958160      0.00131813493501
C   -4.91868448025621     -1.39175501803000      0.00624257154343
C   -3.68443829568458     -0.68723731573599     -0.00478966852105
C   -2.46081704024768     -1.40334517882457      0.00575341766833
C   -1.23116201232071     -0.70217386488055     -0.00636696112346
C   -0.00756962538737     -1.41741884941102      0.00108956317991
C   1.22364771588843     -0.71527537726392      0.01109518512883
C   2.44567064933149     -1.42964328900682     -0.00065482763106
C   3.67686670284649     -0.72670743155550     -0.00479541202602
C   6.13224884641929     -0.73997883984993     -0.00632338623858
C   4.90351914550401     -1.44445752054090      0.00751768830159
C   8.59901484869081      0.63260386666793     -0.00101133422380
C   8.59174548810050     -0.72485086719319      0.00072504603735
C   7.36486276438985     -1.47033266560598      0.00049486934466
H   -9.52830597181814      1.27684744919284     -0.00270163681798
H   9.54141097460619      1.17457248844457     -0.00206336648518
C   -7.36983790976868     -2.77954514593389      0.00312634335708
C   -4.92459910905015     -2.80843725734101     -0.00460528907921
C   -6.16662249566744     -3.51665219282533      0.00169655107992
C   -3.70251035970491     -3.52468154912026      0.00571878010666
C   -2.46764698511392     -2.82132596280400     -0.00632585824990
C   -0.01513347410770     -2.83314164539971     -0.00604426974092
C   -1.24712184122656     -3.53473217556300      0.00551968366725
C   1.20924506964357     -3.54791467864352      0.00805871345849
C   2.43733602215464     -2.84764173817541     -0.00608104485234
C   4.89430234377080     -2.86112296828604     -0.00526030478103
C   3.66461525504104     -3.56421984553201      0.00761911515957
C   6.12863901474565     -3.58258405771778      0.00096495711699
C   7.33967266469532     -2.85841330737039      0.00248018319869
H   -9.54144911125902     -1.17456346666430      0.00226083090216
H   9.52826186807155     -1.27691907390448      0.00197485379837
H   -8.31516504384864     -3.31814985321231      0.00729857188773
H   8.27915514249207     -3.40714078989363      0.00681973918158
C   -6.14499418870218     -4.92764727278338      0.00302254913999
C   -3.70678334799751     -4.94126171411716     -0.00679841894792
C   -4.95559005800169     -5.64349397349412      0.00116871569699
C   -2.48612132622665     -5.65478557440947      0.00614125209662
C   -1.25405833548005     -4.95612205000132     -0.00503435388927
C   1.20101257386816     -4.96928038819302     -0.00385322963129
C   -0.03033667441341     -5.66952030313900      0.00398997003238
C   3.65375010132847     -4.98074377541453     -0.00309522988330
C   2.42549269587528     -5.68117463552727      0.00628170066869
C   6.09196561781097     -4.99325796338655      0.00325918379042
C   4.89497644461045     -5.69634842095790      0.00202298796027
H   -7.08989238804069     -5.46699984223871      0.00742531082125
H   7.03105520920009     -5.54265853633254      0.00683896355417
C   -4.92354532219813     -7.07882109967734      0.00061394679214
C   -2.48534208823777     -7.08772807792913     -0.00189594564379
C   -3.75168589177895     -7.76394715763627     -0.00170126671874
C   -0.03794895698805     -7.09946487446944     -0.00168022049625
C   -1.27795610040136     -7.77290438466689     -0.00366491325785
C   2.40944432072629     -7.11402201200282     -0.00081701968533
C   1.19474993715296     -7.78618536556242     -0.00296931056689
C   4.84762105249800     -7.13126211057943      0.00168979497423
C   3.66847160587561     -7.80378799294376     -0.00065863938960
H   -5.86994035041618     -7.61383059804164      0.00215798365757
H   5.78824962538815     -7.67633218931421      0.00281691445618
H   -3.75352693944918     -8.85107156923607     -0.00353718114765
H   -1.28430440589466     -8.86087539249706     -0.00809229711623
H   1.18922157469537     -8.87416062058945     -0.00706194725726
H   3.65854661482387     -8.89086063405326     -0.00231318081200

    units angstrom      # Angstroms are the default
    no_reorient         # Geometry fixed, default
    symmetry c1         # C1 symmetry, default
}

set {
    scf_type DF         # Density fitting, faster than exact integrals
    freeze_core True    # Freeze core electrons
    basis jun-cc-pVDZ   # Jun-cc-pVDZ basis set, recommended for sSAPT0 in https://doi.org/10.1063/1.4867135
}

energy('ssapt0')        # Compute sSAPT0 energy, includes also SAPT0
--------------------------------------------------------------------------

  //              Dimer HF             //
    Molecular point group: c1
  Charge       = -1
  Multiplicity = 1
  Basis Set: JUN-CC-PVDZ
    Blend: JUN-CC-PVDZ
  Basis Set: (JUN-CC-PVDZ AUX)
    Blend: JUN-CC-PVDZ-JKFIT
  @DF-RHF Final Energy: -4073.10674365509067
    Total Energy =                      -4073.1067436550911225
 Dipole X            :         -0.0001119           -0.0000548           -0.0001666
 Dipole Y            :          0.0010906           -0.0002464            0.0008442
 Dipole Z            :         23.0252441          -30.9463431           -7.9210991
 Magnitude           :                                                    7.9210991
  //            Monomer A HF           //
    Molecular point group: c1
  Multiplicity = 1
  Basis Set: JUN-CC-PVDZ
    Blend: JUN-CC-PVDZ
  Basis Set: (JUN-CC-PVDZ AUX)
    Blend: JUN-CC-PVDZ-JKFIT
  @DF-RHF Final Energy:  -422.77190087816416
    Total Energy =                       -422.7719008781641605
  //            Monomer B HF           //
    Molecular point group: c1

    Geometry (in Angstrom), charge = 0, multiplicity = 1:

       Center              X                  Y                   Z               Mass
    ------------   -----------------  -----------------  -----------------  -----------------
      Gh(B)          -0.000201921932     0.000288800891     4.841878159960    11.009305360000
      Gh(F)          -0.000004162732     0.000014527991     6.254663159960    18.998403162730
      Gh(F)           1.147855837268     0.675795727991     4.370737159960    18.998403162730
      Gh(F)           0.011913897268    -1.331996472009     4.370939159960    18.998403162730
      Gh(F)          -1.159670162732     0.656088027991     4.371018159960    18.998403162730
         C           -3.668445426752     7.803766698073    -0.356255798705    12.000000000000
         C           -4.847602882078     7.131256359331    -0.358622373637    12.000000000000
         C           -4.894963461907     5.696344931522    -0.359195284736    12.000000000000
         C           -3.653744841505     4.980744868950    -0.351534843006    12.000000000000
         C           -2.409429284226     7.113995564665    -0.356061456445    12.000000000000
         C           -2.425481506836     5.681136478894    -0.363066345315    12.000000000000
         C           -1.194748179167     7.786158722300    -0.354589275903    12.000000000000
         C            0.037954866205     7.099436173748    -0.356759980208    12.000000000000
         C            0.030328424687     5.669504087695    -0.362243365123    12.000000000000
         C           -1.200988670637     4.969284875906    -0.353273631190    12.000000000000
         C            1.277953663083     7.772873971185    -0.355384131647    12.000000000000
         C            2.485353921992     7.087711413228    -0.357658619552    12.000000000000
         C            2.486124522185     5.654785338231    -0.364596368540    12.000000000000
         C            1.254078756912     4.956092641655    -0.352968426951    12.000000000000
         C            3.751710428674     7.763926678971    -0.357531768171    12.000000000000
         C            4.923561893453     7.078795304981    -0.359588248879    12.000000000000
         C            4.955603108594     5.643461991360    -0.359748661686    12.000000000000
         C            3.706797371473     4.941224736324    -0.354657101517    12.000000000000
         H           -3.658525300490     8.890841947126    -0.354570810455     1.007825032230
         H           -1.189217492488     8.874135615351    -0.350617399462     1.007825032230
         H            1.284290076155     8.860847963479    -0.351225307506     1.007825032230
         H            3.753537924068     8.851049806963    -0.356009243856     1.007825032230
         H            5.869954540475     7.613809362646    -0.360513615922     1.007825032230
         H           -5.788235870234     7.676316740925    -0.360182220993     1.007825032230
         C           -6.091978121428     4.993274541634    -0.361067525226    12.000000000000
         C           -6.128665643049     3.582594696789    -0.359866348198    12.000000000000
         C           -3.664583902777     3.564196707735    -0.362791442815    12.000000000000
         C           -4.894302367430     2.861095303891    -0.353622457830    12.000000000000
         C           -2.437339157630     2.847626185075    -0.350959664279    12.000000000000
         C           -1.209232020328     3.547901462969    -0.364638691071    12.000000000000
         C            1.247137409430     3.534695279420    -0.365447297476    12.000000000000
         C            0.015171876837     2.833126367296    -0.353763114251    12.000000000000
         C            2.467641009709     2.821304505246    -0.353663056128    12.000000000000
         C            3.702545311848     3.524674682415    -0.367151016970    12.000000000000
         C            6.144976223652     4.927586894122    -0.360982106898    12.000000000000
         C            6.166584196130     3.516599003933    -0.358815553461    12.000000000000
         C            4.924605795728     2.808422453345    -0.352276807224    12.000000000000
         H            7.089901346909     5.466902294214    -0.364743987748     1.007825032230
         H           -7.031045913833     5.542702480848    -0.365300740178     1.007825032230
         C           -7.339702203855     2.858426062570    -0.361493515639    12.000000000000
         C           -7.364886120791     1.470337899574    -0.359727977512    12.000000000000
         C           -4.903508771679     1.444441340151    -0.364444241704    12.000000000000
         C           -6.132261315343     0.739953885044    -0.352154197721    12.000000000000
         C           -3.676878963248     0.726711670664    -0.353816525304    12.000000000000
         C           -2.445660748797     1.429655661253    -0.364126235505    12.000000000000
         C           -1.223604844033     0.715339029625    -0.352696970974    12.000000000000
         C            0.007633706582     1.417397677228    -0.354231317256    12.000000000000
         C            1.231215645015     0.702131218578    -0.373057902912    12.000000000000
         C            2.460816937799     1.403306564116    -0.353553394022    12.000000000000
         C            3.684426091464     0.687212956203    -0.354382180299    12.000000000000
         C            4.918704738807     1.391749089180    -0.366784001934    12.000000000000
         C            7.369797915229     2.779496731175    -0.360575973254    12.000000000000
         C            7.380158503390     1.391232035846    -0.359029290408    12.000000000000
         C            6.139795376391     0.674133151191    -0.352700948597    12.000000000000
         H           -8.279194962078     3.407132569115    -0.365791067761     1.007825032230
         H            8.315109308748     3.318132624614    -0.364786549053     1.007825032230
         C           -8.591760100313     0.724847081035    -0.359387549894    12.000000000000
         C           -8.599028766435    -0.632625278238    -0.357264425311    12.000000000000
         C           -6.139817301850    -0.674122109163    -0.364253766646    12.000000000000
         C           -7.380188274869    -1.391251661591    -0.356837705105    12.000000000000
         C           -4.918688642988    -1.391740490039    -0.351913268497    12.000000000000
         C           -3.684442458416    -0.687222787745    -0.362945508561    12.000000000000
         C           -2.460821202979    -1.403330650834    -0.352402422372    12.000000000000
         C           -1.231166175052    -0.702159336890    -0.364522801164    12.000000000000
         C           -0.007573788119    -1.417404321420    -0.357066276860    12.000000000000
         C            1.223643553157    -0.715260849273    -0.347060654912    12.000000000000
         C            2.445666486600    -1.429628761016    -0.358810667671    12.000000000000
         C            3.676862540115    -0.726692903565    -0.362951252066    12.000000000000
         C            6.132244683688    -0.739964311859    -0.364479226279    12.000000000000
         C            4.903514982772    -1.444442992550    -0.350638151739    12.000000000000
         C            8.599010685959     0.632618394658    -0.359167174264    12.000000000000
         C            8.591741325369    -0.724836339203    -0.357430794003    12.000000000000
         C            7.364858601658    -1.470318137615    -0.357660970696    12.000000000000
         H           -9.528310134550     1.276861977183    -0.360857476858     1.007825032230
         H            9.541406811874     1.174587016435    -0.360219206526     1.007825032230
         C           -7.369842072500    -2.779530617943    -0.355029496683    12.000000000000
         C           -4.924603271782    -2.808422729350    -0.362761129120    12.000000000000
         C           -6.166626658399    -3.516637664835    -0.356459288960    12.000000000000
         C           -3.702514522437    -3.524667021130    -0.352437059934    12.000000000000
         C           -2.467651147846    -2.821311434813    -0.364481698290    12.000000000000
         C           -0.015137636839    -2.833127117409    -0.364200109781    12.000000000000
         C           -1.247126003958    -3.534717647572    -0.352636156373    12.000000000000
         C            1.209240906912    -3.547900150653    -0.350097126582    12.000000000000
         C            2.437331859423    -2.847627210185    -0.364236884893    12.000000000000
         C            4.894298181039    -2.861108440295    -0.363416144821    12.000000000000
         C            3.664611092309    -3.564205317541    -0.350536724881    12.000000000000
         C            6.128634852014    -3.582569529727    -0.357190882923    12.000000000000
         C            7.339668501964    -2.858398779380    -0.355675656842    12.000000000000
         H           -9.541453273991    -1.174548938674    -0.355895009138     1.007825032230
         H            9.528257705340    -1.276904545914    -0.356180986242     1.007825032230
         H           -8.315169206580    -3.318135325222    -0.350857268153     1.007825032230
         H            8.279150979760    -3.407126261903    -0.351336100859     1.007825032230
         C           -6.144998351434    -4.927632744793    -0.355133290900    12.000000000000
         C           -3.706787510729    -4.941247186127    -0.364954258988    12.000000000000
         C           -4.955594220733    -5.643479445504    -0.356987124343    12.000000000000
         C           -2.486125488958    -5.654771046419    -0.352014587944    12.000000000000
         C           -1.254062498212    -4.956107522011    -0.363190193930    12.000000000000
         C            1.201008411136    -4.969265860202    -0.362009069672    12.000000000000
         C           -0.030340837145    -5.669505775148    -0.354165870008    12.000000000000
         C            3.653745938597    -4.980729247424    -0.361251069924    12.000000000000
         C            2.425488533144    -5.681160107537    -0.351874139372    12.000000000000
         C            6.091961455079    -4.993243435396    -0.354896656250    12.000000000000
         C            4.894972281879    -5.696333892967    -0.356132852080    12.000000000000
         H           -7.089896550772    -5.466985314248    -0.350730529219     1.007825032230
         H            7.031051046468    -5.542644008342    -0.351316876486     1.007825032230
         C           -4.923549484930    -7.078806571687    -0.357541893248    12.000000000000
         C           -2.485346250970    -7.087713549939    -0.360051785684    12.000000000000
         C           -3.751690054511    -7.763932629646    -0.359857106759    12.000000000000
         C           -0.037953119720    -7.099450346479    -0.359836060537    12.000000000000
         C           -1.277960263133    -7.772889856676    -0.361820753298    12.000000000000
         C            2.409440157995    -7.114007484012    -0.358972859726    12.000000000000
         C            1.194745774421    -7.786170837572    -0.361125150607    12.000000000000
         C            4.847616889766    -7.131247582589    -0.356466045066    12.000000000000
         C            3.668467443144    -7.803773464953    -0.358814479430    12.000000000000
         H           -5.869944513148    -7.613816070051    -0.355997856383     1.007825032230
         H            5.788245462656    -7.676317661324    -0.355338925584     1.007825032230
         H           -3.753531102181    -8.851057041246    -0.361693021188     1.007825032230
         H           -1.284308568626    -8.860860864507    -0.366248137157     1.007825032230
         H            1.189217411964    -8.874146092599    -0.365217787298     1.007825032230
         H            3.658542452092    -8.890846106063    -0.360469020852     1.007825032230

  Charge       = 0
  Multiplicity = 1
  Basis Set: JUN-CC-PVDZ
    Blend: JUN-CC-PVDZ
  Basis Set: (JUN-CC-PVDZ AUX)
    Blend: JUN-CC-PVDZ-JKFIT

    Orbital Energies [Eh]
    ---------------------

    Doubly Occupied:

       1A    -11.264017     2A    -11.263697     3A    -11.263696
       4A    -11.263347     5A    -11.263345     6A    -11.263309
       7A    -11.263154     8A    -11.263130     9A    -11.263127
      10A    -11.262960    11A    -11.262805    12A    -11.262801
      13A    -11.262323    14A    -11.262320    15A    -11.262253
      16A    -11.262252    17A    -11.262195    18A    -11.262167
      19A    -11.262122    20A    -11.262085    21A    -11.262083
      22A    -11.261934    23A    -11.261930    24A    -11.261811
      25A    -11.261798    26A    -11.261783    27A    -11.261778
      28A    -11.261732    29A    -11.261724    30A    -11.261647
      31A    -11.261621    32A    -11.261618    33A    -11.261591
      34A    -11.261589    35A    -11.261568    36A    -11.261525
      37A    -11.261389    38A    -11.261379    39A    -11.261373
      40A    -11.261367    41A    -11.261362    42A    -11.261354
      43A    -11.261346    44A    -11.261330    45A    -11.261326
      46A    -11.261303    47A    -11.261299    48A    -11.261295
      49A    -11.261130    50A    -11.261097    51A    -11.261094
      52A    -11.261012    53A    -11.261011    54A    -11.260941
      55A    -11.259986    56A    -11.259972    57A    -11.259970
      58A    -11.259941    59A    -11.259939    60A    -11.259923
      61A    -11.259360    62A    -11.259335    63A    -11.259332
      64A    -11.259280    65A    -11.259277    66A    -11.259248
      67A    -11.258989    68A    -11.258972    69A    -11.258970
      70A    -11.258942    71A    -11.258940    72A    -11.258928
      73A    -11.254571    74A    -11.254570    75A    -11.254568
      76A    -11.254565    77A    -11.254560    78A    -11.254558
      79A    -11.253715    80A    -11.253713    81A    -11.253709
      82A    -11.253708    83A    -11.253706    84A    -11.253701
      85A    -11.253630    86A    -11.253629    87A    -11.253625
      88A    -11.253624    89A    -11.253622    90A    -11.253617
      91A    -11.253099    92A    -11.253097    93A    -11.253096
      94A    -11.253093    95A    -11.253088    96A    -11.253086
      97A     -1.254055    98A     -1.239091    99A     -1.239090
     100A     -1.220546   101A     -1.220541   102A     -1.215537
     103A     -1.201114   104A     -1.195681   105A     -1.188237
     106A     -1.188235   107A     -1.173835   108A     -1.173832
     109A     -1.155721   110A     -1.155718   111A     -1.152811
     112A     -1.144790   113A     -1.144787   114A     -1.128653
     115A     -1.114806   116A     -1.113230   117A     -1.112576
     118A     -1.112562   119A     -1.111683   120A     -1.088513
     121A     -1.088499   122A     -1.077027   123A     -1.077025
     124A     -1.067703   125A     -1.067674   126A     -1.065064
     127A     -1.046880   128A     -1.046872   129A     -1.040564
     130A     -1.038800   131A     -1.038799   132A     -1.025334
     133A     -1.021489   134A     -1.021439   135A     -1.007253
     136A     -1.006895   137A     -1.003870   138A     -1.000579
     139A     -1.000531   140A     -0.991137   141A     -0.971073
     142A     -0.971025   143A     -0.955953   144A     -0.955898
     145A     -0.905695   146A     -0.905653   147A     -0.905611
     148A     -0.905570   149A     -0.904442   150A     -0.892470
     151A     -0.892410   152A     -0.890458   153A     -0.890401
     154A     -0.889544   155A     -0.872285   156A     -0.869110
     157A     -0.851613   158A     -0.847958   159A     -0.847936
     160A     -0.845691   161A     -0.843106   162A     -0.834642
     163A     -0.834630   164A     -0.828180   165A     -0.828176
     166A     -0.784627   167A     -0.784616   168A     -0.783746
     169A     -0.783720   170A     -0.782371   171A     -0.782351
     172A     -0.782125   173A     -0.767070   174A     -0.760892
     175A     -0.750667   176A     -0.733552   177A     -0.727149
     178A     -0.727136   179A     -0.725167   180A     -0.724618
     181A     -0.724600   182A     -0.718589   183A     -0.713862
     184A     -0.713857   185A     -0.699651   186A     -0.699639
     187A     -0.686221   188A     -0.686026   189A     -0.686023
     190A     -0.682246   191A     -0.682235   192A     -0.678857
     193A     -0.653699   194A     -0.650948   195A     -0.650918
     196A     -0.649905   197A     -0.649889   198A     -0.649633
     199A     -0.641022   200A     -0.640995   201A     -0.640157
     202A     -0.639226   203A     -0.636105   204A     -0.636078
     205A     -0.629219   206A     -0.617721   207A     -0.615368
     208A     -0.615348   209A     -0.608874   210A     -0.608867
     211A     -0.599156   212A     -0.599118   213A     -0.598821
     214A     -0.598694   215A     -0.598669   216A     -0.598128
     217A     -0.595134   218A     -0.595121   219A     -0.594796
     220A     -0.594332   221A     -0.592035   222A     -0.592032
     223A     -0.587488   224A     -0.577849   225A     -0.577839
     226A     -0.575705   227A     -0.575702   228A     -0.573451
     229A     -0.569583   230A     -0.568230   231A     -0.568206
     232A     -0.566830   233A     -0.566819   234A     -0.560968
     235A     -0.558801   236A     -0.558782   237A     -0.558483
     238A     -0.554443   239A     -0.550599   240A     -0.547528
     241A     -0.544309   242A     -0.535028   243A     -0.534990
     244A     -0.533606   245A     -0.533584   246A     -0.528142
     247A     -0.528127   248A     -0.527887   249A     -0.517250
     250A     -0.517215   251A     -0.515396   252A     -0.515390
     253A     -0.509706   254A     -0.509690   255A     -0.498097
     256A     -0.496523   257A     -0.496497   258A     -0.493817
     259A     -0.493807   260A     -0.489458   261A     -0.481515
     262A     -0.477460   263A     -0.477457   264A     -0.474062
     265A     -0.469522   266A     -0.466601   267A     -0.466596
     268A     -0.458842   269A     -0.446785   270A     -0.446724
     271A     -0.441068   272A     -0.440800   273A     -0.440776
     274A     -0.434728   275A     -0.433946   276A     -0.407415
     277A     -0.407391   278A     -0.386451   279A     -0.386402
     280A     -0.385770   281A     -0.385769   282A     -0.383795
     283A     -0.354365   284A     -0.354349   285A     -0.350703
     286A     -0.338131   287A     -0.335630   288A     -0.335561
     289A     -0.332752   290A     -0.332746   291A     -0.307122
     292A     -0.301986   293A     -0.301924   294A     -0.300883
     295A     -0.286212   296A     -0.256502   297A     -0.253541
     298A     -0.253488   299A     -0.204302   300A     -0.204213

  @DF-RHF Final Energy: -3650.33843733344293

   => Energetics <=

    Nuclear Repulsion Energy =          15611.4211649754324753
    One-Electron Energy =              -36072.1053351995942649
    Two-Electron Energy =               16810.3457328907170449
    Total Energy =                      -3650.3384373334447446
 Dipole X            :         -0.0008003            0.0002304           -0.0005698
 Dipole Y            :          0.0011359           -0.0013052           -0.0001694
 Dipole Z            :        406.0789718         -406.0864768           -0.0075051
 Magnitude           :                                                    0.0075286

    SAPT Results
  --------------------------------------------------------------------------------------------------------
    Electrostatics                 10.92578574 [mEh]       6.85603406 [kcal/mol]      28.68564650 [kJ/mol]
      Elst10,r                     10.92578574 [mEh]       6.85603406 [kcal/mol]      28.68564650 [kJ/mol]

    Exchange                        0.02122236 [mEh]       0.01331723 [kcal/mol]       0.05571930 [kJ/mol]
      Exch10                        0.02122236 [mEh]       0.01331723 [kcal/mol]       0.05571930 [kJ/mol]
      Exch10(S^2)                   0.02122287 [mEh]       0.01331755 [kcal/mol]       0.05572063 [kJ/mol]

    Induction                      -7.35245158 [mEh]      -4.61373302 [kcal/mol]     -19.30385896 [kJ/mol]
      Ind20,r                      -7.40967152 [mEh]      -4.64963908 [kcal/mol]     -19.45408990 [kJ/mol]
      Exch-Ind20,r                  0.00752144 [mEh]       0.00471978 [kcal/mol]       0.01974755 [kJ/mol]
      delta HF,r (2)                0.04969850 [mEh]       0.03118628 [kcal/mol]       0.13048339 [kJ/mol]

    Dispersion                     -1.86013938 [mEh]      -1.16725508 [kcal/mol]      -4.88379527 [kJ/mol]
      Disp20                       -1.87092615 [mEh]      -1.17402389 [kcal/mol]      -4.91211594 [kJ/mol]
      Exch-Disp20                   0.01078677 [mEh]       0.00676880 [kcal/mol]       0.02832067 [kJ/mol]
      Disp20 (SS)                  -0.93546308 [mEh]      -0.58701194 [kcal/mol]      -2.45605797 [kJ/mol]
      Disp20 (OS)                  -0.93546308 [mEh]      -0.58701194 [kcal/mol]      -2.45605797 [kJ/mol]
      Exch-Disp20 (SS)              0.00795919 [mEh]       0.00499446 [kcal/mol]       0.02089684 [kJ/mol]
      Exch-Disp20 (OS)              0.00282759 [mEh]       0.00177434 [kcal/mol]       0.00742383 [kJ/mol]

  Total HF                          3.59455652 [mEh]       2.25561827 [kcal/mol]       9.43750683 [kJ/mol]
  Total SAPT0                       1.73441714 [mEh]       1.08836318 [kcal/mol]       4.55371157 [kJ/mol]

  Special recipe for scaled SAPT0 (see Manual):
    Electrostatics sSAPT0          10.92578574 [mEh]       6.85603406 [kcal/mol]      28.68564650 [kJ/mol]
    Exchange sSAPT0                 0.02122236 [mEh]       0.01331723 [kcal/mol]       0.05571930 [kJ/mol]
    Induction sSAPT0               -7.35245212 [mEh]      -4.61373336 [kcal/mol]     -19.30386038 [kJ/mol]
    Dispersion sSAPT0              -1.86014015 [mEh]      -1.16725557 [kcal/mol]      -4.88379730 [kJ/mol]
  Total sSAPT0                      1.73441582 [mEh]       1.08836236 [kcal/mol]       4.55370812 [kJ/mol]
  --------------------------------------------------------------------------------------------------------

*** Psi4 exiting successfully. Buy a developer a beer!
