                               Psi4 1.9 release

  ==> Input File <==

--------------------------------------------------------------------------
memory 32 GB # how much memory is available ! Depends on the nodes/cores !

molecule dimer {
# monomer A
-1 1    # Charge and multiplicity
B -1.977592e-04  2.742729e-04 2.000034
F  1.123153e-16  1.430594e-17 3.412819
F  1.147860e+00  6.757812e-01 1.528893
F  1.191806e-02 -1.332011e+00 1.529095
F -1.159666e+00  6.560735e-01 1.529174
--
# monomer B
0 1     # Charge and multiplicity
C   1.22531237526482      0.70753866091955      0.00613762728373
C   1.22532433589282     -0.70753852257020     -0.00619318228664
C   -0.00000567409046      1.41496628609039     -0.00672680580738
C   2.45644923379077      1.41832825917820      0.00902448468363
C   0.00001130712078     -1.41497612663474      0.00347275151708
C   -1.22530046906674      0.70754574598412      0.00838914760619
C   2.45643823516184     -1.41832293188077     -0.00843833914343
C   -0.00000085313587      2.83680140328112     -0.00913035594137
C   3.68182717731192      0.70931832800114     -0.00808954934571
C   2.45512052870677      2.83422403348893     -0.00819210630633
C   3.68182158506039     -0.70933346742900      0.00798293467272
C   -1.22531311884624     -0.70752714354401     -0.00512042085974
C   1.22670006104402      3.54346985599427      0.00816696660346
C   0.00000526469929     -2.83678176723568      0.00832091913869
C   -2.45643555300670      1.41831729028492      0.00842454345199
C   2.45512389762097     -2.83422965658853      0.00783102630520
C   -1.22671388474763      3.54346943575023      0.00827029982280
C   4.91451777504333      1.42717324448953     -0.00160886631602
C   3.69315067131765      3.54279566454522     -0.00155906667985
C   -2.45643712022637     -1.41831290883911     -0.00846337726810
C   1.22670532178455     -3.54347386990643     -0.00780316414624
C   -2.45512491866593      2.83421703463423     -0.00818572995999
C   4.91452486062398     -1.42718653794377      0.00136387641845
C   1.22142509354026      4.97013443726031      0.00150231067809
C   4.89300870916237      2.82518837202648     -0.00039219795739
C   -1.22669652864725     -3.54347062507680     -0.00753595973677
C   -3.68181849668397      0.70932533873199     -0.00807686886569
C   3.69314758099218     -3.54280096939050      0.00148176697923
C   -1.22143177215231      4.97012866986289      0.00168580605083
C   6.13477145276790      0.68054831910577     -0.00083909176631
C   3.65678936045204      4.97295361556775     -0.00065042889723
C   -2.45512642789169     -2.83421472106065      0.00758666850712
C   -3.68181869921921     -0.70932533146830      0.00810055625144
C   4.89301309775526     -2.82519973363176      0.00021895393805
C   -0.00000059327114      5.65044773803267      0.00045449734393
C   6.13477559217374     -0.68055448207492      0.00042622874941
C   2.47813196269732      5.65357712333155      0.00063835075260
C   1.22142288457925     -4.97012668293268     -0.00129718634452
C   -3.69316190412301      3.54279732619245     -0.00139355922051
C   -1.22142804110313     -4.97011793159564     -0.00140994817719
C   -4.91452132810043      1.42717581899491     -0.00153192130862
C   3.65678749952045     -4.97295485423912      0.00080007163680
C   -2.47813805026426      5.65357479452875      0.00092287576113
C   -3.69314125872231     -3.54278984697859      0.00136564082345
C   -4.91451200321153     -1.42718062802730      0.00139857359209
C   -0.00000552908399     -5.65043791501335      0.00005899322272
C   -4.89302000425900      2.82518897091939     -0.00040227981744
C   2.47812647313991     -5.65357317188818     -0.00029052915548
C   -3.65679823041642      4.97295655404175     -0.00047374852278
C   -4.89299899901461     -2.82519139505969      0.00006491824035
C   -2.47812801824129     -5.65356579800621     -0.00056571680280
C   -6.13477002348955      0.68054913825639     -0.00086464346868
C   -3.65678835334731     -4.97294365097028      0.00058578382008
C   -6.13476456307132     -0.68055354348201      0.00040575295444
H   5.83528897565761      3.36927626695423      0.00396712770529
H   7.07385965258860      1.22821762089947     -0.00037744837300
H   4.60066374401555      5.51238117445323     -0.00014522814529
H   5.83528386714679     -3.36930568472863     -0.00423551337640
H   -0.00001167146422      6.73853104613662     -0.00389474766392
H   7.07386165167227     -1.22822657074368     -0.00008250934481
H   2.47331421164041      6.74068466339473      0.00017162982210
H   4.60066897122302     -5.51237575717576      0.00039007446835
H   -2.47331820069565      6.74068209160650      0.00047297644710
H   -0.00000978838621     -6.73852780445195      0.00458867820736
H   -5.83530143450167      3.36927132229595      0.00410314985360
H   2.47330840367253     -6.74068500242887      0.00027980126949
H   -4.60067436136587      5.51237839860371      0.00002010017831
H   -5.83527902699321     -3.36928859177951     -0.00451481925734
H   -2.47329986759855     -6.74067870613986     -0.00016951527498
H   -7.07385728692578      1.22822084484047     -0.00046143985387
H   -4.60067330624313     -5.51236229778631      0.00021776644566
H   -7.07385645456741     -1.22822025997701     -0.00017736581114

    units angstrom      # Angstroms are the default
    no_reorient         # Geometry fixed, default
    symmetry c1         # C1 symmetry, default
}

set {
    scf_type DF         # Density fitting, faster than exact integrals
    freeze_core True    # Freeze core electrons
    basis jun-cc-pVDZ   # Jun-cc-pVDZ basis set, recommended for sSAPT0 in https://doi.org/10.1063/1.4867135
}

energy('ssapt0')        # Compute sSAPT0 energy, includes also SAPT0
--------------------------------------------------------------------------

  //              Dimer HF             //
    Molecular point group: c1
  Charge       = -1
  Multiplicity = 1
  Basis Set: JUN-CC-PVDZ
    Blend: JUN-CC-PVDZ
  Basis Set: (JUN-CC-PVDZ AUX)
    Blend: JUN-CC-PVDZ-JKFIT
  @DF-RHF Final Energy: -2478.05616742344046
    Total Energy =                      -2478.0561674234413658
 Dipole X            :         -0.0009282            0.0000481           -0.0008802
 Dipole Y            :          0.0056890           -0.0001453            0.0055438
 Dipole Z            :         11.9832239          -12.2605115           -0.2772876
 Magnitude           :                                                    0.2773444
  //            Monomer A HF           //
    Molecular point group: c1
  Multiplicity = 1
  Basis Set: JUN-CC-PVDZ
    Blend: JUN-CC-PVDZ
  Basis Set: (JUN-CC-PVDZ AUX)
    Blend: JUN-CC-PVDZ-JKFIT
  @DF-RHF Final Energy:  -422.77987929191966
    Total Energy =                       -422.7798792919196558
  //            Monomer B HF           //
    Molecular point group: c1

    Geometry (in Angstrom), charge = 0, multiplicity = 1:

       Center              X                  Y                   Z               Mass
    ------------   -----------------  -----------------  -----------------  -----------------
      Gh(B)          -0.000198161052     0.000273808717     1.768996875443    11.009305360000
      Gh(F)          -0.000000401852    -0.000000464183     3.181781875443    18.998403162730
      Gh(F)           1.147859598148     0.675780735817     1.297855875443    18.998403162730
      Gh(F)           0.011917658148    -1.332011464183     1.298057875443    18.998403162730
      Gh(F)          -1.159666401852     0.656073035817     1.298136875443    18.998403162730
         C            1.225311973413     0.707538196736    -0.224899497273    12.000000000000
         C            1.225323934041    -0.707538986754    -0.237230306844    12.000000000000
         C           -0.000006075942     1.414965821907    -0.237763930364    12.000000000000
         C            2.456448831939     1.418327794995    -0.222012639873    12.000000000000
         C            0.000010905269    -1.414976590818    -0.227564373040    12.000000000000
         C           -1.225300870919     0.707545281801    -0.222647976951    12.000000000000
         C            2.456437833310    -1.418323396064    -0.239475463700    12.000000000000
         C           -0.000001254988     2.836800939098    -0.240167480498    12.000000000000
         C            3.681826775460     0.709317863818    -0.239126673903    12.000000000000
         C            2.455120126855     2.834223569306    -0.239229230863    12.000000000000
         C            3.681821183209    -0.709333931612    -0.223054189884    12.000000000000
         C           -1.225313520698    -0.707527607727    -0.236157545417    12.000000000000
         C            1.226699659192     3.543469391811    -0.222870157954    12.000000000000
         C            0.000004862847    -2.836782231419    -0.222716205418    12.000000000000
         C           -2.456435954859     1.418316826102    -0.222612581105    12.000000000000
         C            2.455123495769    -2.834230120772    -0.223206098252    12.000000000000
         C           -1.226714286599     3.543468971567    -0.222766824734    12.000000000000
         C            4.914517373191     1.427172780306    -0.232645990873    12.000000000000
         C            3.693150269466     3.542795200362    -0.232596191237    12.000000000000
         C           -2.456437522078    -1.418313373022    -0.239500501825    12.000000000000
         C            1.226704919933    -3.543474334090    -0.238840288703    12.000000000000
         C           -2.455125320518     2.834216570451    -0.239222854517    12.000000000000
         C            4.914524458772    -1.427187002127    -0.229673248139    12.000000000000
         C            1.221424691688     4.970133973077    -0.229534813879    12.000000000000
         C            4.893008307311     2.825187907843    -0.231429322514    12.000000000000
         C           -1.226696930499    -3.543471089260    -0.238573084294    12.000000000000
         C           -3.681818898536     0.709324874549    -0.239113993423    12.000000000000
         C            3.693147179140    -3.542801433574    -0.229555357578    12.000000000000
         C           -1.221432174004     4.970128205680    -0.229351318506    12.000000000000
         C            6.134771050916     0.680547854922    -0.231876216323    12.000000000000
         C            3.656788958600     4.972953151384    -0.231687553454    12.000000000000
         C           -2.455126829744    -2.834215185244    -0.223450456050    12.000000000000
         C           -3.681819101071    -0.709325795652    -0.222936568306    12.000000000000
         C            4.893012695903    -2.825200197815    -0.230818170619    12.000000000000
         C           -0.000000995123     5.650447273849    -0.230582627213    12.000000000000
         C            6.134775190322    -0.680554946258    -0.230610895808    12.000000000000
         C            2.478131560845     5.653576659148    -0.230398773804    12.000000000000
         C            1.221422482727    -4.970127147116    -0.232334310902    12.000000000000
         C           -3.693162305975     3.542796862009    -0.232430683778    12.000000000000
         C           -1.221428442955    -4.970118395779    -0.232447072734    12.000000000000
         C           -4.914521729952     1.427175354812    -0.232569045866    12.000000000000
         C            3.656787097669    -4.972955318422    -0.230237052920    12.000000000000
         C           -2.478138452116     5.653574330345    -0.230114248796    12.000000000000
         C           -3.693141660574    -3.542790311162    -0.229671483734    12.000000000000
         C           -4.914512405063    -1.427181092211    -0.229638550965    12.000000000000
         C           -0.000005930936    -5.650438379197    -0.230978131334    12.000000000000
         C           -4.893020406111     2.825188506736    -0.231439404374    12.000000000000
         C            2.478126071288    -5.653573636072    -0.231327653713    12.000000000000
         C           -3.656798632268     4.972956089858    -0.231510873080    12.000000000000
         C           -4.892999400866    -2.825191859243    -0.230972206317    12.000000000000
         C           -2.478128420093    -5.653566262190    -0.231602841360    12.000000000000
         C           -6.134770425341     0.680548674073    -0.231901768026    12.000000000000
         C           -3.656788755199    -4.972944115154    -0.230451340737    12.000000000000
         C           -6.134764964923    -0.680554007665    -0.230631371603    12.000000000000
         H            5.835288573806     3.369275802771    -0.227069996852     1.007825032230
         H            7.073859250737     1.228217156716    -0.231414572930     1.007825032230
         H            4.600663342164     5.512380710270    -0.231182352702     1.007825032230
         H            5.835283465295    -3.369306148912    -0.235272637933     1.007825032230
         H           -0.000012073316     6.738530581953    -0.234931872221     1.007825032230
         H            7.073861249820    -1.228227034927    -0.231119633902     1.007825032230
         H            2.473313809789     6.740684199211    -0.230865494735     1.007825032230
         H            4.600668569371    -5.512376221359    -0.230647050089     1.007825032230
         H           -2.473318602548     6.740681627423    -0.230564148110     1.007825032230
         H           -0.000010190238    -6.738528268635    -0.226448446350     1.007825032230
         H           -5.835301836354     3.369270858113    -0.226933974703     1.007825032230
         H            2.473308001821    -6.740685466612    -0.230757323288     1.007825032230
         H           -4.600674763218     5.512377934420    -0.231017024379     1.007825032230
         H           -5.835279428845    -3.369289055963    -0.235551943814     1.007825032230
         H           -2.473300269450    -6.740679170323    -0.231206639832     1.007825032230
         H           -7.073857688778     1.228220380657    -0.231498564411     1.007825032230
         H           -4.600673708095    -5.512362761970    -0.230819358111     1.007825032230
         H           -7.073856856419    -1.228220724160    -0.231214490368     1.007825032230

  Charge       = 0
  Multiplicity = 1
  Basis Set: JUN-CC-PVDZ
    Blend: JUN-CC-PVDZ
  Basis Set: (JUN-CC-PVDZ AUX)
    Blend: JUN-CC-PVDZ-JKFIT

    Orbital Energies [Eh]
    ---------------------

    Doubly Occupied:

       1A    -11.260651     2A    -11.260200     3A    -11.260199
       4A    -11.259408     5A    -11.259408     6A    -11.259221
       7A    -11.258947     8A    -11.258892     9A    -11.258892
      10A    -11.258583    11A    -11.258579    12A    -11.258463
      13A    -11.258424    14A    -11.258421    15A    -11.258414
      16A    -11.258352    17A    -11.258347    18A    -11.258338
      19A    -11.258335    20A    -11.258331    21A    -11.258326
      22A    -11.258267    23A    -11.258263    24A    -11.258040
      25A    -11.257218    26A    -11.257159    27A    -11.257158
      28A    -11.257023    29A    -11.257022    30A    -11.256942
      31A    -11.256303    32A    -11.256234    33A    -11.256234
      34A    -11.256128    35A    -11.256127    36A    -11.256081
      37A    -11.252246    38A    -11.252246    39A    -11.252245
      40A    -11.252243    41A    -11.252241    42A    -11.252239
      43A    -11.251366    44A    -11.251365    45A    -11.251364
      46A    -11.251287    47A    -11.251286    48A    -11.251284
      49A    -11.250808    50A    -11.250807    51A    -11.250806
      52A    -11.250803    53A    -11.250802    54A    -11.250800
      55A     -1.243872    56A     -1.219685    57A     -1.219684
      58A     -1.189445    59A     -1.189438    60A     -1.180756
      61A     -1.157491    62A     -1.148890    63A     -1.135329
      64A     -1.135322    65A     -1.113124    66A     -1.113119
      67A     -1.082300    68A     -1.082293    69A     -1.078438
      70A     -1.065920    71A     -1.065916    72A     -1.039303
      73A     -1.024116    74A     -1.021576    75A     -1.021533
      76A     -1.017671    77A     -1.012736    78A     -0.986894
      79A     -0.986848    80A     -0.961796    81A     -0.961746
      82A     -0.894210    83A     -0.894183    84A     -0.887762
      85A     -0.886017    86A     -0.885959    87A     -0.881268
      88A     -0.881220    89A     -0.861810    90A     -0.837371
      91A     -0.818118    92A     -0.816457    93A     -0.812000
      94A     -0.811991    95A     -0.794612    96A     -0.794601
      97A     -0.746484    98A     -0.744722    99A     -0.733255
     100A     -0.733246   101A     -0.732100   102A     -0.732077
     103A     -0.716366   104A     -0.698891   105A     -0.698880
     106A     -0.693471   107A     -0.693455   108A     -0.661147
     109A     -0.652925   110A     -0.650995   111A     -0.650179
     112A     -0.650173   113A     -0.639287   114A     -0.639285
     115A     -0.629590   116A     -0.627392   117A     -0.627376
     118A     -0.606530   119A     -0.605780   120A     -0.601532
     121A     -0.599639   122A     -0.599608   123A     -0.593540
     124A     -0.591025   125A     -0.591014   126A     -0.585235
     127A     -0.576366   128A     -0.576359   129A     -0.567265
     130A     -0.567251   131A     -0.565810   132A     -0.565791
     133A     -0.558563   134A     -0.554753   135A     -0.554746
     136A     -0.538517   137A     -0.538515   138A     -0.538155
     139A     -0.538148   140A     -0.529628   141A     -0.528215
     142A     -0.522779   143A     -0.522773   144A     -0.500428
     145A     -0.495547   146A     -0.493157   147A     -0.487798
     148A     -0.484967   149A     -0.481645   150A     -0.481637
     151A     -0.470349   152A     -0.470331   153A     -0.450862
     154A     -0.450784   155A     -0.439038   156A     -0.439028
     157A     -0.404687   158A     -0.404664   159A     -0.403318
     160A     -0.375390   161A     -0.375388   162A     -0.349067
     163A     -0.337474   164A     -0.336460   165A     -0.336403
     166A     -0.311011   167A     -0.298088   168A     -0.284231
     169A     -0.284178   170A     -0.224823   171A     -0.224757

  @DF-RHF Final Energy: -2055.89567065922347

   => Energetics <=

    Nuclear Repulsion Energy =           6452.5568002797772351
    One-Electron Energy =              -15636.5162533391521720
    Two-Electron Energy =                7128.0637824001514673
    Total Energy =                      -2055.8956706592234696
 Dipole X            :          0.0000026            0.0000419            0.0000445
 Dipole Y            :          0.0000752           -0.0000426            0.0000327
 Dipole Z            :        149.3242837         -149.3175794            0.0067043
 Magnitude           :                                                    0.0067045

    SAPT Results
  --------------------------------------------------------------------------------------------------------
    Electrostatics               -700.52992584 [mEh]    -439.58916513 [kcal/mol]   -1839.24106691 [kJ/mol]
      Elst10,r                   -700.52992584 [mEh]    -439.58916513 [kcal/mol]   -1839.24106691 [kJ/mol]

    Exchange                     1558.62760272 [mEh]     978.05358680 [kcal/mol]    4092.17620715 [kJ/mol]
      Exch10                     1558.62760272 [mEh]     978.05358680 [kcal/mol]    4092.17620715 [kJ/mol]
      Exch10(S^2)                1360.45524350 [mEh]     853.69855395 [kcal/mol]    3571.87474972 [kJ/mol]

    Induction                    -238.71514917 [mEh]    -149.79601764 [kcal/mol]    -626.74653780 [kJ/mol]
      Ind20,r                   -1174.46796449 [mEh]    -736.98977437 [kcal/mol]   -3083.56521595 [kJ/mol]
      Exch-Ind20,r                807.98502963 [mEh]     507.01826077 [kcal/mol]    2121.36440304 [kJ/mol]
      delta HF,r (2)              127.76778569 [mEh]      80.17549596 [kcal/mol]     335.45427511 [kJ/mol]

    Dispersion                   -123.98417184 [mEh]     -77.80124243 [kcal/mol]    -325.52039831 [kJ/mol]
      Disp20                     -208.56520617 [mEh]    -130.87664277 [kcal/mol]    -547.58787337 [kJ/mol]
      Exch-Disp20                  84.58103434 [mEh]      53.07540035 [kcal/mol]     222.06747506 [kJ/mol]
      Disp20 (SS)                -104.28260309 [mEh]     -65.43832139 [kcal/mol]    -273.79393668 [kJ/mol]
      Disp20 (OS)                -104.28260309 [mEh]     -65.43832139 [kcal/mol]    -273.79393668 [kJ/mol]
      Exch-Disp20 (SS)             38.92643786 [mEh]      24.42670854 [kcal/mol]     102.20134852 [kJ/mol]
      Exch-Disp20 (OS)             45.65459648 [mEh]      28.64869181 [kcal/mol]     119.86612654 [kJ/mol]

  Total HF                        619.38252770 [mEh]     388.66840403 [kcal/mol]    1626.18860244 [kJ/mol]
  Total SAPT0                     495.39835587 [mEh]     310.86716160 [kcal/mol]    1300.66820414 [kJ/mol]

  Special recipe for scaled SAPT0 (see Manual):
    Electrostatics sSAPT0        -700.52992584 [mEh]    -439.58916513 [kcal/mol]   -1839.24106691 [kJ/mol]
    Exchange sSAPT0              1558.62760272 [mEh]     978.05358680 [kcal/mol]    4092.17620715 [kJ/mol]
    Induction sSAPT0              168.30359586 [mEh]     105.61210087 [kcal/mol]     441.88103006 [kJ/mol]
    Dispersion sSAPT0             -81.37686454 [mEh]     -51.06475344 [kcal/mol]    -213.65492841 [kJ/mol]
  Total sSAPT0                    945.02440820 [mEh]     593.01176910 [kcal/mol]    2481.16124190 [kJ/mol]
  --------------------------------------------------------------------------------------------------------

*** Psi4 exiting successfully. Buy a developer a beer!
