                               Psi4 1.9 release

  ==> Input File <==

--------------------------------------------------------------------------
memory 47 GB # how much memory is available ! Depends on the nodes/cores !

molecule dimer {
# monomer A
+1 1    # Charge and multiplicity
C  0.680067 -0.008042  -9.215929
C -0.680504 -0.006014  -9.215545
N -1.085635 -0.005016  -7.897221
C  0.000108 -0.001740  -7.115820
C -2.477365  0.044390  -7.429242
N  1.085222 -0.005016  -7.897221
H  1.385146 -0.015870 -10.033368
H -1.385302 -0.006204 -10.033214
H -0.000009  0.000007  -6.034731
C  2.478117 -0.021908  -7.432123
H  2.490592  0.005437  -6.341870
H  2.967028 -0.935354  -7.779299
H  3.001428  0.853575  -7.823595
H -2.857359  1.066461  -7.509201
H -3.082679 -0.625694  -8.042306
H -2.518128 -0.282594  -6.389294
--
# monomer B
0 1     # Charge and multiplicity
C   -3.66844126402057      7.80375217008252      0.00190004133558
C   -4.84759871934653      7.13124183134024     -0.00046653359696
C   -4.89495929917518      5.69633040353158     -0.00103944469517
C   -3.65374067877320      4.98073034095895      0.00662099703436
C   -2.40942512149445      7.11398103667468      0.00209438359570
C   -2.42547734410473      5.68112195090346     -0.00491050527438
C   -1.19474401643570      7.78614419430947      0.00356656413763
C   0.03795902893699      7.09942164575698      0.00139585983271
C   0.03033258741920      5.66948955970466     -0.00408752508301
C   -1.20098450790502      4.96927034791531      0.00488220885047
C   1.27795782581485      7.77285944319479      0.00277170839332
C   2.48535808472416      7.08769688523756      0.00049722048857
C   2.48612868491717      5.65477081024076     -0.00644052849921
C   1.25408291964399      4.95607811366431      0.00518741308898
C   3.75171459140595      7.76391215098033      0.00062407186893
C   4.92356605618520      7.07878077698995     -0.00143240883900
C   4.95560727132542      5.64344746336949     -0.00159282164606
C   3.70680153420475      4.94121020833308      0.00349873852374
H   -3.65852113775815      8.89082741913536      0.00358502958574
H   -1.18921332975660      8.87412108735996      0.00753844057883
H   1.28429423888630      8.86083343548850      0.00693053253426
H   3.75354208679975      8.85103527897216      0.00214659618464
H   5.86995870320703      7.61379483465560     -0.00235777588134
H   -5.78823170750226      7.67630221293400     -0.00202638095293
C   -6.09197395869619      4.99326001364347     -0.00291168518608
C   -6.12866148031747      3.58258016879823     -0.00171050815740
C   -3.66457974004527      3.56418217974434     -0.00463560277484
C   -4.89429820469869      2.86108077590057      0.00453338221034
C   -2.43733499489796      2.84761165708481      0.00719617576166
C   -1.20922785759670      3.54788693497833     -0.00648285103018
C   1.24714157216223      3.53468075142962     -0.00729145743546
C   0.01517603956900      2.83311183930540      0.00439272578912
C   2.46764517244071      2.82128997725533      0.00449278391269
C   3.70254947457969      3.52466015442405     -0.00899517692985
C   6.14498038638375      4.92757236613191     -0.00282626685777
C   6.16658835886151      3.51658447594213     -0.00065971342101
C   4.92460995845939      2.80840792535402      0.00587903281610
H   7.08990550964105      5.46688776622306     -0.00658814770723
H   -7.03104175110130      5.54268795285765     -0.00714490013730
C   -7.33969804112295      2.85841153457957     -0.00333767559888
C   -7.36488195805880      1.47032337158330     -0.00157213747140
C   -4.90350460894690      1.44442681216000     -0.00628840166334
C   -6.13225715261081      0.73993935705394      0.00600164231964
C   -3.67687480051673      0.72669714267312      0.00433931473643
C   -2.44565658606518      1.42964113326212     -0.00597039546461
C   -1.22360068130162      0.71532450163492      0.00545886906656
C   0.00763786931376      1.41738314923765      0.00392452278437
C   1.23121980774686      0.70211669058719     -0.01490206287210
C   2.46082110053113      1.40329203612573      0.00460244601878
C   3.68443025419614      0.68719842821222      0.00377365974158
C   4.91870890153864      1.39173456118907     -0.00862816189375
C   7.36980207796101      2.77948220318441     -0.00242013321349
C   7.38016266612146      1.39121750785509     -0.00087345036788
C   6.13979953912259      0.67411862320065      0.00545489144369
H   -8.27919079934664      3.40711804112415     -0.00763522772059
H   8.31511347147953      3.31811809662368     -0.00663070901292
C   -8.59175593758115      0.72483255304480     -0.00123170985383
C   -8.59902460370342     -0.63263980622873      0.00089141472904
C   -6.13981313911873     -0.67413663715361     -0.00609792660607
C   -7.38018411213749     -1.39126618958160      0.00131813493501
C   -4.91868448025621     -1.39175501803000      0.00624257154343
C   -3.68443829568458     -0.68723731573599     -0.00478966852105
C   -2.46081704024768     -1.40334517882457      0.00575341766833
C   -1.23116201232071     -0.70217386488055     -0.00636696112346
C   -0.00756962538737     -1.41741884941102      0.00108956317991
C   1.22364771588843     -0.71527537726392      0.01109518512883
C   2.44567064933149     -1.42964328900682     -0.00065482763106
C   3.67686670284649     -0.72670743155550     -0.00479541202602
C   6.13224884641929     -0.73997883984993     -0.00632338623858
C   4.90351914550401     -1.44445752054090      0.00751768830159
C   8.59901484869081      0.63260386666793     -0.00101133422380
C   8.59174548810050     -0.72485086719319      0.00072504603735
C   7.36486276438985     -1.47033266560598      0.00049486934466
H   -9.52830597181814      1.27684744919284     -0.00270163681798
H   9.54141097460619      1.17457248844457     -0.00206336648518
C   -7.36983790976868     -2.77954514593389      0.00312634335708
C   -4.92459910905015     -2.80843725734101     -0.00460528907921
C   -6.16662249566744     -3.51665219282533      0.00169655107992
C   -3.70251035970491     -3.52468154912026      0.00571878010666
C   -2.46764698511392     -2.82132596280400     -0.00632585824990
C   -0.01513347410770     -2.83314164539971     -0.00604426974092
C   -1.24712184122656     -3.53473217556300      0.00551968366725
C   1.20924506964357     -3.54791467864352      0.00805871345849
C   2.43733602215464     -2.84764173817541     -0.00608104485234
C   4.89430234377080     -2.86112296828604     -0.00526030478103
C   3.66461525504104     -3.56421984553201      0.00761911515957
C   6.12863901474565     -3.58258405771778      0.00096495711699
C   7.33967266469532     -2.85841330737039      0.00248018319869
H   -9.54144911125902     -1.17456346666430      0.00226083090216
H   9.52826186807155     -1.27691907390448      0.00197485379837
H   -8.31516504384864     -3.31814985321231      0.00729857188773
H   8.27915514249207     -3.40714078989363      0.00681973918158
C   -6.14499418870218     -4.92764727278338      0.00302254913999
C   -3.70678334799751     -4.94126171411716     -0.00679841894792
C   -4.95559005800169     -5.64349397349412      0.00116871569699
C   -2.48612132622665     -5.65478557440947      0.00614125209662
C   -1.25405833548005     -4.95612205000132     -0.00503435388927
C   1.20101257386816     -4.96928038819302     -0.00385322963129
C   -0.03033667441341     -5.66952030313900      0.00398997003238
C   3.65375010132847     -4.98074377541453     -0.00309522988330
C   2.42549269587528     -5.68117463552727      0.00628170066869
C   6.09196561781097     -4.99325796338655      0.00325918379042
C   4.89497644461045     -5.69634842095790      0.00202298796027
H   -7.08989238804069     -5.46699984223871      0.00742531082125
H   7.03105520920009     -5.54265853633254      0.00683896355417
C   -4.92354532219813     -7.07882109967734      0.00061394679214
C   -2.48534208823777     -7.08772807792913     -0.00189594564379
C   -3.75168589177895     -7.76394715763627     -0.00170126671874
C   -0.03794895698805     -7.09946487446944     -0.00168022049625
C   -1.27795610040136     -7.77290438466689     -0.00366491325785
C   2.40944432072629     -7.11402201200282     -0.00081701968533
C   1.19474993715296     -7.78618536556242     -0.00296931056689
C   4.84762105249800     -7.13126211057943      0.00168979497423
C   3.66847160587561     -7.80378799294376     -0.00065863938960
H   -5.86994035041618     -7.61383059804164      0.00215798365757
H   5.78824962538815     -7.67633218931421      0.00281691445618
H   -3.75352693944918     -8.85107156923607     -0.00353718114765
H   -1.28430440589466     -8.86087539249706     -0.00809229711623
H   1.18922157469537     -8.87416062058945     -0.00706194725726
H   3.65854661482387     -8.89086063405326     -0.00231318081200

    units angstrom      # Angstroms are the default
    no_reorient         # Geometry fixed, default
    symmetry c1         # C1 symmetry, default
}

set {
    scf_type DF         # Density fitting, faster than exact integrals
    freeze_core True    # Freeze core electrons
    basis jun-cc-pVDZ   # Jun-cc-pVDZ basis set, recommended for sSAPT0 in https://doi.org/10.1063/1.4867135
}

energy('ssapt0')        # Compute sSAPT0 energy, includes also SAPT0
--------------------------------------------------------------------------

  //              Dimer HF             //
    Molecular point group: c1
  Charge       = 1
  Multiplicity = 1
  Basis Set: JUN-CC-PVDZ
    Blend: JUN-CC-PVDZ
  Basis Set: (JUN-CC-PVDZ AUX)
    Blend: JUN-CC-PVDZ-JKFIT
  @DF-RHF Final Energy: -3953.64463665877156
    Total Energy =                      -3953.6446366587733792
 Dipole X            :         -0.0020170            0.0004804           -0.0015365
 Dipole Y            :         -0.0491351            0.0561130            0.0069779
 Dipole Z            :         34.1460054          -46.6993964          -12.5533909
 Magnitude           :                                                   12.5533930
  //            Monomer A HF           //
    Molecular point group: c1
  Multiplicity = 1
  Basis Set: JUN-CC-PVDZ
    Blend: JUN-CC-PVDZ
  Basis Set: (JUN-CC-PVDZ AUX)
    Blend: JUN-CC-PVDZ-JKFIT
  @DF-RHF Final Energy:  -303.29720191632833
    Total Energy =                       -303.2972019163283335
  //            Monomer B HF           //
    Molecular point group: c1

    Geometry (in Angstrom), charge = 0, multiplicity = 1:

       Center              X                  Y                   Z               Mass
    ------------   -----------------  -----------------  -----------------  -----------------
      Gh(C)           0.680062820275    -0.008027535675    -8.605996573113    12.000000000000
      Gh(C)          -0.680508179725    -0.005999535675    -8.605612573113    12.000000000000
      Gh(N)          -1.085639179725    -0.005001535675    -7.287288573113    14.003074004430
      Gh(C)           0.000103820275    -0.001725535675    -6.505887573113    12.000000000000
      Gh(C)          -2.477369179725     0.044404464325    -6.819309573113    12.000000000000
      Gh(N)           1.085217820275    -0.005001535675    -7.287288573113    14.003074004430
      Gh(H)           1.385141820275    -0.015855535675    -9.423435573113     1.007825032230
      Gh(H)          -1.385306179725    -0.006189535675    -9.423281573113     1.007825032230
      Gh(H)          -0.000013179725     0.000021464325    -5.424798573113     1.007825032230
      Gh(C)           2.478112820275    -0.021893535675    -6.822190573113    12.000000000000
      Gh(H)           2.490587820275     0.005451464325    -5.731937573113     1.007825032230
      Gh(H)           2.967023820275    -0.935339535675    -7.169366573113     1.007825032230
      Gh(H)           3.001423820275     0.853589464325    -7.213662573113     1.007825032230
      Gh(H)          -2.857363179725     1.066475464325    -6.899268573113     1.007825032230
      Gh(H)          -3.082683179725    -0.625679535675    -7.432373573113     1.007825032230
      Gh(H)          -2.518132179725    -0.282579535675    -5.779361573113     1.007825032230
         C           -3.668445443746     7.803766634408     0.611832468223    12.000000000000
         C           -4.847602899072     7.131256295665     0.609465893290    12.000000000000
         C           -4.894963478901     5.696344867857     0.608892982192    12.000000000000
         C           -3.653744858499     4.980744805284     0.616553423921    12.000000000000
         C           -2.409429301220     7.113995501000     0.612026810483    12.000000000000
         C           -2.425481523830     5.681136415228     0.605021921613    12.000000000000
         C           -1.194748196161     7.786158658634     0.613498991025    12.000000000000
         C            0.037954849212     7.099436110082     0.611328286720    12.000000000000
         C            0.030328407694     5.669504024030     0.605844901804    12.000000000000
         C           -1.200988687630     4.969284812240     0.614814635737    12.000000000000
         C            1.277953646089     7.772873907520     0.612704135280    12.000000000000
         C            2.485353904999     7.087711349563     0.610429647376    12.000000000000
         C            2.486124505192     5.654785274566     0.603491898388    12.000000000000
         C            1.254078739919     4.956092577989     0.615119839976    12.000000000000
         C            3.751710411681     7.763926615305     0.610556498756    12.000000000000
         C            4.923561876460     7.078795241315     0.608500018048    12.000000000000
         C            4.955603091600     5.643461927694     0.608339605241    12.000000000000
         C            3.706797354479     4.941224672658     0.613431165411    12.000000000000
         H           -3.658525317484     8.890841883460     0.613517456473     1.007825032230
         H           -1.189217509482     8.874135551685     0.617470867466     1.007825032230
         H            1.284290059161     8.860847899813     0.616862959421     1.007825032230
         H            3.753537907074     8.851049743297     0.612079023072     1.007825032230
         H            5.869954523482     7.613809298981     0.607574651006     1.007825032230
         H           -5.788235887228     7.676316677259     0.607906045934     1.007825032230
         C           -6.091978138422     4.993274477968     0.607020741701    12.000000000000
         C           -6.128665660043     3.582594633123     0.608221918730    12.000000000000
         C           -3.664583919771     3.564196644069     0.605296824112    12.000000000000
         C           -4.894302384424     2.861095240226     0.614465809097    12.000000000000
         C           -2.437339174623     2.847626121410     0.617128602649    12.000000000000
         C           -1.209232037322     3.547901399303     0.603449575857    12.000000000000
         C            1.247137392437     3.534695215755     0.602640969452    12.000000000000
         C            0.015171859844     2.833126303630     0.614325152676    12.000000000000
         C            2.467640992715     2.821304441580     0.614425210800    12.000000000000
         C            3.702545294854     3.524674618749     0.600937249957    12.000000000000
         C            6.144976206658     4.927586830457     0.607106160029    12.000000000000
         C            6.166584179136     3.516598940267     0.609272713466    12.000000000000
         C            4.924605778734     2.808422389679     0.615811459703    12.000000000000
         H            7.089901329916     5.466902230548     0.603344279180     1.007825032230
         H           -7.031045930827     5.542702417183     0.602787526750     1.007825032230
         C           -7.339702220848     2.858425998905     0.606594751288    12.000000000000
         C           -7.364886137784     1.470337835908     0.608360289416    12.000000000000
         C           -4.903508788672     1.444441276485     0.603644025224    12.000000000000
         C           -6.132261332336     0.739953821379     0.615934069207    12.000000000000
         C           -3.676878980242     0.726711606998     0.614271741623    12.000000000000
         C           -2.445660765791     1.429655597587     0.603962031422    12.000000000000
         C           -1.223604861027     0.715338965960     0.615391295954    12.000000000000
         C            0.007633689588     1.417397613563     0.613856949671    12.000000000000
         C            1.231215628021     0.702131154912     0.595030364015    12.000000000000
         C            2.460816920806     1.403306500451     0.614534872906    12.000000000000
         C            3.684426074471     0.687212892537     0.613706086629    12.000000000000
         C            4.918704721813     1.391749025514     0.601304264993    12.000000000000
         C            7.369797898236     2.779496667509     0.607512293674    12.000000000000
         C            7.380158486396     1.391231972180     0.609058976519    12.000000000000
         C            6.139795359397     0.674133087526     0.615387318331    12.000000000000
         H           -8.279194979072     3.407132505449     0.602297199166     1.007825032230
         H            8.315109291754     3.318132560949     0.603301717874     1.007825032230
         C           -8.591760117307     0.724847017370     0.608700717033    12.000000000000
         C           -8.599028783429    -0.632625341904     0.610823841616    12.000000000000
         C           -6.139817318844    -0.674122172829     0.603834500281    12.000000000000
         C           -7.380188291863    -1.391251725257     0.611250561822    12.000000000000
         C           -4.918688659982    -1.391740553705     0.616174998430    12.000000000000
         C           -3.684442475410    -0.687222851411     0.605142758366    12.000000000000
         C           -2.460821219973    -1.403330714500     0.615685844555    12.000000000000
         C           -1.231166192046    -0.702159400556     0.603565465764    12.000000000000
         C           -0.007573805113    -1.417404385086     0.611021990067    12.000000000000
         C            1.223643536163    -0.715260912939     0.621027612016    12.000000000000
         C            2.445666469606    -1.429628824682     0.609277599256    12.000000000000
         C            3.676862523121    -0.726692967231     0.605137014861    12.000000000000
         C            6.132244666694    -0.739964375525     0.603609040648    12.000000000000
         C            4.903514965779    -1.444443056216     0.617450115189    12.000000000000
         C            8.599010668965     0.632618330993     0.608921092663    12.000000000000
         C            8.591741308375    -0.724836402868     0.610657472924    12.000000000000
         C            7.364858584664    -1.470318201281     0.610427296232    12.000000000000
         H           -9.528310151544     1.276861913518     0.607230790069     1.007825032230
         H            9.541406794881     1.174586952770     0.607869060402     1.007825032230
         C           -7.369842089494    -2.779530681609     0.613058770244    12.000000000000
         C           -4.924603288776    -2.808422793016     0.605327137808    12.000000000000
         C           -6.166626675393    -3.516637728500     0.611628977967    12.000000000000
         C           -3.702514539430    -3.524667084795     0.615651206994    12.000000000000
         C           -2.467651164839    -2.821311498479     0.603606568637    12.000000000000
         C           -0.015137653833    -2.833127181075     0.603888157146    12.000000000000
         C           -1.247126020952    -3.534717711238     0.615452110554    12.000000000000
         C            1.209240889918    -3.547900214319     0.617991140346    12.000000000000
         C            2.437331842429    -2.847627273850     0.603851382035    12.000000000000
         C            4.894298164045    -2.861108503961     0.604672122106    12.000000000000
         C            3.664611075316    -3.564205381207     0.617551542047    12.000000000000
         C            6.128634835020    -3.582569593393     0.610897384004    12.000000000000
         C            7.339668484970    -2.858398843045     0.612412610086    12.000000000000
         H           -9.541453290984    -1.174549002339     0.612193257789     1.007825032230
         H            9.528257688346    -1.276904609579     0.611907280685     1.007825032230
         H           -8.315169223574    -3.318135388887     0.617230998775     1.007825032230
         H            8.279150962767    -3.407126325569     0.616752166069     1.007825032230
         C           -6.144998368428    -4.927632808458     0.612954976027    12.000000000000
         C           -3.706787527723    -4.941247249792     0.603134007939    12.000000000000
         C           -4.955594237727    -5.643479509169     0.611101142584    12.000000000000
         C           -2.486125505952    -5.654771110084     0.616073678984    12.000000000000
         C           -1.254062515205    -4.956107585676     0.604898072998    12.000000000000
         C            1.201008394143    -4.969265923868     0.606079197256    12.000000000000
         C           -0.030340854139    -5.669505838814     0.613922396919    12.000000000000
         C            3.653745921603    -4.980729311090     0.606837197004    12.000000000000
         C            2.425488516150    -5.681160171202     0.616214127556    12.000000000000
         C            6.091961438086    -4.993243499062     0.613191610677    12.000000000000
         C            4.894972264885    -5.696333956633     0.611955414847    12.000000000000
         H           -7.089896567766    -5.466985377914     0.617357737708     1.007825032230
         H            7.031051029475    -5.542644072008     0.616771390441     1.007825032230
         C           -4.923549501924    -7.078806635352     0.610546373679    12.000000000000
         C           -2.485346267963    -7.087713613604     0.608036481243    12.000000000000
         C           -3.751690071504    -7.763932693311     0.608231160168    12.000000000000
         C           -0.037953136713    -7.099450410144     0.608252206391    12.000000000000
         C           -1.277960280127    -7.772889920342     0.606267513629    12.000000000000
         C            2.409440141001    -7.114007547678     0.609115407202    12.000000000000
         C            1.194745757428    -7.786170901237     0.606963116320    12.000000000000
         C            4.847616872773    -7.131247646254     0.611622221861    12.000000000000
         C            3.668467426150    -7.803773528619     0.609273787497    12.000000000000
         H           -5.869944530142    -7.613816133717     0.612090410545     1.007825032230
         H            5.788245445663    -7.676317724989     0.612749341343     1.007825032230
         H           -3.753531119175    -8.851057104911     0.606395245739     1.007825032230
         H           -1.284308585620    -8.860860928172     0.601840129771     1.007825032230
         H            1.189217394970    -8.874146156264     0.602870479630     1.007825032230
         H            3.658542435098    -8.890846169728     0.607619246075     1.007825032230

  Charge       = 0
  Multiplicity = 1
  Basis Set: JUN-CC-PVDZ
    Blend: JUN-CC-PVDZ
  Basis Set: (JUN-CC-PVDZ AUX)
    Blend: JUN-CC-PVDZ-JKFIT

    Orbital Energies [Eh]
    ---------------------

    Doubly Occupied:

       1A    -11.264053     2A    -11.263739     3A    -11.263736
       4A    -11.263397     5A    -11.263394     6A    -11.263359
       7A    -11.263202     8A    -11.263175     9A    -11.263173
      10A    -11.263017    11A    -11.262857    12A    -11.262852
      13A    -11.262374    14A    -11.262371    15A    -11.262297
      16A    -11.262296    17A    -11.262246    18A    -11.262210
      19A    -11.262165    20A    -11.262127    21A    -11.262125
      22A    -11.261971    23A    -11.261967    24A    -11.261848
      25A    -11.261834    26A    -11.261819    27A    -11.261815
      28A    -11.261768    29A    -11.261760    30A    -11.261688
      31A    -11.261662    32A    -11.261658    33A    -11.261632
      34A    -11.261631    35A    -11.261610    36A    -11.261562
      37A    -11.261423    38A    -11.261412    39A    -11.261406
      40A    -11.261398    41A    -11.261393    42A    -11.261385
      43A    -11.261381    44A    -11.261366    45A    -11.261362
      46A    -11.261339    47A    -11.261335    48A    -11.261331
      49A    -11.261178    50A    -11.261147    51A    -11.261144
      52A    -11.261064    53A    -11.261062    54A    -11.260991
      55A    -11.260024    56A    -11.260011    57A    -11.260008
      58A    -11.259980    59A    -11.259977    60A    -11.259962
      61A    -11.259402    62A    -11.259377    63A    -11.259374
      64A    -11.259322    65A    -11.259319    66A    -11.259291
      67A    -11.259029    68A    -11.259011    69A    -11.259009
      70A    -11.258982    71A    -11.258979    72A    -11.258968
      73A    -11.254596    74A    -11.254595    75A    -11.254593
      76A    -11.254591    77A    -11.254585    78A    -11.254583
      79A    -11.253748    80A    -11.253746    81A    -11.253744
      82A    -11.253743    83A    -11.253740    84A    -11.253734
      85A    -11.253663    86A    -11.253662    87A    -11.253659
      88A    -11.253658    89A    -11.253655    90A    -11.253649
      91A    -11.253124    92A    -11.253123    93A    -11.253121
      94A    -11.253119    95A    -11.253113    96A    -11.253111
      97A     -1.254149    98A     -1.239153    99A     -1.239153
     100A     -1.220595   101A     -1.220591   102A     -1.215622
     103A     -1.201155   104A     -1.195725   105A     -1.188312
     106A     -1.188310   107A     -1.173875   108A     -1.173872
     109A     -1.155786   110A     -1.155782   111A     -1.152891
     112A     -1.144828   113A     -1.144825   114A     -1.128709
     115A     -1.114867   116A     -1.113270   117A     -1.112651
     118A     -1.112637   119A     -1.111718   120A     -1.088569
     121A     -1.088555   122A     -1.077065   123A     -1.077064
     124A     -1.067764   125A     -1.067734   126A     -1.065135
     127A     -1.046928   128A     -1.046921   129A     -1.040617
     130A     -1.038838   131A     -1.038837   132A     -1.025402
     133A     -1.021574   134A     -1.021524   135A     -1.007299
     136A     -1.006945   137A     -1.003919   138A     -1.000644
     139A     -1.000596   140A     -0.991173   141A     -0.971132
     142A     -0.971084   143A     -0.955999   144A     -0.955943
     145A     -0.905773   146A     -0.905732   147A     -0.905645
     148A     -0.905605   149A     -0.904530   150A     -0.892544
     151A     -0.892485   152A     -0.890528   153A     -0.890471
     154A     -0.889603   155A     -0.872328   156A     -0.869141
     157A     -0.851658   158A     -0.848023   159A     -0.848002
     160A     -0.845760   161A     -0.843164   162A     -0.834693
     163A     -0.834680   164A     -0.828220   165A     -0.828216
     166A     -0.784682   167A     -0.784672   168A     -0.783810
     169A     -0.783783   170A     -0.782429   171A     -0.782409
     172A     -0.782194   173A     -0.767118   174A     -0.760966
     175A     -0.750741   176A     -0.733594   177A     -0.727200
     178A     -0.727186   179A     -0.725225   180A     -0.724667
     181A     -0.724648   182A     -0.718669   183A     -0.713932
     184A     -0.713926   185A     -0.699703   186A     -0.699690
     187A     -0.686302   188A     -0.686068   189A     -0.686065
     190A     -0.682291   191A     -0.682281   192A     -0.678925
     193A     -0.653755   194A     -0.651003   195A     -0.650973
     196A     -0.649978   197A     -0.649963   198A     -0.649675
     199A     -0.641098   200A     -0.641070   201A     -0.640201
     202A     -0.639264   203A     -0.636170   204A     -0.636144
     205A     -0.629271   206A     -0.617662   207A     -0.615409
     208A     -0.615389   209A     -0.608922   210A     -0.608915
     211A     -0.599186   212A     -0.599146   213A     -0.598880
     214A     -0.598754   215A     -0.598729   216A     -0.598207
     217A     -0.595176   218A     -0.595164   219A     -0.594849
     220A     -0.594412   221A     -0.592097   222A     -0.592094
     223A     -0.587568   224A     -0.577882   225A     -0.577872
     226A     -0.575735   227A     -0.575733   228A     -0.573497
     229A     -0.569574   230A     -0.568305   231A     -0.568281
     232A     -0.566886   233A     -0.566876   234A     -0.561002
     235A     -0.558865   236A     -0.558845   237A     -0.558518
     238A     -0.554497   239A     -0.550632   240A     -0.547561
     241A     -0.544342   242A     -0.535037   243A     -0.535004
     244A     -0.533659   245A     -0.533637   246A     -0.528186
     247A     -0.528171   248A     -0.527965   249A     -0.517324
     250A     -0.517290   251A     -0.515427   252A     -0.515422
     253A     -0.509749   254A     -0.509733   255A     -0.498144
     256A     -0.496576   257A     -0.496549   258A     -0.493845
     259A     -0.493834   260A     -0.489480   261A     -0.481557
     262A     -0.477490   263A     -0.477487   264A     -0.474110
     265A     -0.469579   266A     -0.466656   267A     -0.466652
     268A     -0.458879   269A     -0.446868   270A     -0.446808
     271A     -0.441102   272A     -0.440829   273A     -0.440804
     274A     -0.434758   275A     -0.433975   276A     -0.407451
     277A     -0.407427   278A     -0.386488   279A     -0.386440
     280A     -0.385800   281A     -0.385799   282A     -0.383832
     283A     -0.354402   284A     -0.354386   285A     -0.350740
     286A     -0.338172   287A     -0.335672   288A     -0.335604
     289A     -0.332782   290A     -0.332776   291A     -0.307167
     292A     -0.302030   293A     -0.301968   294A     -0.300915
     295A     -0.286245   296A     -0.256529   297A     -0.253581
     298A     -0.253529   299A     -0.204339   300A     -0.204250

  @DF-RHF Final Energy: -3650.33761179827070

   => Energetics <=

    Nuclear Repulsion Energy =          15611.4211649754306563
    One-Electron Energy =              -36072.0756890986231156
    Two-Electron Energy =               16810.3169123249244876
    Total Energy =                      -3650.3376117982697906
 Dipole X            :         -0.0009248            0.0002112           -0.0007136
 Dipole Y            :          0.0011272           -0.0013774           -0.0002502
 Dipole Z            :       -691.5640970          691.5665370            0.0024400
 Magnitude           :                                                    0.0025545

    SAPT Results
  --------------------------------------------------------------------------------------------------------
    Electrostatics                 -7.39476014 [mEh]      -4.64028204 [kcal/mol]     -19.41494008 [kJ/mol]
      Elst10,r                     -7.39476014 [mEh]      -4.64028204 [kcal/mol]     -19.41494008 [kJ/mol]

    Exchange                       -0.00021320 [mEh]      -0.00013379 [kcal/mol]      -0.00055976 [kJ/mol]
      Exch10                       -0.00021320 [mEh]      -0.00013379 [kcal/mol]      -0.00055976 [kJ/mol]
      Exch10(S^2)                  -0.00021320 [mEh]      -0.00013379 [kcal/mol]      -0.00055976 [kJ/mol]

    Induction                      -2.42797083 [mEh]      -1.52357470 [kcal/mol]      -6.37463654 [kJ/mol]
      Ind20,r                      -2.39455911 [mEh]      -1.50260853 [kcal/mol]      -6.28691408 [kJ/mol]
      Exch-Ind20,r                  0.00013752 [mEh]       0.00008630 [kcal/mol]       0.00036107 [kJ/mol]
      delta HF,r (2)               -0.03354924 [mEh]      -0.02105247 [kcal/mol]      -0.08808353 [kJ/mol]

    Dispersion                     -0.97555983 [mEh]      -0.61217304 [kcal/mol]      -2.56133198 [kJ/mol]
      Disp20                       -0.97561124 [mEh]      -0.61220530 [kcal/mol]      -2.56146696 [kJ/mol]
      Exch-Disp20                   0.00005141 [mEh]       0.00003226 [kcal/mol]       0.00013498 [kJ/mol]
      Disp20 (SS)                  -0.48780562 [mEh]      -0.30610265 [kcal/mol]      -1.28073348 [kJ/mol]
      Disp20 (OS)                  -0.48780562 [mEh]      -0.30610265 [kcal/mol]      -1.28073348 [kJ/mol]
      Exch-Disp20 (SS)              0.00003815 [mEh]       0.00002394 [kcal/mol]       0.00010016 [kJ/mol]
      Exch-Disp20 (OS)              0.00001326 [mEh]       0.00000832 [kcal/mol]       0.00003482 [kJ/mol]

  Total HF                         -9.82294417 [mEh]      -6.16399053 [kcal/mol]     -25.79013637 [kJ/mol]
  Total SAPT0                     -10.79850400 [mEh]      -6.77616356 [kcal/mol]     -28.35146835 [kJ/mol]

  Special recipe for scaled SAPT0 (see Manual):
    Electrostatics sSAPT0          -7.39476014 [mEh]      -4.64028204 [kcal/mol]     -19.41494008 [kJ/mol]
    Exchange sSAPT0                -0.00021320 [mEh]      -0.00013379 [kcal/mol]      -0.00055976 [kJ/mol]
    Induction sSAPT0               -2.42797083 [mEh]      -1.52357470 [kcal/mol]      -6.37463654 [kJ/mol]
    Dispersion sSAPT0              -0.97555983 [mEh]      -0.61217304 [kcal/mol]      -2.56133198 [kJ/mol]
  Total sSAPT0                    -10.79850400 [mEh]      -6.77616356 [kcal/mol]     -28.35146835 [kJ/mol]
  --------------------------------------------------------------------------------------------------------

*** Psi4 exiting successfully. Buy a developer a beer!
