                               Psi4 1.9 release

  ==> Input File <==

--------------------------------------------------------------------------
memory 32 GB # how much memory is available ! Depends on the nodes/cores !

molecule dimer {
# monomer A
-1 1    # Charge and multiplicity
B -1.977592e-04  2.742729e-04 6.800034
F  1.123153e-16  1.430594e-17 8.212819
F  1.147860e+00  6.757812e-01 6.328893
F  1.191806e-02 -1.332011e+00 6.329095
F -1.159666e+00  6.560735e-01 6.329174
--
# monomer B
0 1     # Charge and multiplicity
C   1.22531237526482      0.70753866091955      0.00613762728373
C   1.22532433589282     -0.70753852257020     -0.00619318228664
C   -0.00000567409046      1.41496628609039     -0.00672680580738
C   2.45644923379077      1.41832825917820      0.00902448468363
C   0.00001130712078     -1.41497612663474      0.00347275151708
C   -1.22530046906674      0.70754574598412      0.00838914760619
C   2.45643823516184     -1.41832293188077     -0.00843833914343
C   -0.00000085313587      2.83680140328112     -0.00913035594137
C   3.68182717731192      0.70931832800114     -0.00808954934571
C   2.45512052870677      2.83422403348893     -0.00819210630633
C   3.68182158506039     -0.70933346742900      0.00798293467272
C   -1.22531311884624     -0.70752714354401     -0.00512042085974
C   1.22670006104402      3.54346985599427      0.00816696660346
C   0.00000526469929     -2.83678176723568      0.00832091913869
C   -2.45643555300670      1.41831729028492      0.00842454345199
C   2.45512389762097     -2.83422965658853      0.00783102630520
C   -1.22671388474763      3.54346943575023      0.00827029982280
C   4.91451777504333      1.42717324448953     -0.00160886631602
C   3.69315067131765      3.54279566454522     -0.00155906667985
C   -2.45643712022637     -1.41831290883911     -0.00846337726810
C   1.22670532178455     -3.54347386990643     -0.00780316414624
C   -2.45512491866593      2.83421703463423     -0.00818572995999
C   4.91452486062398     -1.42718653794377      0.00136387641845
C   1.22142509354026      4.97013443726031      0.00150231067809
C   4.89300870916237      2.82518837202648     -0.00039219795739
C   -1.22669652864725     -3.54347062507680     -0.00753595973677
C   -3.68181849668397      0.70932533873199     -0.00807686886569
C   3.69314758099218     -3.54280096939050      0.00148176697923
C   -1.22143177215231      4.97012866986289      0.00168580605083
C   6.13477145276790      0.68054831910577     -0.00083909176631
C   3.65678936045204      4.97295361556775     -0.00065042889723
C   -2.45512642789169     -2.83421472106065      0.00758666850712
C   -3.68181869921921     -0.70932533146830      0.00810055625144
C   4.89301309775526     -2.82519973363176      0.00021895393805
C   -0.00000059327114      5.65044773803267      0.00045449734393
C   6.13477559217374     -0.68055448207492      0.00042622874941
C   2.47813196269732      5.65357712333155      0.00063835075260
C   1.22142288457925     -4.97012668293268     -0.00129718634452
C   -3.69316190412301      3.54279732619245     -0.00139355922051
C   -1.22142804110313     -4.97011793159564     -0.00140994817719
C   -4.91452132810043      1.42717581899491     -0.00153192130862
C   3.65678749952045     -4.97295485423912      0.00080007163680
C   -2.47813805026426      5.65357479452875      0.00092287576113
C   -3.69314125872231     -3.54278984697859      0.00136564082345
C   -4.91451200321153     -1.42718062802730      0.00139857359209
C   -0.00000552908399     -5.65043791501335      0.00005899322272
C   -4.89302000425900      2.82518897091939     -0.00040227981744
C   2.47812647313991     -5.65357317188818     -0.00029052915548
C   -3.65679823041642      4.97295655404175     -0.00047374852278
C   -4.89299899901461     -2.82519139505969      0.00006491824035
C   -2.47812801824129     -5.65356579800621     -0.00056571680280
C   -6.13477002348955      0.68054913825639     -0.00086464346868
C   -3.65678835334731     -4.97294365097028      0.00058578382008
C   -6.13476456307132     -0.68055354348201      0.00040575295444
H   5.83528897565761      3.36927626695423      0.00396712770529
H   7.07385965258860      1.22821762089947     -0.00037744837300
H   4.60066374401555      5.51238117445323     -0.00014522814529
H   5.83528386714679     -3.36930568472863     -0.00423551337640
H   -0.00001167146422      6.73853104613662     -0.00389474766392
H   7.07386165167227     -1.22822657074368     -0.00008250934481
H   2.47331421164041      6.74068466339473      0.00017162982210
H   4.60066897122302     -5.51237575717576      0.00039007446835
H   -2.47331820069565      6.74068209160650      0.00047297644710
H   -0.00000978838621     -6.73852780445195      0.00458867820736
H   -5.83530143450167      3.36927132229595      0.00410314985360
H   2.47330840367253     -6.74068500242887      0.00027980126949
H   -4.60067436136587      5.51237839860371      0.00002010017831
H   -5.83527902699321     -3.36928859177951     -0.00451481925734
H   -2.47329986759855     -6.74067870613986     -0.00016951527498
H   -7.07385728692578      1.22822084484047     -0.00046143985387
H   -4.60067330624313     -5.51236229778631      0.00021776644566
H   -7.07385645456741     -1.22822025997701     -0.00017736581114

    units angstrom      # Angstroms are the default
    no_reorient         # Geometry fixed, default
    symmetry c1         # C1 symmetry, default
}

set {
    scf_type DF         # Density fitting, faster than exact integrals
    freeze_core True    # Freeze core electrons
    basis jun-cc-pVDZ   # Jun-cc-pVDZ basis set, recommended for sSAPT0 in https://doi.org/10.1063/1.4867135
}

energy('ssapt0')        # Compute sSAPT0 energy, includes also SAPT0
--------------------------------------------------------------------------

  //              Dimer HF             //
    Molecular point group: c1
  Charge       = -1
  Multiplicity = 1
  Basis Set: JUN-CC-PVDZ
    Blend: JUN-CC-PVDZ
  Basis Set: (JUN-CC-PVDZ AUX)
    Blend: JUN-CC-PVDZ-JKFIT
  @DF-RHF Final Energy: -2478.65786712056661
    Total Energy =                      -2478.6578671205661522
 Dipole X            :         -0.0005583            0.0000481           -0.0005102
 Dipole Y            :          0.0010835           -0.0001453            0.0009382
 Dipole Z            :         31.1078970          -41.6861125          -10.5782155
 Magnitude           :                                                   10.5782155
  //            Monomer A HF           //
    Molecular point group: c1
  Multiplicity = 1
  Basis Set: JUN-CC-PVDZ
    Blend: JUN-CC-PVDZ
  Basis Set: (JUN-CC-PVDZ AUX)
    Blend: JUN-CC-PVDZ-JKFIT
  @DF-RHF Final Energy:  -422.77145505107069
    Total Energy =                       -422.7714550510706886
  //            Monomer B HF           //
    Molecular point group: c1

    Geometry (in Angstrom), charge = 0, multiplicity = 1:

       Center              X                  Y                   Z               Mass
    ------------   -----------------  -----------------  -----------------  -----------------
      Gh(B)          -0.000198161052     0.000273808717     6.014502469636    11.009305360000
      Gh(F)          -0.000000401852    -0.000000464183     7.427287469636    18.998403162730
      Gh(F)           1.147859598148     0.675780735817     5.543361469636    18.998403162730
      Gh(F)           0.011917658148    -1.332011464183     5.543563469636    18.998403162730
      Gh(F)          -1.159666401852     0.656073035817     5.543642469636    18.998403162730
         C            1.225311973413     0.707538196736    -0.779393903081    12.000000000000
         C            1.225323934041    -0.707538986754    -0.791724712651    12.000000000000
         C           -0.000006075942     1.414965821907    -0.792258336172    12.000000000000
         C            2.456448831939     1.418327794995    -0.776507045681    12.000000000000
         C            0.000010905269    -1.414976590818    -0.782058778847    12.000000000000
         C           -1.225300870919     0.707545281801    -0.777142382758    12.000000000000
         C            2.456437833310    -1.418323396064    -0.793969869508    12.000000000000
         C           -0.000001254988     2.836800939098    -0.794661886306    12.000000000000
         C            3.681826775460     0.709317863818    -0.793621079710    12.000000000000
         C            2.455120126855     2.834223569306    -0.793723636671    12.000000000000
         C            3.681821183209    -0.709333931612    -0.777548595692    12.000000000000
         C           -1.225313520698    -0.707527607727    -0.790651951224    12.000000000000
         C            1.226699659192     3.543469391811    -0.777364563761    12.000000000000
         C            0.000004862847    -2.836782231419    -0.777210611226    12.000000000000
         C           -2.456435954859     1.418316826102    -0.777106986912    12.000000000000
         C            2.455123495769    -2.834230120772    -0.777700504059    12.000000000000
         C           -1.226714286599     3.543468971567    -0.777261230542    12.000000000000
         C            4.914517373191     1.427172780306    -0.787140396680    12.000000000000
         C            3.693150269466     3.542795200362    -0.787090597044    12.000000000000
         C           -2.456437522078    -1.418313373022    -0.793994907632    12.000000000000
         C            1.226704919933    -3.543474334090    -0.793334694511    12.000000000000
         C           -2.455125320518     2.834216570451    -0.793717260324    12.000000000000
         C            4.914524458772    -1.427187002127    -0.784167653946    12.000000000000
         C            1.221424691688     4.970133973077    -0.784029219686    12.000000000000
         C            4.893008307311     2.825187907843    -0.785923728322    12.000000000000
         C           -1.226696930499    -3.543471089260    -0.793067490101    12.000000000000
         C           -3.681818898536     0.709324874549    -0.793608399230    12.000000000000
         C            3.693147179140    -3.542801433574    -0.784049763385    12.000000000000
         C           -1.221432174004     4.970128205680    -0.783845724314    12.000000000000
         C            6.134771050916     0.680547854922    -0.786370622131    12.000000000000
         C            3.656788958600     4.972953151384    -0.786181959262    12.000000000000
         C           -2.455126829744    -2.834215185244    -0.777944861857    12.000000000000
         C           -3.681819101071    -0.709325795652    -0.777430974113    12.000000000000
         C            4.893012695903    -2.825200197815    -0.785312576426    12.000000000000
         C           -0.000000995123     5.650447273849    -0.785077033020    12.000000000000
         C            6.134775190322    -0.680554946258    -0.785105301615    12.000000000000
         C            2.478131560845     5.653576659148    -0.784893179612    12.000000000000
         C            1.221422482727    -4.970127147116    -0.786828716709    12.000000000000
         C           -3.693162305975     3.542796862009    -0.786925089585    12.000000000000
         C           -1.221428442955    -4.970118395779    -0.786941478542    12.000000000000
         C           -4.914521729952     1.427175354812    -0.787063451673    12.000000000000
         C            3.656787097669    -4.972955318422    -0.784731458728    12.000000000000
         C           -2.478138452116     5.653574330345    -0.784608654603    12.000000000000
         C           -3.693141660574    -3.542790311162    -0.784165889541    12.000000000000
         C           -4.914512405063    -1.427181092211    -0.784132956772    12.000000000000
         C           -0.000005930936    -5.650438379197    -0.785472537142    12.000000000000
         C           -4.893020406111     2.825188506736    -0.785933810182    12.000000000000
         C            2.478126071288    -5.653573636072    -0.785822059520    12.000000000000
         C           -3.656798632268     4.972956089858    -0.786005278887    12.000000000000
         C           -4.892999400866    -2.825191859243    -0.785466612124    12.000000000000
         C           -2.478128420093    -5.653566262190    -0.786097247167    12.000000000000
         C           -6.134770425341     0.680548674073    -0.786396173833    12.000000000000
         C           -3.656788755199    -4.972944115154    -0.784945746544    12.000000000000
         C           -6.134764964923    -0.680554007665    -0.785125777410    12.000000000000
         H            5.835288573806     3.369275802771    -0.781564402659     1.007825032230
         H            7.073859250737     1.228217156716    -0.785908978737     1.007825032230
         H            4.600663342164     5.512380710270    -0.785676758510     1.007825032230
         H            5.835283465295    -3.369306148912    -0.789767043741     1.007825032230
         H           -0.000012073316     6.738530581953    -0.789426278028     1.007825032230
         H            7.073861249820    -1.228227034927    -0.785614039709     1.007825032230
         H            2.473313809789     6.740684199211    -0.785359900542     1.007825032230
         H            4.600668569371    -5.512376221359    -0.785141455896     1.007825032230
         H           -2.473318602548     6.740681627423    -0.785058553917     1.007825032230
         H           -0.000010190238    -6.738528268635    -0.780942852157     1.007825032230
         H           -5.835301836354     3.369270858113    -0.781428380511     1.007825032230
         H            2.473308001821    -6.740685466612    -0.785251729095     1.007825032230
         H           -4.600674763218     5.512377934420    -0.785511430186     1.007825032230
         H           -5.835279428845    -3.369289055963    -0.790046349622     1.007825032230
         H           -2.473300269450    -6.740679170323    -0.785701045639     1.007825032230
         H           -7.073857688778     1.228220380657    -0.785992970218     1.007825032230
         H           -4.600673708095    -5.512362761970    -0.785313763919     1.007825032230
         H           -7.073856856419    -1.228220724160    -0.785708896176     1.007825032230

  Charge       = 0
  Multiplicity = 1
  Basis Set: JUN-CC-PVDZ
    Blend: JUN-CC-PVDZ
  Basis Set: (JUN-CC-PVDZ AUX)
    Blend: JUN-CC-PVDZ-JKFIT

    Orbital Energies [Eh]
    ---------------------

    Doubly Occupied:

       1A    -11.260674     2A    -11.260231     3A    -11.260229
       4A    -11.259519     5A    -11.259519     6A    -11.259349
       7A    -11.259140     8A    -11.259062     9A    -11.259061
      10A    -11.258736    11A    -11.258732    12A    -11.258663
      13A    -11.258601    14A    -11.258596    15A    -11.258593
      16A    -11.258564    17A    -11.258558    18A    -11.258542
      19A    -11.258529    20A    -11.258524    21A    -11.258518
      22A    -11.258420    23A    -11.258417    24A    -11.258119
      25A    -11.257458    26A    -11.257396    27A    -11.257395
      28A    -11.257261    29A    -11.257260    30A    -11.257176
      31A    -11.256553    32A    -11.256483    33A    -11.256482
      34A    -11.256373    35A    -11.256372    36A    -11.256325
      37A    -11.252399    38A    -11.252399    39A    -11.252397
      40A    -11.252396    41A    -11.252394    42A    -11.252392
      43A    -11.251533    44A    -11.251530    45A    -11.251529
      46A    -11.251524    47A    -11.251523    48A    -11.251519
      49A    -11.250961    50A    -11.250960    51A    -11.250958
      52A    -11.250956    53A    -11.250955    54A    -11.250954
      55A     -1.244294    56A     -1.220013    57A     -1.220012
      58A     -1.189722    59A     -1.189714    60A     -1.181164
      61A     -1.157722    62A     -1.149154    63A     -1.135703
      64A     -1.135697    65A     -1.113355    66A     -1.113350
      67A     -1.082628    68A     -1.082621    69A     -1.078810
      70A     -1.066138    71A     -1.066135    72A     -1.039577
      73A     -1.024487    74A     -1.021991    75A     -1.021948
      76A     -1.017887    77A     -1.012949    78A     -0.987219
      79A     -0.987173    80A     -0.962048    81A     -0.961998
      82A     -0.894467    83A     -0.894440    84A     -0.888163
      85A     -0.886410    86A     -0.886352    87A     -0.881598
      88A     -0.881551    89A     -0.862072    90A     -0.837552
      91A     -0.818389    92A     -0.816829    93A     -0.812337
      94A     -0.812328    95A     -0.794854    96A     -0.794843
      97A     -0.746837    98A     -0.745063    99A     -0.733630
     100A     -0.733621   101A     -0.732352   102A     -0.732329
     103A     -0.716698   104A     -0.699149   105A     -0.699138
     106A     -0.693774   107A     -0.693759   108A     -0.661399
     109A     -0.653331   110A     -0.651376   111A     -0.650417
     112A     -0.650411   113A     -0.639528   114A     -0.639526
     115A     -0.629912   116A     -0.627723   117A     -0.627707
     118A     -0.606469   119A     -0.605934   120A     -0.601864
     121A     -0.599918   122A     -0.599887   123A     -0.593822
     124A     -0.591451   125A     -0.591440   126A     -0.585419
     127A     -0.576418   128A     -0.576413   129A     -0.567478
     130A     -0.567463   131A     -0.566163   132A     -0.566144
     133A     -0.558938   134A     -0.555022   135A     -0.555016
     136A     -0.538759   137A     -0.538757   138A     -0.538288
     139A     -0.538282   140A     -0.529895   141A     -0.528207
     142A     -0.523050   143A     -0.523043   144A     -0.500668
     145A     -0.495719   146A     -0.493406   147A     -0.487947
     148A     -0.485265   149A     -0.481946   150A     -0.481938
     151A     -0.470437   152A     -0.470418   153A     -0.451249
     154A     -0.451171   155A     -0.439189   156A     -0.439179
     157A     -0.404868   158A     -0.404845   159A     -0.403490
     160A     -0.375543   161A     -0.375540   162A     -0.349247
     163A     -0.337714   164A     -0.336682   165A     -0.336624
     166A     -0.311224   167A     -0.298211   168A     -0.284480
     169A     -0.284426   170A     -0.225048   171A     -0.224982

  @DF-RHF Final Energy: -2055.89170177870028

   => Energetics <=

    Nuclear Repulsion Energy =           6452.5568002797772351
    One-Electron Energy =              -15636.4268135211441404
    Two-Electron Energy =                7127.9783114626661700
    Total Energy =                      -2055.8917017787007353
 Dipole X            :          0.0000501            0.0000419            0.0000920
 Dipole Y            :          0.0000260           -0.0000426           -0.0000165
 Dipole Z            :        507.6782601         -507.6797367           -0.0014766
 Magnitude           :                                                    0.0014796

    SAPT Results
  --------------------------------------------------------------------------------------------------------
    Electrostatics                  7.78471450 [mEh]       4.88498210 [kcal/mol]      20.43876510 [kJ/mol]
      Elst10,r                      7.78471450 [mEh]       4.88498210 [kcal/mol]      20.43876510 [kJ/mol]

    Exchange                       -0.00019772 [mEh]      -0.00012407 [kcal/mol]      -0.00051912 [kJ/mol]
      Exch10                       -0.00019772 [mEh]      -0.00012407 [kcal/mol]      -0.00051912 [kJ/mol]
      Exch10(S^2)                  -0.00019772 [mEh]      -0.00012407 [kcal/mol]      -0.00051912 [kJ/mol]

    Induction                      -2.49480757 [mEh]      -1.56551539 [kcal/mol]      -6.55011637 [kJ/mol]
      Ind20,r                      -2.51151893 [mEh]      -1.57600192 [kcal/mol]      -6.59399204 [kJ/mol]
      Exch-Ind20,r                  0.00009837 [mEh]       0.00006173 [kcal/mol]       0.00025828 [kJ/mol]
      delta HF,r (2)                0.01661299 [mEh]       0.01042481 [kcal/mol]       0.04361739 [kJ/mol]

    Dispersion                     -0.43477962 [mEh]      -0.27282833 [kcal/mol]      -1.14151374 [kJ/mol]
      Disp20                       -0.43488467 [mEh]      -0.27289425 [kcal/mol]      -1.14178955 [kJ/mol]
      Exch-Disp20                   0.00010505 [mEh]       0.00006592 [kcal/mol]       0.00027580 [kJ/mol]
      Disp20 (SS)                  -0.21744234 [mEh]      -0.13644713 [kcal/mol]      -0.57089477 [kJ/mol]
      Disp20 (OS)                  -0.21744234 [mEh]      -0.13644713 [kcal/mol]      -0.57089477 [kJ/mol]
      Exch-Disp20 (SS)              0.00008145 [mEh]       0.00005111 [kcal/mol]       0.00021385 [kJ/mol]
      Exch-Disp20 (OS)              0.00002360 [mEh]       0.00001481 [kcal/mol]       0.00006196 [kJ/mol]

  Total HF                          5.28970920 [mEh]       3.31934264 [kcal/mol]      13.88812960 [kJ/mol]
  Total SAPT0                       4.85492958 [mEh]       3.04651431 [kcal/mol]      12.74661586 [kJ/mol]

  Special recipe for scaled SAPT0 (see Manual):
    Electrostatics sSAPT0           7.78471450 [mEh]       4.88498210 [kcal/mol]      20.43876510 [kJ/mol]
    Exchange sSAPT0                -0.00019772 [mEh]      -0.00012407 [kcal/mol]      -0.00051912 [kJ/mol]
    Induction sSAPT0               -2.49480757 [mEh]      -1.56551539 [kcal/mol]      -6.55011637 [kJ/mol]
    Dispersion sSAPT0              -0.43477962 [mEh]      -0.27282833 [kcal/mol]      -1.14151374 [kJ/mol]
  Total sSAPT0                      4.85492958 [mEh]       3.04651431 [kcal/mol]      12.74661586 [kJ/mol]
  --------------------------------------------------------------------------------------------------------

*** Psi4 exiting successfully. Buy a developer a beer!
