                               Psi4 1.9 release

  ==> Input File <==

--------------------------------------------------------------------------
memory 80 GB # how much memory is available ! Depends on the nodes/cores !

molecule dimer {
# monomer A
+1 1    # Charge and multiplicity
C  0.680067 -0.008042 -4.815929
C -0.680504 -0.006014 -4.815545
N -1.085635 -0.005016 -3.497221
C  0.000108 -0.001740 -2.715820
C -2.477365  0.044390 -3.029242
N  1.085222 -0.005016 -3.497221
H  1.385146 -0.015870 -5.633368
H -1.385302 -0.006204 -5.633214
H -0.000009  0.000007 -1.634731
C  2.478117 -0.021908 -3.032123
H  2.490592  0.005437 -1.941870
H  2.967028 -0.935354 -3.379299
H  3.001428  0.853575 -3.423595
H -2.857359  1.066461 -3.109201
H -3.082679 -0.625694 -3.642306
H -2.518128 -0.282594 -1.989294
--
# monomer B
0 1     # Charge and multiplicity
C   -3.66844126402057      7.80375217008252      0.00190004133558
C   -4.84759871934653      7.13124183134024     -0.00046653359696
C   -4.89495929917518      5.69633040353158     -0.00103944469517
C   -3.65374067877320      4.98073034095895      0.00662099703436
C   -2.40942512149445      7.11398103667468      0.00209438359570
C   -2.42547734410473      5.68112195090346     -0.00491050527438
C   -1.19474401643570      7.78614419430947      0.00356656413763
C   0.03795902893699      7.09942164575698      0.00139585983271
C   0.03033258741920      5.66948955970466     -0.00408752508301
C   -1.20098450790502      4.96927034791531      0.00488220885047
C   1.27795782581485      7.77285944319479      0.00277170839332
C   2.48535808472416      7.08769688523756      0.00049722048857
C   2.48612868491717      5.65477081024076     -0.00644052849921
C   1.25408291964399      4.95607811366431      0.00518741308898
C   3.75171459140595      7.76391215098033      0.00062407186893
C   4.92356605618520      7.07878077698995     -0.00143240883900
C   4.95560727132542      5.64344746336949     -0.00159282164606
C   3.70680153420475      4.94121020833308      0.00349873852374
H   -3.65852113775815      8.89082741913536      0.00358502958574
H   -1.18921332975660      8.87412108735996      0.00753844057883
H   1.28429423888630      8.86083343548850      0.00693053253426
H   3.75354208679975      8.85103527897216      0.00214659618464
H   5.86995870320703      7.61379483465560     -0.00235777588134
H   -5.78823170750226      7.67630221293400     -0.00202638095293
C   -6.09197395869619      4.99326001364347     -0.00291168518608
C   -6.12866148031747      3.58258016879823     -0.00171050815740
C   -3.66457974004527      3.56418217974434     -0.00463560277484
C   -4.89429820469869      2.86108077590057      0.00453338221034
C   -2.43733499489796      2.84761165708481      0.00719617576166
C   -1.20922785759670      3.54788693497833     -0.00648285103018
C   1.24714157216223      3.53468075142962     -0.00729145743546
C   0.01517603956900      2.83311183930540      0.00439272578912
C   2.46764517244071      2.82128997725533      0.00449278391269
C   3.70254947457969      3.52466015442405     -0.00899517692985
C   6.14498038638375      4.92757236613191     -0.00282626685777
C   6.16658835886151      3.51658447594213     -0.00065971342101
C   4.92460995845939      2.80840792535402      0.00587903281610
H   7.08990550964105      5.46688776622306     -0.00658814770723
H   -7.03104175110130      5.54268795285765     -0.00714490013730
C   -7.33969804112295      2.85841153457957     -0.00333767559888
C   -7.36488195805880      1.47032337158330     -0.00157213747140
C   -4.90350460894690      1.44442681216000     -0.00628840166334
C   -6.13225715261081      0.73993935705394      0.00600164231964
C   -3.67687480051673      0.72669714267312      0.00433931473643
C   -2.44565658606518      1.42964113326212     -0.00597039546461
C   -1.22360068130162      0.71532450163492      0.00545886906656
C   0.00763786931376      1.41738314923765      0.00392452278437
C   1.23121980774686      0.70211669058719     -0.01490206287210
C   2.46082110053113      1.40329203612573      0.00460244601878
C   3.68443025419614      0.68719842821222      0.00377365974158
C   4.91870890153864      1.39173456118907     -0.00862816189375
C   7.36980207796101      2.77948220318441     -0.00242013321349
C   7.38016266612146      1.39121750785509     -0.00087345036788
C   6.13979953912259      0.67411862320065      0.00545489144369
H   -8.27919079934664      3.40711804112415     -0.00763522772059
H   8.31511347147953      3.31811809662368     -0.00663070901292
C   -8.59175593758115      0.72483255304480     -0.00123170985383
C   -8.59902460370342     -0.63263980622873      0.00089141472904
C   -6.13981313911873     -0.67413663715361     -0.00609792660607
C   -7.38018411213749     -1.39126618958160      0.00131813493501
C   -4.91868448025621     -1.39175501803000      0.00624257154343
C   -3.68443829568458     -0.68723731573599     -0.00478966852105
C   -2.46081704024768     -1.40334517882457      0.00575341766833
C   -1.23116201232071     -0.70217386488055     -0.00636696112346
C   -0.00756962538737     -1.41741884941102      0.00108956317991
C   1.22364771588843     -0.71527537726392      0.01109518512883
C   2.44567064933149     -1.42964328900682     -0.00065482763106
C   3.67686670284649     -0.72670743155550     -0.00479541202602
C   6.13224884641929     -0.73997883984993     -0.00632338623858
C   4.90351914550401     -1.44445752054090      0.00751768830159
C   8.59901484869081      0.63260386666793     -0.00101133422380
C   8.59174548810050     -0.72485086719319      0.00072504603735
C   7.36486276438985     -1.47033266560598      0.00049486934466
H   -9.52830597181814      1.27684744919284     -0.00270163681798
H   9.54141097460619      1.17457248844457     -0.00206336648518
C   -7.36983790976868     -2.77954514593389      0.00312634335708
C   -4.92459910905015     -2.80843725734101     -0.00460528907921
C   -6.16662249566744     -3.51665219282533      0.00169655107992
C   -3.70251035970491     -3.52468154912026      0.00571878010666
C   -2.46764698511392     -2.82132596280400     -0.00632585824990
C   -0.01513347410770     -2.83314164539971     -0.00604426974092
C   -1.24712184122656     -3.53473217556300      0.00551968366725
C   1.20924506964357     -3.54791467864352      0.00805871345849
C   2.43733602215464     -2.84764173817541     -0.00608104485234
C   4.89430234377080     -2.86112296828604     -0.00526030478103
C   3.66461525504104     -3.56421984553201      0.00761911515957
C   6.12863901474565     -3.58258405771778      0.00096495711699
C   7.33967266469532     -2.85841330737039      0.00248018319869
H   -9.54144911125902     -1.17456346666430      0.00226083090216
H   9.52826186807155     -1.27691907390448      0.00197485379837
H   -8.31516504384864     -3.31814985321231      0.00729857188773
H   8.27915514249207     -3.40714078989363      0.00681973918158
C   -6.14499418870218     -4.92764727278338      0.00302254913999
C   -3.70678334799751     -4.94126171411716     -0.00679841894792
C   -4.95559005800169     -5.64349397349412      0.00116871569699
C   -2.48612132622665     -5.65478557440947      0.00614125209662
C   -1.25405833548005     -4.95612205000132     -0.00503435388927
C   1.20101257386816     -4.96928038819302     -0.00385322963129
C   -0.03033667441341     -5.66952030313900      0.00398997003238
C   3.65375010132847     -4.98074377541453     -0.00309522988330
C   2.42549269587528     -5.68117463552727      0.00628170066869
C   6.09196561781097     -4.99325796338655      0.00325918379042
C   4.89497644461045     -5.69634842095790      0.00202298796027
H   -7.08989238804069     -5.46699984223871      0.00742531082125
H   7.03105520920009     -5.54265853633254      0.00683896355417
C   -4.92354532219813     -7.07882109967734      0.00061394679214
C   -2.48534208823777     -7.08772807792913     -0.00189594564379
C   -3.75168589177895     -7.76394715763627     -0.00170126671874
C   -0.03794895698805     -7.09946487446944     -0.00168022049625
C   -1.27795610040136     -7.77290438466689     -0.00366491325785
C   2.40944432072629     -7.11402201200282     -0.00081701968533
C   1.19474993715296     -7.78618536556242     -0.00296931056689
C   4.84762105249800     -7.13126211057943      0.00168979497423
C   3.66847160587561     -7.80378799294376     -0.00065863938960
H   -5.86994035041618     -7.61383059804164      0.00215798365757
H   5.78824962538815     -7.67633218931421      0.00281691445618
H   -3.75352693944918     -8.85107156923607     -0.00353718114765
H   -1.28430440589466     -8.86087539249706     -0.00809229711623
H   1.18922157469537     -8.87416062058945     -0.00706194725726
H   3.65854661482387     -8.89086063405326     -0.00231318081200

    units angstrom      # Angstroms are the default
    no_reorient         # Geometry fixed, default
    symmetry c1         # C1 symmetry, default
}

set {
    scf_type DF         # Density fitting, faster than exact integrals
    freeze_core True    # Freeze core electrons
    basis jun-cc-pVDZ   # Jun-cc-pVDZ basis set, recommended for sSAPT0 in https://doi.org/10.1063/1.4867135
}

energy('ssapt0')        # Compute sSAPT0 energy, includes also SAPT0
--------------------------------------------------------------------------

  //              Dimer HF             //
    Molecular point group: c1
  Charge       = 1
  Multiplicity = 1
  Basis Set: JUN-CC-PVDZ
    Blend: JUN-CC-PVDZ
  Basis Set: (JUN-CC-PVDZ AUX)
    Blend: JUN-CC-PVDZ-JKFIT
  @DF-RHF Final Energy: -3953.61885775223345
    Total Energy =                      -3953.6188577522334526
 Dipole X            :         -0.0000415            0.0004804            0.0004389
 Dipole Y            :         -0.0496733            0.0561130            0.0064397
 Dipole Z            :         16.2358385          -19.9773579           -3.7415194
 Magnitude           :                                                    3.7415250
  //            Monomer A HF           //
    Molecular point group: c1
  Multiplicity = 1
  Basis Set: JUN-CC-PVDZ
    Blend: JUN-CC-PVDZ
  Basis Set: (JUN-CC-PVDZ AUX)
    Blend: JUN-CC-PVDZ-JKFIT
  @DF-RHF Final Energy:  -303.29901221526637
    Total Energy =                       -303.2990122152663730
  //            Monomer B HF           //
    Molecular point group: c1

    Geometry (in Angstrom), charge = 0, multiplicity = 1:

       Center              X                  Y                   Z               Mass
    ------------   -----------------  -----------------  -----------------  -----------------
      Gh(C)           0.680062820275    -0.008027535675    -4.541462585681    12.000000000000
      Gh(C)          -0.680508179725    -0.005999535675    -4.541078585681    12.000000000000
      Gh(N)          -1.085639179725    -0.005001535675    -3.222754585681    14.003074004430
      Gh(C)           0.000103820275    -0.001725535675    -2.441353585681    12.000000000000
      Gh(C)          -2.477369179725     0.044404464325    -2.754775585681    12.000000000000
      Gh(N)           1.085217820275    -0.005001535675    -3.222754585681    14.003074004430
      Gh(H)           1.385141820275    -0.015855535675    -5.358901585681     1.007825032230
      Gh(H)          -1.385306179725    -0.006189535675    -5.358747585681     1.007825032230
      Gh(H)          -0.000013179725     0.000021464325    -1.360264585681     1.007825032230
      Gh(C)           2.478112820275    -0.021893535675    -2.757656585681    12.000000000000
      Gh(H)           2.490587820275     0.005451464325    -1.667403585681     1.007825032230
      Gh(H)           2.967023820275    -0.935339535675    -3.104832585681     1.007825032230
      Gh(H)           3.001423820275     0.853589464325    -3.149128585681     1.007825032230
      Gh(H)          -2.857363179725     1.066475464325    -2.834734585681     1.007825032230
      Gh(H)          -3.082683179725    -0.625679535675    -3.367839585681     1.007825032230
      Gh(H)          -2.518132179725    -0.282579535675    -1.714827585681     1.007825032230
         C           -3.668445443746     7.803766634408     0.276366455654    12.000000000000
         C           -4.847602899072     7.131256295665     0.273999880722    12.000000000000
         C           -4.894963478901     5.696344867857     0.273426969624    12.000000000000
         C           -3.653744858499     4.980744805284     0.281087411353    12.000000000000
         C           -2.409429301220     7.113995501000     0.276560797914    12.000000000000
         C           -2.425481523830     5.681136415228     0.269555909044    12.000000000000
         C           -1.194748196161     7.786158658634     0.278032978456    12.000000000000
         C            0.037954849212     7.099436110082     0.275862274151    12.000000000000
         C            0.030328407694     5.669504024030     0.270378889236    12.000000000000
         C           -1.200988687630     4.969284812240     0.279348623169    12.000000000000
         C            1.277953646089     7.772873907520     0.277238122712    12.000000000000
         C            2.485353904999     7.087711349563     0.274963634807    12.000000000000
         C            2.486124505192     5.654785274566     0.268025885820    12.000000000000
         C            1.254078739919     4.956092577989     0.279653827408    12.000000000000
         C            3.751710411681     7.763926615305     0.275090486188    12.000000000000
         C            4.923561876460     7.078795241315     0.273034005480    12.000000000000
         C            4.955603091600     5.643461927694     0.272873592673    12.000000000000
         C            3.706797354479     4.941224672658     0.277965152843    12.000000000000
         H           -3.658525317484     8.890841883460     0.278051443905     1.007825032230
         H           -1.189217509482     8.874135551685     0.282004854898     1.007825032230
         H            1.284290059161     8.860847899813     0.281396946853     1.007825032230
         H            3.753537907074     8.851049743297     0.276613010503     1.007825032230
         H            5.869954523482     7.613809298981     0.272108638437     1.007825032230
         H           -5.788235887228     7.676316677259     0.272440033366     1.007825032230
         C           -6.091978138422     4.993274477968     0.271554729133    12.000000000000
         C           -6.128665660043     3.582594633123     0.272755906161    12.000000000000
         C           -3.664583919771     3.564196644069     0.269830811544    12.000000000000
         C           -4.894302384424     2.861095240226     0.278999796529    12.000000000000
         C           -2.437339174623     2.847626121410     0.281662590080    12.000000000000
         C           -1.209232037322     3.547901399303     0.267983563289    12.000000000000
         C            1.247137392437     3.534695215755     0.267174956883    12.000000000000
         C            0.015171859844     2.833126303630     0.278859140108    12.000000000000
         C            2.467640992715     2.821304441580     0.278959198231    12.000000000000
         C            3.702545294854     3.524674618749     0.265471237389    12.000000000000
         C            6.144976206658     4.927586830457     0.271640147461    12.000000000000
         C            6.166584179136     3.516598940267     0.273806700898    12.000000000000
         C            4.924605778734     2.808422389679     0.280345447135    12.000000000000
         H            7.089901329916     5.466902230548     0.267878266612     1.007825032230
         H           -7.031045930827     5.542702417183     0.267321514181     1.007825032230
         C           -7.339702220848     2.858425998905     0.271128738720    12.000000000000
         C           -7.364886137784     1.470337835908     0.272894276847    12.000000000000
         C           -4.903508788672     1.444441276485     0.268178012655    12.000000000000
         C           -6.132261332336     0.739953821379     0.280468056638    12.000000000000
         C           -3.676878980242     0.726711606998     0.278805729055    12.000000000000
         C           -2.445660765791     1.429655597587     0.268496018854    12.000000000000
         C           -1.223604861027     0.715338965960     0.279925283385    12.000000000000
         C            0.007633689588     1.417397613563     0.278390937103    12.000000000000
         C            1.231215628021     0.702131154912     0.259564351447    12.000000000000
         C            2.460816920806     1.403306500451     0.279068860338    12.000000000000
         C            3.684426074471     0.687212892537     0.278240074060    12.000000000000
         C            4.918704721813     1.391749025514     0.265838252425    12.000000000000
         C            7.369797898236     2.779496667509     0.272046281105    12.000000000000
         C            7.380158486396     1.391231972180     0.273592963951    12.000000000000
         C            6.139795359397     0.674133087526     0.279921305762    12.000000000000
         H           -8.279194979072     3.407132505449     0.266831186598     1.007825032230
         H            8.315109291754     3.318132560949     0.267835705306     1.007825032230
         C           -8.591760117307     0.724847017370     0.273234704465    12.000000000000
         C           -8.599028783429    -0.632625341904     0.275357829048    12.000000000000
         C           -6.139817318844    -0.674122172829     0.268368487713    12.000000000000
         C           -7.380188291863    -1.391251725257     0.275784549254    12.000000000000
         C           -4.918688659982    -1.391740553705     0.280708985862    12.000000000000
         C           -3.684442475410    -0.687222851411     0.269676745798    12.000000000000
         C           -2.460821219973    -1.403330714500     0.280219831987    12.000000000000
         C           -1.231166192046    -0.702159400556     0.268099453195    12.000000000000
         C           -0.007573805113    -1.417404385086     0.275555977499    12.000000000000
         C            1.223643536163    -0.715260912939     0.285561599448    12.000000000000
         C            2.445666469606    -1.429628824682     0.273811586688    12.000000000000
         C            3.676862523121    -0.726692967231     0.269671002293    12.000000000000
         C            6.132244666694    -0.739964375525     0.268143028080    12.000000000000
         C            4.903514965779    -1.444443056216     0.281984102620    12.000000000000
         C            8.599010668965     0.632618330993     0.273455080095    12.000000000000
         C            8.591741308375    -0.724836402868     0.275191460356    12.000000000000
         C            7.364858584664    -1.470318201281     0.274961283663    12.000000000000
         H           -9.528310151544     1.276861913518     0.271764777501     1.007825032230
         H            9.541406794881     1.174586952770     0.272403047834     1.007825032230
         C           -7.369842089494    -2.779530681609     0.277592757676    12.000000000000
         C           -4.924603288776    -2.808422793016     0.269861125240    12.000000000000
         C           -6.166626675393    -3.516637728500     0.276162965399    12.000000000000
         C           -3.702514539430    -3.524667084795     0.280185194425    12.000000000000
         C           -2.467651164839    -2.821311498479     0.268140556069    12.000000000000
         C           -0.015137653833    -2.833127181075     0.268422144578    12.000000000000
         C           -1.247126020952    -3.534717711238     0.279986097986    12.000000000000
         C            1.209240889918    -3.547900214319     0.282525127777    12.000000000000
         C            2.437331842429    -2.847627273850     0.268385369466    12.000000000000
         C            4.894298164045    -2.861108503961     0.269206109538    12.000000000000
         C            3.664611075316    -3.564205381207     0.282085529478    12.000000000000
         C            6.128634835020    -3.582569593393     0.275431371436    12.000000000000
         C            7.339668484970    -2.858398843045     0.276946597517    12.000000000000
         H           -9.541453290984    -1.174549002339     0.276727245221     1.007825032230
         H            9.528257688346    -1.276904609579     0.276441268117     1.007825032230
         H           -8.315169223574    -3.318135388887     0.281764986207     1.007825032230
         H            8.279150962767    -3.407126325569     0.281286153500     1.007825032230
         C           -6.144998368428    -4.927632808458     0.277488963459    12.000000000000
         C           -3.706787527723    -4.941247249792     0.267667995371    12.000000000000
         C           -4.955594237727    -5.643479509169     0.275635130016    12.000000000000
         C           -2.486125505952    -5.654771110084     0.280607666415    12.000000000000
         C           -1.254062515205    -4.956107585676     0.269432060430    12.000000000000
         C            1.201008394143    -4.969265923868     0.270613184687    12.000000000000
         C           -0.030340854139    -5.669505838814     0.278456384351    12.000000000000
         C            3.653745921603    -4.980729311090     0.271371184435    12.000000000000
         C            2.425488516150    -5.681160171202     0.280748114987    12.000000000000
         C            6.091961438086    -4.993243499062     0.277725598109    12.000000000000
         C            4.894972264885    -5.696333956633     0.276489402279    12.000000000000
         H           -7.089896567766    -5.466985377914     0.281891725140     1.007825032230
         H            7.031051029475    -5.542644072008     0.281305377873     1.007825032230
         C           -4.923549501924    -7.078806635352     0.275080361111    12.000000000000
         C           -2.485346267963    -7.087713613604     0.272570468675    12.000000000000
         C           -3.751690071504    -7.763932693311     0.272765147600    12.000000000000
         C           -0.037953136713    -7.099450410144     0.272786193823    12.000000000000
         C           -1.277960280127    -7.772889920342     0.270801501061    12.000000000000
         C            2.409440141001    -7.114007547678     0.273649394633    12.000000000000
         C            1.194745757428    -7.786170901237     0.271497103752    12.000000000000
         C            4.847616872773    -7.131247646254     0.276156209293    12.000000000000
         C            3.668467426150    -7.803773528619     0.273807774929    12.000000000000
         H           -5.869944530142    -7.613816133717     0.276624397976     1.007825032230
         H            5.788245445663    -7.676317724989     0.277283328775     1.007825032230
         H           -3.753531119175    -8.851057104911     0.270929233171     1.007825032230
         H           -1.284308585620    -8.860860928172     0.266374117203     1.007825032230
         H            1.189217394970    -8.874146156264     0.267404467062     1.007825032230
         H            3.658542435098    -8.890846169728     0.272153233507     1.007825032230

  Charge       = 0
  Multiplicity = 1
  Basis Set: JUN-CC-PVDZ
    Blend: JUN-CC-PVDZ
  Basis Set: (JUN-CC-PVDZ AUX)
    Blend: JUN-CC-PVDZ-JKFIT

    Orbital Energies [Eh]
    ---------------------

    Doubly Occupied:

       1A    -11.264033     2A    -11.263734     3A    -11.263628
       4A    -11.263310     5A    -11.263304     6A    -11.263203
       7A    -11.263149     8A    -11.263091     9A    -11.263027
      10A    -11.262852    11A    -11.262737    12A    -11.262705
      13A    -11.262241    14A    -11.262233    15A    -11.262220
      16A    -11.262140    17A    -11.262069    18A    -11.262050
      19A    -11.262017    20A    -11.261967    21A    -11.261957
      22A    -11.261866    23A    -11.261833    24A    -11.261695
      25A    -11.261691    26A    -11.261663    27A    -11.261654
      28A    -11.261616    29A    -11.261611    30A    -11.261519
      31A    -11.261503    32A    -11.261495    33A    -11.261491
      34A    -11.261475    35A    -11.261454    36A    -11.261436
      37A    -11.261275    38A    -11.261265    39A    -11.261257
      40A    -11.261251    41A    -11.261235    42A    -11.261230
      43A    -11.261223    44A    -11.261209    45A    -11.261199
      46A    -11.261182    47A    -11.261170    48A    -11.261161
      49A    -11.261033    50A    -11.261026    51A    -11.260958
      52A    -11.260926    53A    -11.260873    54A    -11.260834
      55A    -11.259846    56A    -11.259827    57A    -11.259823
      58A    -11.259799    59A    -11.259790    60A    -11.259773
      61A    -11.259215    62A    -11.259189    63A    -11.259177
      64A    -11.259136    65A    -11.259118    66A    -11.259095
      67A    -11.258846    68A    -11.258825    69A    -11.258821
      70A    -11.258799    71A    -11.258787    72A    -11.258775
      73A    -11.254486    74A    -11.254476    75A    -11.254476
      76A    -11.254464    77A    -11.254451    78A    -11.254445
      79A    -11.253604    80A    -11.253588    81A    -11.253583
      82A    -11.253571    83A    -11.253568    84A    -11.253564
      85A    -11.253520    86A    -11.253503    87A    -11.253493
      88A    -11.253483    89A    -11.253476    90A    -11.253476
      91A    -11.253013    92A    -11.253004    93A    -11.253003
      94A    -11.252992    95A    -11.252979    96A    -11.252973
      97A     -1.253795    98A     -1.238889    99A     -1.238839
     100A     -1.220357   101A     -1.220333   102A     -1.215305
     103A     -1.200937   104A     -1.195500   105A     -1.188021
     106A     -1.187992   107A     -1.173666   108A     -1.173665
     109A     -1.155499   110A     -1.155494   111A     -1.152580
     112A     -1.144630   113A     -1.144629   114A     -1.128444
     115A     -1.114585   116A     -1.113072   117A     -1.112363
     118A     -1.112323   119A     -1.111530   120A     -1.088311
     121A     -1.088287   122A     -1.076873   123A     -1.076871
     124A     -1.067502   125A     -1.067453   126A     -1.064837
     127A     -1.046689   128A     -1.046676   129A     -1.040362
     130A     -1.038651   131A     -1.038640   132A     -1.025110
     133A     -1.021240   134A     -1.021169   135A     -1.007077
     136A     -1.006682   137A     -1.003690   138A     -1.000368
     139A     -1.000301   140A     -0.990992   141A     -0.970869
     142A     -0.970813   143A     -0.955788   144A     -0.955725
     145A     -0.905468   146A     -0.905430   147A     -0.905422
     148A     -0.905407   149A     -0.904171   150A     -0.892206
     151A     -0.892153   152A     -0.890222   153A     -0.890174
     154A     -0.889323   155A     -0.872124   156A     -0.868984
     157A     -0.851433   158A     -0.847723   159A     -0.847713
     160A     -0.845461   161A     -0.842882   162A     -0.834442
     163A     -0.834433   164A     -0.828033   165A     -0.828020
     166A     -0.784438   167A     -0.784431   168A     -0.783533
     169A     -0.783525   170A     -0.782159   171A     -0.782142
     172A     -0.781897   173A     -0.766872   174A     -0.760647
     175A     -0.750444   176A     -0.733391   177A     -0.726971
     178A     -0.726914   179A     -0.724956   180A     -0.724434
     181A     -0.724391   182A     -0.718349   183A     -0.713634
     184A     -0.713626   185A     -0.699471   186A     -0.699441
     187A     -0.685982   188A     -0.685855   189A     -0.685836
     190A     -0.682060   191A     -0.682051   192A     -0.678660
     193A     -0.653516   194A     -0.650758   195A     -0.650720
     196A     -0.649669   197A     -0.649658   198A     -0.649461
     199A     -0.640801   200A     -0.640742   201A     -0.639978
     202A     -0.639059   203A     -0.635897   204A     -0.635861
     205A     -0.629018   206A     -0.617697   207A     -0.615207
     208A     -0.615176   209A     -0.608687   210A     -0.608681
     211A     -0.599153   212A     -0.599058   213A     -0.598625
     214A     -0.598462   215A     -0.598437   216A     -0.597898
     217A     -0.594964   218A     -0.594949   219A     -0.594606
     220A     -0.594076   221A     -0.591829   222A     -0.591824
     223A     -0.587238   224A     -0.577719   225A     -0.577692
     226A     -0.575669   227A     -0.575628   228A     -0.573267
     229A     -0.569531   230A     -0.568005   231A     -0.567978
     232A     -0.566628   233A     -0.566622   234A     -0.560826
     235A     -0.558602   236A     -0.558541   237A     -0.558337
     238A     -0.554246   239A     -0.550531   240A     -0.547390
     241A     -0.544208   242A     -0.534967   243A     -0.534924
     244A     -0.533425   245A     -0.533410   246A     -0.527975
     247A     -0.527950   248A     -0.527637   249A     -0.517025
     250A     -0.517007   251A     -0.515290   252A     -0.515282
     253A     -0.509534   254A     -0.509523   255A     -0.497910
     256A     -0.496343   257A     -0.496283   258A     -0.493743
     259A     -0.493700   260A     -0.489383   261A     -0.481342
     262A     -0.477344   263A     -0.477343   264A     -0.473877
     265A     -0.469296   266A     -0.466394   267A     -0.466386
     268A     -0.458747   269A     -0.446514   270A     -0.446468
     271A     -0.440960   272A     -0.440704   273A     -0.440650
     274A     -0.434614   275A     -0.433838   276A     -0.407299
     277A     -0.407275   278A     -0.386313   279A     -0.386260
     280A     -0.385663   281A     -0.385652   282A     -0.383667
     283A     -0.354238   284A     -0.354210   285A     -0.350573
     286A     -0.337999   287A     -0.335454   288A     -0.335445
     289A     -0.332644   290A     -0.332624   291A     -0.306952
     292A     -0.301848   293A     -0.301772   294A     -0.300778
     295A     -0.286076   296A     -0.256416   297A     -0.253365
     298A     -0.253326   299A     -0.204162   300A     -0.204082

  @DF-RHF Final Energy: -3650.34218960491762

   => Energetics <=

    Nuclear Repulsion Energy =          15611.4211649754306563
    One-Electron Energy =              -36072.2073708066018298
    Two-Electron Energy =               16810.4440162262544618
    Total Energy =                      -3650.3421896049185307
 Dipole X            :         -0.0005948            0.0002112           -0.0003836
 Dipole Y            :          0.0028993           -0.0013774            0.0015218
 Dipole Z            :       -311.2010082          311.2032041            0.0021960
 Magnitude           :                                                    0.0026992

    SAPT Results
  --------------------------------------------------------------------------------------------------------
    Electrostatics                -37.07265511 [mEh]     -23.26344230 [kcal/mol]     -97.33424257 [kJ/mol]
      Elst10,r                    -37.07265511 [mEh]     -23.26344230 [kcal/mol]     -97.33424257 [kJ/mol]

    Exchange                       97.91337544 [mEh]      61.44157070 [kcal/mol]     257.07153179 [kJ/mol]
      Exch10                       97.91337544 [mEh]      61.44157070 [kcal/mol]     257.07153179 [kJ/mol]
      Exch10(S^2)                  95.54306689 [mEh]      59.95417963 [kcal/mol]     250.84828757 [kJ/mol]

    Induction                     -38.49665238 [mEh]     -24.15701408 [kcal/mol]    -101.07294690 [kJ/mol]
      Ind20,r                     -55.48792047 [mEh]     -34.81919578 [kcal/mol]    -145.68351513 [kJ/mol]
      Exch-Ind20,r                 28.18094525 [mEh]      17.68381012 [kcal/mol]      73.98906155 [kJ/mol]
      delta HF,r (2)              -11.18967715 [mEh]      -7.02162842 [kcal/mol]     -29.37849332 [kJ/mol]

    Dispersion                    -54.47252175 [mEh]     -34.18202346 [kcal/mol]    -143.01758615 [kJ/mol]
      Disp20                      -61.56783703 [mEh]     -38.63440101 [kcal/mol]    -161.64633385 [kJ/mol]
      Exch-Disp20                   7.09531528 [mEh]       4.45237756 [kcal/mol]      18.62874769 [kJ/mol]
      Disp20 (SS)                 -30.78391851 [mEh]     -19.31720051 [kcal/mol]     -80.82316692 [kJ/mol]
      Disp20 (OS)                 -30.78391851 [mEh]     -19.31720051 [kcal/mol]     -80.82316692 [kJ/mol]
      Exch-Disp20 (SS)              4.19689303 [mEh]       2.63359014 [kcal/mol]      11.01894114 [kJ/mol]
      Exch-Disp20 (OS)              2.89842225 [mEh]       1.81878742 [kcal/mol]       7.60980656 [kJ/mol]

  Total HF                         22.34406795 [mEh]      14.02111432 [kcal/mol]      58.66434232 [kJ/mol]
  Total SAPT0                     -32.12845380 [mEh]     -20.16090914 [kcal/mol]     -84.35324383 [kJ/mol]

  Special recipe for scaled SAPT0 (see Manual):
    Electrostatics sSAPT0         -37.07265511 [mEh]     -23.26344230 [kcal/mol]     -97.33424257 [kJ/mol]
    Exchange sSAPT0                97.91337544 [mEh]      61.44157070 [kcal/mol]     257.07153179 [kJ/mol]
    Induction sSAPT0              -36.34678191 [mEh]     -22.80794999 [kcal/mol]     -95.42846277 [kJ/mol]
    Dispersion sSAPT0             -53.93123371 [mEh]     -33.84236008 [kcal/mol]    -141.59643459 [kJ/mol]
  Total sSAPT0                    -29.43729529 [mEh]     -18.47218168 [kcal/mol]     -77.28760814 [kJ/mol]
  --------------------------------------------------------------------------------------------------------

*** Psi4 exiting successfully. Buy a developer a beer!
