                               Psi4 1.9 release

  ==> Input File <==

--------------------------------------------------------------------------
memory 64 GB # how much memory is available ! Depends on the nodes/cores !

molecule dimer {
# monomer A
-1 1    # Charge and multiplicity
B -1.977592e-04  2.742729e-04 -2.399966
F  1.123153e-16  1.430594e-17 -0.987181
F  1.147860e+00  6.757812e-01 -2.871107
F  1.191806e-02 -1.332011e+00 -2.870905
F -1.159666e+00  6.560735e-01 -2.870826
--
# monomer B
0 1     # Charge and multiplicity
C   -3.66844126402057      7.80375217008252      0.00190004133558
C   -4.84759871934653      7.13124183134024     -0.00046653359696
C   -4.89495929917518      5.69633040353158     -0.00103944469517
C   -3.65374067877320      4.98073034095895      0.00662099703436
C   -2.40942512149445      7.11398103667468      0.00209438359570
C   -2.42547734410473      5.68112195090346     -0.00491050527438
C   -1.19474401643570      7.78614419430947      0.00356656413763
C   0.03795902893699      7.09942164575698      0.00139585983271
C   0.03033258741920      5.66948955970466     -0.00408752508301
C   -1.20098450790502      4.96927034791531      0.00488220885047
C   1.27795782581485      7.77285944319479      0.00277170839332
C   2.48535808472416      7.08769688523756      0.00049722048857
C   2.48612868491717      5.65477081024076     -0.00644052849921
C   1.25408291964399      4.95607811366431      0.00518741308898
C   3.75171459140595      7.76391215098033      0.00062407186893
C   4.92356605618520      7.07878077698995     -0.00143240883900
C   4.95560727132542      5.64344746336949     -0.00159282164606
C   3.70680153420475      4.94121020833308      0.00349873852374
H   -3.65852113775815      8.89082741913536      0.00358502958574
H   -1.18921332975660      8.87412108735996      0.00753844057883
H   1.28429423888630      8.86083343548850      0.00693053253426
H   3.75354208679975      8.85103527897216      0.00214659618464
H   5.86995870320703      7.61379483465560     -0.00235777588134
H   -5.78823170750226      7.67630221293400     -0.00202638095293
C   -6.09197395869619      4.99326001364347     -0.00291168518608
C   -6.12866148031747      3.58258016879823     -0.00171050815740
C   -3.66457974004527      3.56418217974434     -0.00463560277484
C   -4.89429820469869      2.86108077590057      0.00453338221034
C   -2.43733499489796      2.84761165708481      0.00719617576166
C   -1.20922785759670      3.54788693497833     -0.00648285103018
C   1.24714157216223      3.53468075142962     -0.00729145743546
C   0.01517603956900      2.83311183930540      0.00439272578912
C   2.46764517244071      2.82128997725533      0.00449278391269
C   3.70254947457969      3.52466015442405     -0.00899517692985
C   6.14498038638375      4.92757236613191     -0.00282626685777
C   6.16658835886151      3.51658447594213     -0.00065971342101
C   4.92460995845939      2.80840792535402      0.00587903281610
H   7.08990550964105      5.46688776622306     -0.00658814770723
H   -7.03104175110130      5.54268795285765     -0.00714490013730
C   -7.33969804112295      2.85841153457957     -0.00333767559888
C   -7.36488195805880      1.47032337158330     -0.00157213747140
C   -4.90350460894690      1.44442681216000     -0.00628840166334
C   -6.13225715261081      0.73993935705394      0.00600164231964
C   -3.67687480051673      0.72669714267312      0.00433931473643
C   -2.44565658606518      1.42964113326212     -0.00597039546461
C   -1.22360068130162      0.71532450163492      0.00545886906656
C   0.00763786931376      1.41738314923765      0.00392452278437
C   1.23121980774686      0.70211669058719     -0.01490206287210
C   2.46082110053113      1.40329203612573      0.00460244601878
C   3.68443025419614      0.68719842821222      0.00377365974158
C   4.91870890153864      1.39173456118907     -0.00862816189375
C   7.36980207796101      2.77948220318441     -0.00242013321349
C   7.38016266612146      1.39121750785509     -0.00087345036788
C   6.13979953912259      0.67411862320065      0.00545489144369
H   -8.27919079934664      3.40711804112415     -0.00763522772059
H   8.31511347147953      3.31811809662368     -0.00663070901292
C   -8.59175593758115      0.72483255304480     -0.00123170985383
C   -8.59902460370342     -0.63263980622873      0.00089141472904
C   -6.13981313911873     -0.67413663715361     -0.00609792660607
C   -7.38018411213749     -1.39126618958160      0.00131813493501
C   -4.91868448025621     -1.39175501803000      0.00624257154343
C   -3.68443829568458     -0.68723731573599     -0.00478966852105
C   -2.46081704024768     -1.40334517882457      0.00575341766833
C   -1.23116201232071     -0.70217386488055     -0.00636696112346
C   -0.00756962538737     -1.41741884941102      0.00108956317991
C   1.22364771588843     -0.71527537726392      0.01109518512883
C   2.44567064933149     -1.42964328900682     -0.00065482763106
C   3.67686670284649     -0.72670743155550     -0.00479541202602
C   6.13224884641929     -0.73997883984993     -0.00632338623858
C   4.90351914550401     -1.44445752054090      0.00751768830159
C   8.59901484869081      0.63260386666793     -0.00101133422380
C   8.59174548810050     -0.72485086719319      0.00072504603735
C   7.36486276438985     -1.47033266560598      0.00049486934466
H   -9.52830597181814      1.27684744919284     -0.00270163681798
H   9.54141097460619      1.17457248844457     -0.00206336648518
C   -7.36983790976868     -2.77954514593389      0.00312634335708
C   -4.92459910905015     -2.80843725734101     -0.00460528907921
C   -6.16662249566744     -3.51665219282533      0.00169655107992
C   -3.70251035970491     -3.52468154912026      0.00571878010666
C   -2.46764698511392     -2.82132596280400     -0.00632585824990
C   -0.01513347410770     -2.83314164539971     -0.00604426974092
C   -1.24712184122656     -3.53473217556300      0.00551968366725
C   1.20924506964357     -3.54791467864352      0.00805871345849
C   2.43733602215464     -2.84764173817541     -0.00608104485234
C   4.89430234377080     -2.86112296828604     -0.00526030478103
C   3.66461525504104     -3.56421984553201      0.00761911515957
C   6.12863901474565     -3.58258405771778      0.00096495711699
C   7.33967266469532     -2.85841330737039      0.00248018319869
H   -9.54144911125902     -1.17456346666430      0.00226083090216
H   9.52826186807155     -1.27691907390448      0.00197485379837
H   -8.31516504384864     -3.31814985321231      0.00729857188773
H   8.27915514249207     -3.40714078989363      0.00681973918158
C   -6.14499418870218     -4.92764727278338      0.00302254913999
C   -3.70678334799751     -4.94126171411716     -0.00679841894792
C   -4.95559005800169     -5.64349397349412      0.00116871569699
C   -2.48612132622665     -5.65478557440947      0.00614125209662
C   -1.25405833548005     -4.95612205000132     -0.00503435388927
C   1.20101257386816     -4.96928038819302     -0.00385322963129
C   -0.03033667441341     -5.66952030313900      0.00398997003238
C   3.65375010132847     -4.98074377541453     -0.00309522988330
C   2.42549269587528     -5.68117463552727      0.00628170066869
C   6.09196561781097     -4.99325796338655      0.00325918379042
C   4.89497644461045     -5.69634842095790      0.00202298796027
H   -7.08989238804069     -5.46699984223871      0.00742531082125
H   7.03105520920009     -5.54265853633254      0.00683896355417
C   -4.92354532219813     -7.07882109967734      0.00061394679214
C   -2.48534208823777     -7.08772807792913     -0.00189594564379
C   -3.75168589177895     -7.76394715763627     -0.00170126671874
C   -0.03794895698805     -7.09946487446944     -0.00168022049625
C   -1.27795610040136     -7.77290438466689     -0.00366491325785
C   2.40944432072629     -7.11402201200282     -0.00081701968533
C   1.19474993715296     -7.78618536556242     -0.00296931056689
C   4.84762105249800     -7.13126211057943      0.00168979497423
C   3.66847160587561     -7.80378799294376     -0.00065863938960
H   -5.86994035041618     -7.61383059804164      0.00215798365757
H   5.78824962538815     -7.67633218931421      0.00281691445618
H   -3.75352693944918     -8.85107156923607     -0.00353718114765
H   -1.28430440589466     -8.86087539249706     -0.00809229711623
H   1.18922157469537     -8.87416062058945     -0.00706194725726
H   3.65854661482387     -8.89086063405326     -0.00231318081200

    units angstrom      # Angstroms are the default
    no_reorient         # Geometry fixed, default
    symmetry c1         # C1 symmetry, default
}

set {
    scf_type DF         # Density fitting, faster than exact integrals
    freeze_core True    # Freeze core electrons
    basis jun-cc-pVDZ   # Jun-cc-pVDZ basis set, recommended for sSAPT0 in https://doi.org/10.1063/1.4867135
}

energy('ssapt0')        # Compute sSAPT0 energy, includes also SAPT0
--------------------------------------------------------------------------

  //              Dimer HF             //
    Molecular point group: c1
  Charge       = -1
  Multiplicity = 1
  Basis Set: JUN-CC-PVDZ
    Blend: JUN-CC-PVDZ
  Basis Set: (JUN-CC-PVDZ AUX)
    Blend: JUN-CC-PVDZ-JKFIT
  @DF-RHF Final Energy: -4072.61347010058580
    Total Energy =                      -4072.6134701005867100
 Dipole X            :          0.0000046           -0.0000548           -0.0000501
 Dipole Y            :         -0.0002795           -0.0002464           -0.0005259
 Dipole Z            :        -12.1245861           14.2823331            2.1577470
 Magnitude           :                                                    2.1577471
  //            Monomer A HF           //
    Molecular point group: c1
  Multiplicity = 1
  Basis Set: JUN-CC-PVDZ
    Blend: JUN-CC-PVDZ
  Basis Set: (JUN-CC-PVDZ AUX)
    Blend: JUN-CC-PVDZ-JKFIT
  @DF-RHF Final Energy:  -422.77851207927102
    Total Energy =                       -422.7785120792710245
  //            Monomer B HF           //
    Molecular point group: c1

    Geometry (in Angstrom), charge = 0, multiplicity = 1:

       Center              X                  Y                   Z               Mass
    ------------   -----------------  -----------------  -----------------  -----------------
      Gh(B)          -0.000201921932     0.000288800891    -2.234667885661    11.009305360000
      Gh(F)          -0.000004162732     0.000014527991    -0.821882885661    18.998403162730
      Gh(F)           1.147855837268     0.675795727991    -2.705808885661    18.998403162730
      Gh(F)           0.011913897268    -1.331996472009    -2.705606885661    18.998403162730
      Gh(F)          -1.159670162732     0.656088027991    -2.705527885661    18.998403162730
         C           -3.668445426752     7.803766698073     0.167198155675    12.000000000000
         C           -4.847602882078     7.131256359331     0.164831580742    12.000000000000
         C           -4.894963461907     5.696344931522     0.164258669644    12.000000000000
         C           -3.653744841505     4.980744868950     0.171919111373    12.000000000000
         C           -2.409429284226     7.113995564665     0.167392497935    12.000000000000
         C           -2.425481506836     5.681136478894     0.160387609065    12.000000000000
         C           -1.194748179167     7.786158722300     0.168864678477    12.000000000000
         C            0.037954866205     7.099436173748     0.166693974172    12.000000000000
         C            0.030328424687     5.669504087695     0.161210589256    12.000000000000
         C           -1.200988670637     4.969284875906     0.170180323189    12.000000000000
         C            1.277953663083     7.772873971185     0.168069822732    12.000000000000
         C            2.485353921992     7.087711413228     0.165795334828    12.000000000000
         C            2.486124522185     5.654785338231     0.158857585840    12.000000000000
         C            1.254078756912     4.956092641655     0.170485527428    12.000000000000
         C            3.751710428674     7.763926678971     0.165922186208    12.000000000000
         C            4.923561893453     7.078795304981     0.163865705500    12.000000000000
         C            4.955603108594     5.643461991360     0.163705292693    12.000000000000
         C            3.706797371473     4.941224736324     0.168796852863    12.000000000000
         H           -3.658525300490     8.890841947126     0.168883143925     1.007825032230
         H           -1.189217492488     8.874135615351     0.172836554918     1.007825032230
         H            1.284290076155     8.860847963479     0.172228646873     1.007825032230
         H            3.753537924068     8.851049806963     0.167444710524     1.007825032230
         H            5.869954540475     7.613809362646     0.162940338458     1.007825032230
         H           -5.788235870234     7.676316740925     0.163271733386     1.007825032230
         C           -6.091978121428     4.993274541634     0.162386429153    12.000000000000
         C           -6.128665643049     3.582594696789     0.163587606182    12.000000000000
         C           -3.664583902777     3.564196707735     0.160662511564    12.000000000000
         C           -4.894302367430     2.861095303891     0.169831496549    12.000000000000
         C           -2.437339157630     2.847626185075     0.172494290101    12.000000000000
         C           -1.209232020328     3.547901462969     0.158815263309    12.000000000000
         C            1.247137409430     3.534695279420     0.158006656904    12.000000000000
         C            0.015171876837     2.833126367296     0.169690840128    12.000000000000
         C            2.467641009709     2.821304505246     0.169790898252    12.000000000000
         C            3.702545311848     3.524674682415     0.156302937409    12.000000000000
         C            6.144976223652     4.927586894122     0.162471847481    12.000000000000
         C            6.166584196130     3.516599003933     0.164638400918    12.000000000000
         C            4.924605795728     2.808422453345     0.171177147155    12.000000000000
         H            7.089901346909     5.466902294214     0.158709966632     1.007825032230
         H           -7.031045913833     5.542702480848     0.158153214202     1.007825032230
         C           -7.339702203855     2.858426062570     0.161960438740    12.000000000000
         C           -7.364886120791     1.470337899574     0.163725976868    12.000000000000
         C           -4.903508771679     1.444441340151     0.159009712676    12.000000000000
         C           -6.132261315343     0.739953885044     0.171299756659    12.000000000000
         C           -3.676878963248     0.726711670664     0.169637429075    12.000000000000
         C           -2.445660748797     1.429655661253     0.159327718874    12.000000000000
         C           -1.223604844033     0.715339029625     0.170756983406    12.000000000000
         C            0.007633706582     1.417397677228     0.169222637123    12.000000000000
         C            1.231215645015     0.702131218578     0.150396051467    12.000000000000
         C            2.460816937799     1.403306564116     0.169900560358    12.000000000000
         C            3.684426091464     0.687212956203     0.169071774081    12.000000000000
         C            4.918704738807     1.391749089180     0.156669952445    12.000000000000
         C            7.369797915229     2.779496731175     0.162877981125    12.000000000000
         C            7.380158503390     1.391232035846     0.164424663971    12.000000000000
         C            6.139795376391     0.674133151191     0.170753005783    12.000000000000
         H           -8.279194962078     3.407132569115     0.157662886618     1.007825032230
         H            8.315109308748     3.318132624614     0.158667405326     1.007825032230
         C           -8.591760100313     0.724847081035     0.164066404485    12.000000000000
         C           -8.599028766435    -0.632625278238     0.166189529068    12.000000000000
         C           -6.139817301850    -0.674122109163     0.159200187733    12.000000000000
         C           -7.380188274869    -1.391251661591     0.166616249274    12.000000000000
         C           -4.918688642988    -1.391740490039     0.171540685882    12.000000000000
         C           -3.684442458416    -0.687222787745     0.160508445818    12.000000000000
         C           -2.460821202979    -1.403330650834     0.171051532007    12.000000000000
         C           -1.231166175052    -0.702159336890     0.158931153216    12.000000000000
         C           -0.007573788119    -1.417404321420     0.166387677519    12.000000000000
         C            1.223643553157    -0.715260849273     0.176393299468    12.000000000000
         C            2.445666486600    -1.429628761016     0.164643286708    12.000000000000
         C            3.676862540115    -0.726692903565     0.160502702313    12.000000000000
         C            6.132244683688    -0.739964311859     0.158974728100    12.000000000000
         C            4.903514982772    -1.444442992550     0.172815802641    12.000000000000
         C            8.599010685959     0.632618394658     0.164286780115    12.000000000000
         C            8.591741325369    -0.724836339203     0.166023160376    12.000000000000
         C            7.364858601658    -1.470318137615     0.165792983684    12.000000000000
         H           -9.528310134550     1.276861977183     0.162596477521     1.007825032230
         H            9.541406811874     1.174587016435     0.163234747854     1.007825032230
         C           -7.369842072500    -2.779530617943     0.168424457696    12.000000000000
         C           -4.924603271782    -2.808422729350     0.160692825260    12.000000000000
         C           -6.166626658399    -3.516637664835     0.166994665419    12.000000000000
         C           -3.702514522437    -3.524667021130     0.171016894446    12.000000000000
         C           -2.467651147846    -2.821311434813     0.158972256089    12.000000000000
         C           -0.015137636839    -2.833127117409     0.159253844598    12.000000000000
         C           -1.247126003958    -3.534717647572     0.170817798006    12.000000000000
         C            1.209240906912    -3.547900150653     0.173356827797    12.000000000000
         C            2.437331859423    -2.847627210185     0.159217069487    12.000000000000
         C            4.894298181039    -2.861108440295     0.160037809558    12.000000000000
         C            3.664611092309    -3.564205317541     0.172917229499    12.000000000000
         C            6.128634852014    -3.582569529727     0.166263071456    12.000000000000
         C            7.339668501964    -2.858398779380     0.167778297538    12.000000000000
         H           -9.541453273991    -1.174548938674     0.167558945241     1.007825032230
         H            9.528257705340    -1.276904545914     0.167272968137     1.007825032230
         H           -8.315169206580    -3.318135325222     0.172596686227     1.007825032230
         H            8.279150979760    -3.407126261903     0.172117853521     1.007825032230
         C           -6.144998351434    -4.927632744793     0.168320663479    12.000000000000
         C           -3.706787510729    -4.941247186127     0.158499695391    12.000000000000
         C           -4.955594220733    -5.643479445504     0.166466830036    12.000000000000
         C           -2.486125488958    -5.654771046419     0.171439366436    12.000000000000
         C           -1.254062498212    -4.956107522011     0.160263760450    12.000000000000
         C            1.201008411136    -4.969265860202     0.161444884708    12.000000000000
         C           -0.030340837145    -5.669505775148     0.169288084371    12.000000000000
         C            3.653745938597    -4.980729247424     0.162202884456    12.000000000000
         C            2.425488533144    -5.681160107537     0.171579815008    12.000000000000
         C            6.091961455079    -4.993243435396     0.168557298129    12.000000000000
         C            4.894972281879    -5.696333892967     0.167321102299    12.000000000000
         H           -7.089896550772    -5.466985314248     0.172723425160     1.007825032230
         H            7.031051046468    -5.542644008342     0.172137077893     1.007825032230
         C           -4.923549484930    -7.078806571687     0.165912061131    12.000000000000
         C           -2.485346250970    -7.087713549939     0.163402168695    12.000000000000
         C           -3.751690054511    -7.763932629646     0.163596847620    12.000000000000
         C           -0.037953119720    -7.099450346479     0.163617893843    12.000000000000
         C           -1.277960263133    -7.772889856676     0.161633201081    12.000000000000
         C            2.409440157995    -7.114007484012     0.164481094654    12.000000000000
         C            1.194745774421    -7.786170837572     0.162328803772    12.000000000000
         C            4.847616889766    -7.131247582589     0.166987909313    12.000000000000
         C            3.668467443144    -7.803773464953     0.164639474949    12.000000000000
         H           -5.869944513148    -7.613816070051     0.167456097997     1.007825032230
         H            5.788245462656    -7.676317661324     0.168115028795     1.007825032230
         H           -3.753531102181    -8.851057041246     0.161760933191     1.007825032230
         H           -1.284308568626    -8.860860864507     0.157205817223     1.007825032230
         H            1.189217411964    -8.874146092599     0.158236167082     1.007825032230
         H            3.658542452092    -8.890846106063     0.162984933527     1.007825032230

  Charge       = 0
  Multiplicity = 1
  Basis Set: JUN-CC-PVDZ
    Blend: JUN-CC-PVDZ
  Basis Set: (JUN-CC-PVDZ AUX)
    Blend: JUN-CC-PVDZ-JKFIT

    Orbital Energies [Eh]
    ---------------------

    Doubly Occupied:

       1A    -11.264025     2A    -11.263666     3A    -11.263665
       4A    -11.263252     5A    -11.263250     6A    -11.263214
       7A    -11.263064     8A    -11.263061     9A    -11.263057
      10A    -11.262830    11A    -11.262703    12A    -11.262698
      13A    -11.262211    14A    -11.262208    15A    -11.262178
      16A    -11.262177    17A    -11.262073    18A    -11.262070
      19A    -11.262024    20A    -11.261986    21A    -11.261984
      22A    -11.261872    23A    -11.261868    24A    -11.261728
      25A    -11.261717    26A    -11.261700    27A    -11.261693
      28A    -11.261652    29A    -11.261643    30A    -11.261547
      31A    -11.261526    32A    -11.261522    33A    -11.261499
      34A    -11.261495    35A    -11.261492    36A    -11.261471
      37A    -11.261312    38A    -11.261305    39A    -11.261299
      40A    -11.261293    41A    -11.261288    42A    -11.261284
      43A    -11.261261    44A    -11.261243    45A    -11.261239
      46A    -11.261215    47A    -11.261213    48A    -11.261206
      49A    -11.261012    50A    -11.260979    51A    -11.260975
      52A    -11.260898    53A    -11.260895    54A    -11.260836
      55A    -11.259888    56A    -11.259874    57A    -11.259872
      58A    -11.259842    59A    -11.259840    60A    -11.259823
      61A    -11.259258    62A    -11.259233    63A    -11.259229
      64A    -11.259177    65A    -11.259173    66A    -11.259144
      67A    -11.258889    68A    -11.258871    69A    -11.258869
      70A    -11.258841    71A    -11.258838    72A    -11.258826
      73A    -11.254516    74A    -11.254514    75A    -11.254510
      76A    -11.254509    77A    -11.254508    78A    -11.254507
      79A    -11.253632    80A    -11.253631    81A    -11.253629
      82A    -11.253628    83A    -11.253625    84A    -11.253624
      85A    -11.253548    86A    -11.253547    87A    -11.253545
      88A    -11.253544    89A    -11.253540    90A    -11.253540
      91A    -11.253044    92A    -11.253041    93A    -11.253038
      94A    -11.253038    95A    -11.253036    96A    -11.253035
      97A     -1.253819    98A     -1.238933    99A     -1.238931
     100A     -1.220421   101A     -1.220416   102A     -1.215298
     103A     -1.201010   104A     -1.195571   105A     -1.188048
     106A     -1.188045   107A     -1.173736   108A     -1.173733
     109A     -1.155559   110A     -1.155556   111A     -1.152575
     112A     -1.144696   113A     -1.144693   114A     -1.128516
     115A     -1.114648   116A     -1.113128   117A     -1.112379
     118A     -1.112364   119A     -1.111596   120A     -1.088373
     121A     -1.088359   122A     -1.076931   123A     -1.076930
     124A     -1.067553   125A     -1.067523   126A     -1.064856
     127A     -1.046754   128A     -1.046747   129A     -1.040430
     130A     -1.038708   131A     -1.038707   132A     -1.025164
     133A     -1.021254   134A     -1.021204   135A     -1.007135
     136A     -1.006768   137A     -1.003752   138A     -1.000419
     139A     -1.000371   140A     -0.991050   141A     -0.970915
     142A     -0.970867   143A     -0.955845   144A     -0.955790
     145A     -0.905527   146A     -0.905500   147A     -0.905486
     148A     -0.905458   149A     -0.904195   150A     -0.892272
     151A     -0.892213   152A     -0.890285   153A     -0.890227
     154A     -0.889399   155A     -0.872177   156A     -0.869038
     157A     -0.851502   158A     -0.847783   159A     -0.847761
     160A     -0.845523   161A     -0.842962   162A     -0.834521
     163A     -0.834508   164A     -0.828079   165A     -0.828076
     166A     -0.784499   167A     -0.784488   168A     -0.783587
     169A     -0.783560   170A     -0.782223   171A     -0.782203
     172A     -0.781946   173A     -0.766951   174A     -0.760695
     175A     -0.750494   176A     -0.733451   177A     -0.727019
     178A     -0.727005   179A     -0.725028   180A     -0.724500
     181A     -0.724481   182A     -0.718395   183A     -0.713675
     184A     -0.713668   185A     -0.699527   186A     -0.699515
     187A     -0.686007   188A     -0.685924   189A     -0.685920
     190A     -0.682136   191A     -0.682126   192A     -0.678700
     193A     -0.653571   194A     -0.650806   195A     -0.650777
     196A     -0.649723   197A     -0.649707   198A     -0.649528
     199A     -0.640815   200A     -0.640788   201A     -0.640053
     202A     -0.639134   203A     -0.635948   204A     -0.635921
     205A     -0.629092   206A     -0.617752   207A     -0.615271
     208A     -0.615251   209A     -0.608754   210A     -0.608748
     211A     -0.599103   212A     -0.599069   213A     -0.598674
     214A     -0.598546   215A     -0.598524   216A     -0.597945
     217A     -0.595031   218A     -0.595018   219A     -0.594670
     220A     -0.594142   221A     -0.591882   222A     -0.591879
     223A     -0.587298   224A     -0.577772   225A     -0.577762
     226A     -0.575629   227A     -0.575625   228A     -0.573342
     229A     -0.569599   230A     -0.568024   231A     -0.568001
     232A     -0.566688   233A     -0.566677   234A     -0.560887
     235A     -0.558647   236A     -0.558628   237A     -0.558399
     238A     -0.554314   239A     -0.550517   240A     -0.547450
     241A     -0.544230   242A     -0.535001   243A     -0.534965
     244A     -0.533477   245A     -0.533456   246A     -0.528032
     247A     -0.528017   248A     -0.527703   249A     -0.517064
     250A     -0.517030   251A     -0.515320   252A     -0.515314
     253A     -0.509602   254A     -0.509586   255A     -0.497982
     256A     -0.496392   257A     -0.496366   258A     -0.493739
     259A     -0.493728   260A     -0.489436   261A     -0.481413
     262A     -0.477389   263A     -0.477386   264A     -0.473950
     265A     -0.469381   266A     -0.466462   267A     -0.466457
     268A     -0.458746   269A     -0.446576   270A     -0.446516
     271A     -0.440991   272A     -0.440740   273A     -0.440713
     274A     -0.434657   275A     -0.433882   276A     -0.407327
     277A     -0.407304   278A     -0.386342   279A     -0.386293
     280A     -0.385707   281A     -0.385705   282A     -0.383702
     283A     -0.354291   284A     -0.354274   285A     -0.350605
     286A     -0.338019   287A     -0.335494   288A     -0.335424
     289A     -0.332684   290A     -0.332678   291A     -0.306988
     292A     -0.301860   293A     -0.301798   294A     -0.300822
     295A     -0.286127   296A     -0.256455   297A     -0.253396
     298A     -0.253343   299A     -0.204215   300A     -0.204126

  @DF-RHF Final Energy: -3650.34148822611405

   => Energetics <=

    Nuclear Repulsion Energy =          15611.4211649754324753
    One-Electron Energy =              -36072.1796391388998018
    Two-Electron Energy =               16810.4169859373541840
    Total Energy =                      -3650.3414882261131424
 Dipole X            :          0.0004604            0.0002304            0.0006908
 Dipole Y            :          0.0013930           -0.0013052            0.0000878
 Dipole Z            :       -187.4268905          187.4242910           -0.0025995
 Magnitude           :                                                    0.0026911

    SAPT Results
  --------------------------------------------------------------------------------------------------------
    Electrostatics               -409.11703493 [mEh]    -256.72481530 [kcal/mol]   -1074.13662724 [kJ/mol]
      Elst10,r                   -409.11703493 [mEh]    -256.72481530 [kcal/mol]   -1074.13662724 [kJ/mol]

    Exchange                      950.74340869 [mEh]     596.60049609 [kcal/mol]    2496.17647562 [kJ/mol]
      Exch10                      950.74340869 [mEh]     596.60049609 [kcal/mol]    2496.17647562 [kJ/mol]
      Exch10(S^2)                 874.06984023 [mEh]     548.48710549 [kcal/mol]    2294.87004937 [kJ/mol]

    Induction                     -35.09616896 [mEh]     -22.02317851 [kcal/mol]     -92.14497890 [kJ/mol]
      Ind20,r                    -563.85726642 [mEh]    -353.82577654 [kcal/mol]   -1480.40704904 [kJ/mol]
      Exch-Ind20,r                381.66422529 [mEh]     239.49791717 [kcal/mol]    1002.05928545 [kJ/mol]
      delta HF,r (2)              147.09687218 [mEh]      92.30468085 [kcal/mol]     386.20278469 [kJ/mol]

    Dispersion                    -82.00021004 [mEh]     -51.45590865 [kcal/mol]    -215.29152179 [kJ/mol]
      Disp20                     -134.88663453 [mEh]     -84.64264105 [kcal/mol]    -354.14481017 [kJ/mol]
      Exch-Disp20                  52.88642449 [mEh]      33.18673240 [kcal/mol]     138.85328838 [kJ/mol]
      Disp20 (SS)                 -67.44331727 [mEh]     -42.32132053 [kcal/mol]    -177.07240508 [kJ/mol]
      Disp20 (OS)                 -67.44331727 [mEh]     -42.32132053 [kcal/mol]    -177.07240508 [kJ/mol]
      Exch-Disp20 (SS)             24.72483214 [mEh]      15.51506641 [kcal/mol]      64.91503784 [kJ/mol]
      Exch-Disp20 (OS)             28.16159235 [mEh]      17.67166600 [kcal/mol]      73.93825054 [kJ/mol]

  Total HF                        506.53020480 [mEh]     317.85250227 [kcal/mol]    1329.89486948 [kJ/mol]
  Total SAPT0                     424.52999476 [mEh]     266.39659362 [kcal/mol]    1114.60334769 [kJ/mol]

  Special recipe for scaled SAPT0 (see Manual):
    Electrostatics sSAPT0        -409.11703493 [mEh]    -256.72481530 [kcal/mol]   -1074.13662724 [kJ/mol]
    Exchange sSAPT0               950.74340869 [mEh]     596.60049609 [kcal/mol]    2496.17647562 [kJ/mol]
    Induction sSAPT0               74.41094623 [mEh]      46.69357371 [kcal/mol]     195.36591242 [kJ/mol]
    Dispersion sSAPT0             -66.82603495 [mEh]     -41.93397003 [kcal/mol]    -175.45173059 [kJ/mol]
  Total sSAPT0                    549.21128504 [mEh]     344.63528447 [kcal/mol]    1441.95403021 [kJ/mol]
  --------------------------------------------------------------------------------------------------------

*** Psi4 exiting successfully. Buy a developer a beer!
