                               Psi4 1.9 release

  ==> Input File <==

--------------------------------------------------------------------------
memory 32 GB # how much memory is available ! Depends on the nodes/cores !

molecule dimer {
# monomer A
+1 1    # Charge and multiplicity
C  0.680067 -0.008042 -10.215929
C -0.680504 -0.006014 -10.215545
N -1.085635 -0.005016  -8.897221
C  0.000108 -0.001740  -8.115820
C -2.477365  0.044390  -8.429242
N  1.085222 -0.005016  -8.897221
H  1.385146 -0.015870 -11.033368
H -1.385302 -0.006204 -11.033214
H -0.000009  0.000007  -7.034731
C  2.478117 -0.021908  -8.432123
H  2.490592  0.005437  -7.341870
H  2.967028 -0.935354  -8.779299
H  3.001428  0.853575  -8.823595
H -2.857359  1.066461  -8.509201
H -3.082679 -0.625694  -9.042306
H -2.518128 -0.282594  -7.389294
--
# monomer B
0 1     # Charge and multiplicity
C   1.22531237526482      0.70753866091955      0.00613762728373
C   1.22532433589282     -0.70753852257020     -0.00619318228664
C   -0.00000567409046      1.41496628609039     -0.00672680580738
C   2.45644923379077      1.41832825917820      0.00902448468363
C   0.00001130712078     -1.41497612663474      0.00347275151708
C   -1.22530046906674      0.70754574598412      0.00838914760619
C   2.45643823516184     -1.41832293188077     -0.00843833914343
C   -0.00000085313587      2.83680140328112     -0.00913035594137
C   3.68182717731192      0.70931832800114     -0.00808954934571
C   2.45512052870677      2.83422403348893     -0.00819210630633
C   3.68182158506039     -0.70933346742900      0.00798293467272
C   -1.22531311884624     -0.70752714354401     -0.00512042085974
C   1.22670006104402      3.54346985599427      0.00816696660346
C   0.00000526469929     -2.83678176723568      0.00832091913869
C   -2.45643555300670      1.41831729028492      0.00842454345199
C   2.45512389762097     -2.83422965658853      0.00783102630520
C   -1.22671388474763      3.54346943575023      0.00827029982280
C   4.91451777504333      1.42717324448953     -0.00160886631602
C   3.69315067131765      3.54279566454522     -0.00155906667985
C   -2.45643712022637     -1.41831290883911     -0.00846337726810
C   1.22670532178455     -3.54347386990643     -0.00780316414624
C   -2.45512491866593      2.83421703463423     -0.00818572995999
C   4.91452486062398     -1.42718653794377      0.00136387641845
C   1.22142509354026      4.97013443726031      0.00150231067809
C   4.89300870916237      2.82518837202648     -0.00039219795739
C   -1.22669652864725     -3.54347062507680     -0.00753595973677
C   -3.68181849668397      0.70932533873199     -0.00807686886569
C   3.69314758099218     -3.54280096939050      0.00148176697923
C   -1.22143177215231      4.97012866986289      0.00168580605083
C   6.13477145276790      0.68054831910577     -0.00083909176631
C   3.65678936045204      4.97295361556775     -0.00065042889723
C   -2.45512642789169     -2.83421472106065      0.00758666850712
C   -3.68181869921921     -0.70932533146830      0.00810055625144
C   4.89301309775526     -2.82519973363176      0.00021895393805
C   -0.00000059327114      5.65044773803267      0.00045449734393
C   6.13477559217374     -0.68055448207492      0.00042622874941
C   2.47813196269732      5.65357712333155      0.00063835075260
C   1.22142288457925     -4.97012668293268     -0.00129718634452
C   -3.69316190412301      3.54279732619245     -0.00139355922051
C   -1.22142804110313     -4.97011793159564     -0.00140994817719
C   -4.91452132810043      1.42717581899491     -0.00153192130862
C   3.65678749952045     -4.97295485423912      0.00080007163680
C   -2.47813805026426      5.65357479452875      0.00092287576113
C   -3.69314125872231     -3.54278984697859      0.00136564082345
C   -4.91451200321153     -1.42718062802730      0.00139857359209
C   -0.00000552908399     -5.65043791501335      0.00005899322272
C   -4.89302000425900      2.82518897091939     -0.00040227981744
C   2.47812647313991     -5.65357317188818     -0.00029052915548
C   -3.65679823041642      4.97295655404175     -0.00047374852278
C   -4.89299899901461     -2.82519139505969      0.00006491824035
C   -2.47812801824129     -5.65356579800621     -0.00056571680280
C   -6.13477002348955      0.68054913825639     -0.00086464346868
C   -3.65678835334731     -4.97294365097028      0.00058578382008
C   -6.13476456307132     -0.68055354348201      0.00040575295444
H   5.83528897565761      3.36927626695423      0.00396712770529
H   7.07385965258860      1.22821762089947     -0.00037744837300
H   4.60066374401555      5.51238117445323     -0.00014522814529
H   5.83528386714679     -3.36930568472863     -0.00423551337640
H   -0.00001167146422      6.73853104613662     -0.00389474766392
H   7.07386165167227     -1.22822657074368     -0.00008250934481
H   2.47331421164041      6.74068466339473      0.00017162982210
H   4.60066897122302     -5.51237575717576      0.00039007446835
H   -2.47331820069565      6.74068209160650      0.00047297644710
H   -0.00000978838621     -6.73852780445195      0.00458867820736
H   -5.83530143450167      3.36927132229595      0.00410314985360
H   2.47330840367253     -6.74068500242887      0.00027980126949
H   -4.60067436136587      5.51237839860371      0.00002010017831
H   -5.83527902699321     -3.36928859177951     -0.00451481925734
H   -2.47329986759855     -6.74067870613986     -0.00016951527498
H   -7.07385728692578      1.22822084484047     -0.00046143985387
H   -4.60067330624313     -5.51236229778631      0.00021776644566
H   -7.07385645456741     -1.22822025997701     -0.00017736581114

    units angstrom      # Angstroms are the default
    no_reorient         # Geometry fixed, default
    symmetry c1         # C1 symmetry, default
}

set {
    scf_type DF         # Density fitting, faster than exact integrals
    freeze_core True    # Freeze core electrons
    basis jun-cc-pVDZ   # Jun-cc-pVDZ basis set, recommended for sSAPT0 in https://doi.org/10.1063/1.4867135
}

energy('ssapt0')        # Compute sSAPT0 energy, includes also SAPT0
--------------------------------------------------------------------------

  //              Dimer HF             //
    Molecular point group: c1
  Charge       = 1
  Multiplicity = 1
  Basis Set: JUN-CC-PVDZ
    Blend: JUN-CC-PVDZ
  Basis Set: (JUN-CC-PVDZ AUX)
    Blend: JUN-CC-PVDZ-JKFIT
  @DF-RHF Final Energy: -2359.19510195485782
    Total Energy =                      -2359.1951019548578188
 Dipole X            :         -0.0009990            0.0006313           -0.0003677
 Dipole Y            :         -0.0478433            0.0560211            0.0081778
 Dipole Z            :         31.2743766          -45.0272585          -13.7528819
 Magnitude           :                                                   13.7528843
  //            Monomer A HF           //
    Molecular point group: c1
  Multiplicity = 1
  Basis Set: JUN-CC-PVDZ
    Blend: JUN-CC-PVDZ
  Basis Set: (JUN-CC-PVDZ AUX)
    Blend: JUN-CC-PVDZ-JKFIT
  @DF-RHF Final Energy:  -303.29717515917412
    Total Energy =                       -303.2971751591741167
  //            Monomer B HF           //
    Molecular point group: c1

    Geometry (in Angstrom), charge = 0, multiplicity = 1:

       Center              X                  Y                   Z               Mass
    ------------   -----------------  -----------------  -----------------  -----------------
      Gh(C)           0.680066520158    -0.008042372515    -9.071186492270    12.000000000000
      Gh(C)          -0.680504479842    -0.006014372515    -9.070802492270    12.000000000000
      Gh(N)          -1.085635479842    -0.005016372515    -7.752478492270    14.003074004430
      Gh(C)           0.000107520158    -0.001740372515    -6.971077492270    12.000000000000
      Gh(C)          -2.477365479842     0.044389627485    -7.284499492270    12.000000000000
      Gh(N)           1.085221520158    -0.005016372515    -7.752478492270    14.003074004430
      Gh(H)           1.385145520158    -0.015870372515    -9.888625492270     1.007825032230
      Gh(H)          -1.385302479842    -0.006204372515    -9.888471492270     1.007825032230
      Gh(H)          -0.000009479842     0.000006627485    -5.889988492270     1.007825032230
      Gh(C)           2.478116520158    -0.021908372515    -7.287380492270    12.000000000000
      Gh(H)           2.490591520158     0.005436627485    -6.197127492270     1.007825032230
      Gh(H)           2.967027520158    -0.935354372515    -7.634556492270     1.007825032230
      Gh(H)           3.001427520158     0.853574627485    -7.678852492270     1.007825032230
      Gh(H)          -2.857359479842     1.066460627485    -7.364458492270     1.007825032230
      Gh(H)          -3.082679479842    -0.625694372515    -7.897563492270     1.007825032230
      Gh(H)          -2.518128479842    -0.282594372515    -6.244551492270     1.007825032230
         C            1.225311895423     0.707538288405     1.150880135014    12.000000000000
         C            1.225323856051    -0.707538895085     1.138549325444    12.000000000000
         C           -0.000006153932     1.414965913575     1.138015701923    12.000000000000
         C            2.456448753949     1.418327886663     1.153766992414    12.000000000000
         C            0.000010827279    -1.414976499150     1.148215259248    12.000000000000
         C           -1.225300948908     0.707545373469     1.153131655337    12.000000000000
         C            2.456437755320    -1.418323304396     1.136304168587    12.000000000000
         C           -0.000001332978     2.836801030766     1.135612151789    12.000000000000
         C            3.681826697470     0.709317955486     1.136652958385    12.000000000000
         C            2.455120048865     2.834223660974     1.136550401424    12.000000000000
         C            3.681821105219    -0.709333839944     1.152725442403    12.000000000000
         C           -1.225313598688    -0.707527516059     1.139622086871    12.000000000000
         C            1.226699581202     3.543469483479     1.152909474334    12.000000000000
         C            0.000004784858    -2.836782139751     1.153063426869    12.000000000000
         C           -2.456436032848     1.418316917770     1.153167051182    12.000000000000
         C            2.455123417779    -2.834230029103     1.152573534036    12.000000000000
         C           -1.226714364589     3.543469063235     1.153012807553    12.000000000000
         C            4.914517295202     1.427172871975     1.143133641414    12.000000000000
         C            3.693150191476     3.542795292030     1.143183441051    12.000000000000
         C           -2.456437600068    -1.418313281354     1.136279130462    12.000000000000
         C            1.226704841943    -3.543474242421     1.136939343584    12.000000000000
         C           -2.455125398508     2.834216662119     1.136556777770    12.000000000000
         C            4.914524380782    -1.427186910459     1.146106384149    12.000000000000
         C            1.221424613699     4.970134064745     1.146244818409    12.000000000000
         C            4.893008229321     2.825187999512     1.144350309773    12.000000000000
         C           -1.226697008489    -3.543470997592     1.137206547994    12.000000000000
         C           -3.681818976526     0.709324966217     1.136665638865    12.000000000000
         C            3.693147101150    -3.542801341905     1.146224274710    12.000000000000
         C           -1.221432251994     4.970128297348     1.146428313781    12.000000000000
         C            6.134770972926     0.680547946591     1.143903415964    12.000000000000
         C            3.656788880610     4.972953243053     1.144092078833    12.000000000000
         C           -2.455126907733    -2.834215093576     1.152329176238    12.000000000000
         C           -3.681819179061    -0.709325703983     1.152843063982    12.000000000000
         C            4.893012617914    -2.825200106147     1.144961461668    12.000000000000
         C           -0.000001073113     5.650447365518     1.145197005074    12.000000000000
         C            6.134775112332    -0.680554854590     1.145168736480    12.000000000000
         C            2.478131482856     5.653576750817     1.145380858483    12.000000000000
         C            1.221422404738    -4.970127055448     1.143445321386    12.000000000000
         C           -3.693162383965     3.542796953677     1.143348948510    12.000000000000
         C           -1.221428520945    -4.970118304111     1.143332559553    12.000000000000
         C           -4.914521807942     1.427175446480     1.143210586422    12.000000000000
         C            3.656787019679    -4.972955226754     1.145542579367    12.000000000000
         C           -2.478138530106     5.653574422014     1.145665383492    12.000000000000
         C           -3.693141738564    -3.542790219494     1.146108148554    12.000000000000
         C           -4.914512483053    -1.427181000542     1.146141081323    12.000000000000
         C           -0.000006008926    -5.650438287528     1.144801500953    12.000000000000
         C           -4.893020484101     2.825188598404     1.144340227913    12.000000000000
         C            2.478125993298    -5.653573544403     1.144451978575    12.000000000000
         C           -3.656798710258     4.972956181527     1.144268759208    12.000000000000
         C           -4.892999478856    -2.825191767575     1.144807425971    12.000000000000
         C           -2.478128498083    -5.653566170521     1.144176790928    12.000000000000
         C           -6.134770503331     0.680548765741     1.143877864262    12.000000000000
         C           -3.656788833189    -4.972944023485     1.145328291551    12.000000000000
         C           -6.134765042913    -0.680553915997     1.145148260685    12.000000000000
         H            5.835288495816     3.369275894439     1.148709635436     1.007825032230
         H            7.073859172747     1.228217248385     1.144365059357     1.007825032230
         H            4.600663264174     5.512380801938     1.144597279585     1.007825032230
         H            5.835283387305    -3.369306057244     1.140506994354     1.007825032230
         H           -0.000012151306     6.738530673622     1.140847760067     1.007825032230
         H            7.073861171831    -1.228226943259     1.144659998386     1.007825032230
         H            2.473313731799     6.740684290880     1.144914137553     1.007825032230
         H            4.600668491381    -5.512376129691     1.145132582199     1.007825032230
         H           -2.473318680537     6.740681719092     1.145215484178     1.007825032230
         H           -0.000010268228    -6.738528176967     1.149331185938     1.007825032230
         H           -5.835301914343     3.369270949781     1.148845657584     1.007825032230
         H            2.473307923831    -6.740685374944     1.145022309000     1.007825032230
         H           -4.600674841208     5.512378026089     1.144762607909     1.007825032230
         H           -5.835279506835    -3.369288964294     1.140227688473     1.007825032230
         H           -2.473300347440    -6.740679078655     1.144572992455     1.007825032230
         H           -7.073857766768     1.228220472326     1.144281067877     1.007825032230
         H           -4.600673786085    -5.512362670301     1.144960274176     1.007825032230
         H           -7.073856934409    -1.228220632492     1.144565141919     1.007825032230

  Charge       = 0
  Multiplicity = 1
  Basis Set: JUN-CC-PVDZ
    Blend: JUN-CC-PVDZ
  Basis Set: (JUN-CC-PVDZ AUX)
    Blend: JUN-CC-PVDZ-JKFIT

    Orbital Energies [Eh]
    ---------------------

    Doubly Occupied:

       1A    -11.260678     2A    -11.260235     3A    -11.260233
       4A    -11.259523     5A    -11.259523     6A    -11.259353
       7A    -11.259144     8A    -11.259066     9A    -11.259065
      10A    -11.258741    11A    -11.258737    12A    -11.258668
      13A    -11.258606    14A    -11.258600    15A    -11.258598
      16A    -11.258569    17A    -11.258563    18A    -11.258547
      19A    -11.258534    20A    -11.258528    21A    -11.258523
      22A    -11.258425    23A    -11.258421    24A    -11.258123
      25A    -11.257463    26A    -11.257401    27A    -11.257400
      28A    -11.257266    29A    -11.257265    30A    -11.257181
      31A    -11.256559    32A    -11.256488    33A    -11.256487
      34A    -11.256378    35A    -11.256377    36A    -11.256330
      37A    -11.252403    38A    -11.252403    39A    -11.252401
      40A    -11.252400    41A    -11.252398    42A    -11.252396
      43A    -11.251538    44A    -11.251536    45A    -11.251535
      46A    -11.251529    47A    -11.251528    48A    -11.251524
      49A    -11.250965    50A    -11.250964    51A    -11.250963
      52A    -11.250961    53A    -11.250959    54A    -11.250958
      55A     -1.244303    56A     -1.220021    57A     -1.220019
      58A     -1.189728    59A     -1.189721    60A     -1.181173
      61A     -1.157728    62A     -1.149160    63A     -1.135711
      64A     -1.135705    65A     -1.113361    66A     -1.113356
      67A     -1.082635    68A     -1.082628    69A     -1.078818
      70A     -1.066144    71A     -1.066140    72A     -1.039584
      73A     -1.024497    74A     -1.022001    75A     -1.021957
      76A     -1.017893    77A     -1.012955    78A     -0.987227
      79A     -0.987181    80A     -0.962055    81A     -0.962005
      82A     -0.894474    83A     -0.894447    84A     -0.888173
      85A     -0.886419    86A     -0.886361    87A     -0.881607
      88A     -0.881559    89A     -0.862079    90A     -0.837556
      91A     -0.818396    92A     -0.816839    93A     -0.812346
      94A     -0.812337    95A     -0.794860    96A     -0.794850
      97A     -0.746845    98A     -0.745072    99A     -0.733640
     100A     -0.733631   101A     -0.732359   102A     -0.732335
     103A     -0.716707   104A     -0.699156   105A     -0.699145
     106A     -0.693782   107A     -0.693766   108A     -0.661406
     109A     -0.653341   110A     -0.651386   111A     -0.650423
     112A     -0.650417   113A     -0.639535   114A     -0.639532
     115A     -0.629920   116A     -0.627732   117A     -0.627716
     118A     -0.606460   119A     -0.605939   120A     -0.601873
     121A     -0.599926   122A     -0.599894   123A     -0.593830
     124A     -0.591462   125A     -0.591451   126A     -0.585425
     127A     -0.576420   128A     -0.576416   129A     -0.567484
     130A     -0.567469   131A     -0.566173   132A     -0.566153
     133A     -0.558948   134A     -0.555029   135A     -0.555023
     136A     -0.538766   137A     -0.538764   138A     -0.538292
     139A     -0.538287   140A     -0.529902   141A     -0.528210
     142A     -0.523057   143A     -0.523050   144A     -0.500674
     145A     -0.495723   146A     -0.493413   147A     -0.487952
     148A     -0.485273   149A     -0.481954   150A     -0.481946
     151A     -0.470442   152A     -0.470424   153A     -0.451259
     154A     -0.451181   155A     -0.439193   156A     -0.439184
     157A     -0.404874   158A     -0.404851   159A     -0.403495
     160A     -0.375547   161A     -0.375545   162A     -0.349252
     163A     -0.337721   164A     -0.336688   165A     -0.336631
     166A     -0.311228   167A     -0.298215   168A     -0.284485
     169A     -0.284432   170A     -0.225053   171A     -0.224988

  @DF-RHF Final Energy: -2055.89161387192644

   => Energetics <=

    Nuclear Repulsion Energy =           6452.5568002797781446
    One-Electron Energy =              -15636.4245098512674303
    Two-Electron Energy =                7127.9760956995623928
    Total Energy =                      -2055.8916138719259834
 Dipole X            :          0.0001055           -0.0000085            0.0000970
 Dipole Y            :         -0.0000295            0.0000167           -0.0000129
 Dipole Z            :       -739.8294687          739.8299968            0.0005281
 Magnitude           :                                                    0.0005371

    SAPT Results
  --------------------------------------------------------------------------------------------------------
    Electrostatics                 -5.17257344 [mEh]      -3.24583884 [kcal/mol]     -13.58058971 [kJ/mol]
      Elst10,r                     -5.17257344 [mEh]      -3.24583884 [kcal/mol]     -13.58058971 [kJ/mol]

    Exchange                       -0.00005634 [mEh]      -0.00003535 [kcal/mol]      -0.00014792 [kJ/mol]
      Exch10                       -0.00005634 [mEh]      -0.00003535 [kcal/mol]      -0.00014792 [kJ/mol]
      Exch10(S^2)                  -0.00005634 [mEh]      -0.00003535 [kcal/mol]      -0.00014792 [kJ/mol]

    Induction                      -1.14029397 [mEh]      -0.71554527 [kcal/mol]      -2.99384142 [kJ/mol]
      Ind20,r                      -1.12884758 [mEh]      -0.70836255 [kcal/mol]      -2.96378892 [kJ/mol]
      Exch-Ind20,r                  0.00001849 [mEh]       0.00001161 [kcal/mol]       0.00004856 [kJ/mol]
      delta HF,r (2)               -0.01146489 [mEh]      -0.00719432 [kcal/mol]      -0.03010105 [kJ/mol]

    Dispersion                     -0.41886770 [mEh]      -0.26284345 [kcal/mol]      -1.09973698 [kJ/mol]
      Disp20                       -0.41887635 [mEh]      -0.26284888 [kcal/mol]      -1.09975971 [kJ/mol]
      Exch-Disp20                   0.00000866 [mEh]       0.00000543 [kcal/mol]       0.00002273 [kJ/mol]
      Disp20 (SS)                  -0.20943818 [mEh]      -0.13142444 [kcal/mol]      -0.54987986 [kJ/mol]
      Disp20 (OS)                  -0.20943818 [mEh]      -0.13142444 [kcal/mol]      -0.54987986 [kJ/mol]
      Exch-Disp20 (SS)              0.00000630 [mEh]       0.00000395 [kcal/mol]       0.00001655 [kJ/mol]
      Exch-Disp20 (OS)              0.00000236 [mEh]       0.00000148 [kcal/mol]       0.00000618 [kJ/mol]

  Total HF                         -6.31292376 [mEh]      -3.96141946 [kcal/mol]     -16.57457904 [kJ/mol]
  Total SAPT0                      -6.73179145 [mEh]      -4.22426291 [kcal/mol]     -17.67431603 [kJ/mol]

  Special recipe for scaled SAPT0 (see Manual):
    Electrostatics sSAPT0          -5.17257344 [mEh]      -3.24583884 [kcal/mol]     -13.58058971 [kJ/mol]
    Exchange sSAPT0                -0.00005634 [mEh]      -0.00003535 [kcal/mol]      -0.00014792 [kJ/mol]
    Induction sSAPT0               -1.14029397 [mEh]      -0.71554527 [kcal/mol]      -2.99384142 [kJ/mol]
    Dispersion sSAPT0              -0.41886770 [mEh]      -0.26284345 [kcal/mol]      -1.09973698 [kJ/mol]
  Total sSAPT0                     -6.73179145 [mEh]      -4.22426291 [kcal/mol]     -17.67431603 [kJ/mol]
  --------------------------------------------------------------------------------------------------------

*** Psi4 exiting successfully. Buy a developer a beer!
