                               Psi4 1.9 release

  ==> Input File <==

--------------------------------------------------------------------------
memory 32 GB # how much memory is available ! Depends on the nodes/cores !

molecule dimer {
# monomer A
-1 1    # Charge and multiplicity
B -0.000046  0.000337 5.399994
F -1.153597  0.000048 6.215641
F  1.153661 -0.000581 6.215641
F -0.000019 -1.153637 4.584360
F -0.000019  1.153978 4.584360
--
# monomer B
0 1     # Charge and multiplicity
C   1.22531237526482      0.70753866091955      0.00613762728373
C   1.22532433589282     -0.70753852257020     -0.00619318228664
C   -0.00000567409046      1.41496628609039     -0.00672680580738
C   2.45644923379077      1.41832825917820      0.00902448468363
C   0.00001130712078     -1.41497612663474      0.00347275151708
C   -1.22530046906674      0.70754574598412      0.00838914760619
C   2.45643823516184     -1.41832293188077     -0.00843833914343
C   -0.00000085313587      2.83680140328112     -0.00913035594137
C   3.68182717731192      0.70931832800114     -0.00808954934571
C   2.45512052870677      2.83422403348893     -0.00819210630633
C   3.68182158506039     -0.70933346742900      0.00798293467272
C   -1.22531311884624     -0.70752714354401     -0.00512042085974
C   1.22670006104402      3.54346985599427      0.00816696660346
C   0.00000526469929     -2.83678176723568      0.00832091913869
C   -2.45643555300670      1.41831729028492      0.00842454345199
C   2.45512389762097     -2.83422965658853      0.00783102630520
C   -1.22671388474763      3.54346943575023      0.00827029982280
C   4.91451777504333      1.42717324448953     -0.00160886631602
C   3.69315067131765      3.54279566454522     -0.00155906667985
C   -2.45643712022637     -1.41831290883911     -0.00846337726810
C   1.22670532178455     -3.54347386990643     -0.00780316414624
C   -2.45512491866593      2.83421703463423     -0.00818572995999
C   4.91452486062398     -1.42718653794377      0.00136387641845
C   1.22142509354026      4.97013443726031      0.00150231067809
C   4.89300870916237      2.82518837202648     -0.00039219795739
C   -1.22669652864725     -3.54347062507680     -0.00753595973677
C   -3.68181849668397      0.70932533873199     -0.00807686886569
C   3.69314758099218     -3.54280096939050      0.00148176697923
C   -1.22143177215231      4.97012866986289      0.00168580605083
C   6.13477145276790      0.68054831910577     -0.00083909176631
C   3.65678936045204      4.97295361556775     -0.00065042889723
C   -2.45512642789169     -2.83421472106065      0.00758666850712
C   -3.68181869921921     -0.70932533146830      0.00810055625144
C   4.89301309775526     -2.82519973363176      0.00021895393805
C   -0.00000059327114      5.65044773803267      0.00045449734393
C   6.13477559217374     -0.68055448207492      0.00042622874941
C   2.47813196269732      5.65357712333155      0.00063835075260
C   1.22142288457925     -4.97012668293268     -0.00129718634452
C   -3.69316190412301      3.54279732619245     -0.00139355922051
C   -1.22142804110313     -4.97011793159564     -0.00140994817719
C   -4.91452132810043      1.42717581899491     -0.00153192130862
C   3.65678749952045     -4.97295485423912      0.00080007163680
C   -2.47813805026426      5.65357479452875      0.00092287576113
C   -3.69314125872231     -3.54278984697859      0.00136564082345
C   -4.91451200321153     -1.42718062802730      0.00139857359209
C   -0.00000552908399     -5.65043791501335      0.00005899322272
C   -4.89302000425900      2.82518897091939     -0.00040227981744
C   2.47812647313991     -5.65357317188818     -0.00029052915548
C   -3.65679823041642      4.97295655404175     -0.00047374852278
C   -4.89299899901461     -2.82519139505969      0.00006491824035
C   -2.47812801824129     -5.65356579800621     -0.00056571680280
C   -6.13477002348955      0.68054913825639     -0.00086464346868
C   -3.65678835334731     -4.97294365097028      0.00058578382008
C   -6.13476456307132     -0.68055354348201      0.00040575295444
H   5.83528897565761      3.36927626695423      0.00396712770529
H   7.07385965258860      1.22821762089947     -0.00037744837300
H   4.60066374401555      5.51238117445323     -0.00014522814529
H   5.83528386714679     -3.36930568472863     -0.00423551337640
H   -0.00001167146422      6.73853104613662     -0.00389474766392
H   7.07386165167227     -1.22822657074368     -0.00008250934481
H   2.47331421164041      6.74068466339473      0.00017162982210
H   4.60066897122302     -5.51237575717576      0.00039007446835
H   -2.47331820069565      6.74068209160650      0.00047297644710
H   -0.00000978838621     -6.73852780445195      0.00458867820736
H   -5.83530143450167      3.36927132229595      0.00410314985360
H   2.47330840367253     -6.74068500242887      0.00027980126949
H   -4.60067436136587      5.51237839860371      0.00002010017831
H   -5.83527902699321     -3.36928859177951     -0.00451481925734
H   -2.47329986759855     -6.74067870613986     -0.00016951527498
H   -7.07385728692578      1.22822084484047     -0.00046143985387
H   -4.60067330624313     -5.51236229778631      0.00021776644566
H   -7.07385645456741     -1.22822025997701     -0.00017736581114

    units angstrom      # Angstroms are the default
    no_reorient         # Geometry fixed, default
    symmetry c1         # C1 symmetry, default
}

set {
    scf_type DF         # Density fitting, faster than exact integrals
    freeze_core True    # Freeze core electrons
    basis jun-cc-pVDZ   # Jun-cc-pVDZ basis set, recommended for sSAPT0 in https://doi.org/10.1063/1.4867135
}

energy('ssapt0')        # Compute sSAPT0 energy, includes also SAPT0
--------------------------------------------------------------------------

  //              Dimer HF             //
    Molecular point group: c1
  Charge       = -1
  Multiplicity = 1
  Basis Set: JUN-CC-PVDZ
    Blend: JUN-CC-PVDZ
  Basis Set: (JUN-CC-PVDZ AUX)
    Blend: JUN-CC-PVDZ-JKFIT
  @DF-RHF Final Energy: -2478.65915167782350
    Total Energy =                      -2478.6591516778244113
 Dipole X            :         -0.0002100           -0.0000160           -0.0002261
 Dipole Y            :          0.0012874           -0.0001716            0.0011157
 Dipole Z            :         25.0832975          -33.1036265           -8.0203291
 Magnitude           :                                                    8.0203291
  //            Monomer A HF           //
    Molecular point group: c1
  Multiplicity = 1
  Basis Set: JUN-CC-PVDZ
    Blend: JUN-CC-PVDZ
  Basis Set: (JUN-CC-PVDZ AUX)
    Blend: JUN-CC-PVDZ-JKFIT
  @DF-RHF Final Energy:  -422.77182832138323
    Total Energy =                       -422.7718283213832251
  //            Monomer B HF           //
    Molecular point group: c1

    Geometry (in Angstrom), charge = 0, multiplicity = 1:

       Center              X                  Y                   Z               Mass
    ------------   -----------------  -----------------  -----------------  -----------------
      Gh(B)          -0.000046449334     0.000336519434     4.776190059640    11.009305360000
      Gh(F)          -1.153597449334     0.000047519434     5.591837059640    18.998403162730
      Gh(F)           1.153660550666    -0.000581480566     5.591837059640    18.998403162730
      Gh(F)          -0.000019449334    -1.153637480566     3.960556059640    18.998403162730
      Gh(F)          -0.000019449334     1.153977519434     3.960556059640    18.998403162730
         C            1.225311925931     0.707538180353    -0.617666313076    12.000000000000
         C            1.225323886559    -0.707539003137    -0.629997122647    12.000000000000
         C           -0.000006123424     1.414965805524    -0.630530746167    12.000000000000
         C            2.456448784457     1.418327778612    -0.614779455676    12.000000000000
         C            0.000010857787    -1.414976607201    -0.620331188843    12.000000000000
         C           -1.225300918401     0.707545265418    -0.615414792754    12.000000000000
         C            2.456437785828    -1.418323412447    -0.632242279503    12.000000000000
         C           -0.000001302470     2.836800922715    -0.632934296301    12.000000000000
         C            3.681826727978     0.709317847435    -0.631893489706    12.000000000000
         C            2.455120079373     2.834223552923    -0.631996046666    12.000000000000
         C            3.681821135726    -0.709333947995    -0.615821005687    12.000000000000
         C           -1.225313568180    -0.707527624110    -0.628924361220    12.000000000000
         C            1.226699611710     3.543469375428    -0.615636973757    12.000000000000
         C            0.000004815365    -2.836782247802    -0.615483021221    12.000000000000
         C           -2.456436002341     1.418316809719    -0.615379396908    12.000000000000
         C            2.455123448287    -2.834230137155    -0.615972914055    12.000000000000
         C           -1.226714334082     3.543468955184    -0.615533640537    12.000000000000
         C            4.914517325709     1.427172763923    -0.625412806676    12.000000000000
         C            3.693150221984     3.542795183979    -0.625363007040    12.000000000000
         C           -2.456437569560    -1.418313389406    -0.632267317628    12.000000000000
         C            1.226704872451    -3.543474350473    -0.631607104506    12.000000000000
         C           -2.455125368000     2.834216554068    -0.631989670320    12.000000000000
         C            4.914524411290    -1.427187018510    -0.622440063942    12.000000000000
         C            1.221424644206     4.970133956694    -0.622301629682    12.000000000000
         C            4.893008259828     2.825187891460    -0.624196138317    12.000000000000
         C           -1.226696977981    -3.543471105643    -0.631339900097    12.000000000000
         C           -3.681818946018     0.709324858166    -0.631880809226    12.000000000000
         C            3.693147131658    -3.542801449957    -0.622322173381    12.000000000000
         C           -1.221432221486     4.970128189296    -0.622118134309    12.000000000000
         C            6.134771003434     0.680547838539    -0.624643032126    12.000000000000
         C            3.656788911118     4.972953135001    -0.624454369257    12.000000000000
         C           -2.455126877226    -2.834215201627    -0.616217271853    12.000000000000
         C           -3.681819148553    -0.709325812035    -0.615703384109    12.000000000000
         C            4.893012648421    -2.825200214198    -0.623584986422    12.000000000000
         C           -0.000001042605     5.650447257466    -0.623349443016    12.000000000000
         C            6.134775142840    -0.680554962641    -0.623377711611    12.000000000000
         C            2.478131513363     5.653576642765    -0.623165589607    12.000000000000
         C            1.221422435245    -4.970127163499    -0.625101126705    12.000000000000
         C           -3.693162353457     3.542796845626    -0.625197499581    12.000000000000
         C           -1.221428490437    -4.970118412162    -0.625213888537    12.000000000000
         C           -4.914521777434     1.427175338429    -0.625335861669    12.000000000000
         C            3.656787050187    -4.972955334806    -0.623003868723    12.000000000000
         C           -2.478138499598     5.653574313962    -0.622881064599    12.000000000000
         C           -3.693141708056    -3.542790327545    -0.622438299537    12.000000000000
         C           -4.914512452545    -1.427181108594    -0.622405366768    12.000000000000
         C           -0.000005978418    -5.650438395580    -0.623744947137    12.000000000000
         C           -4.893020453593     2.825188490353    -0.624206220177    12.000000000000
         C            2.478126023806    -5.653573652455    -0.624094469516    12.000000000000
         C           -3.656798679750     4.972956073475    -0.624277688883    12.000000000000
         C           -4.892999448349    -2.825191875626    -0.623739022120    12.000000000000
         C           -2.478128467575    -5.653566278573    -0.624369657163    12.000000000000
         C           -6.134770472823     0.680548657690    -0.624668583829    12.000000000000
         C           -3.656788802681    -4.972944131537    -0.623218156540    12.000000000000
         C           -6.134765012405    -0.680554024048    -0.623398187406    12.000000000000
         H            5.835288526324     3.369275786388    -0.619836812655     1.007825032230
         H            7.073859203255     1.228217140333    -0.624181388733     1.007825032230
         H            4.600663294682     5.512380693887    -0.623949168505     1.007825032230
         H            5.835283417813    -3.369306165295    -0.628039453736     1.007825032230
         H           -0.000012120798     6.738530565570    -0.627698688024     1.007825032230
         H            7.073861202338    -1.228227051310    -0.623886449705     1.007825032230
         H            2.473313762307     6.740684182828    -0.623632310538     1.007825032230
         H            4.600668521889    -5.512376237742    -0.623413865892     1.007825032230
         H           -2.473318650030     6.740681611040    -0.623330963913     1.007825032230
         H           -0.000010237720    -6.738528285018    -0.619215262153     1.007825032230
         H           -5.835301883836     3.369270841730    -0.619700790506     1.007825032230
         H            2.473307954339    -6.740685482995    -0.623524139091     1.007825032230
         H           -4.600674810700     5.512377918037    -0.623783840182     1.007825032230
         H           -5.835279476327    -3.369289072346    -0.628318759617     1.007825032230
         H           -2.473300316932    -6.740679186706    -0.623973455635     1.007825032230
         H           -7.073857736260     1.228220364274    -0.624265380214     1.007825032230
         H           -4.600673755577    -5.512362778353    -0.623586173914     1.007825032230
         H           -7.073856903901    -1.228220740543    -0.623981306171     1.007825032230

  Charge       = 0
  Multiplicity = 1
  Basis Set: JUN-CC-PVDZ
    Blend: JUN-CC-PVDZ
  Basis Set: (JUN-CC-PVDZ AUX)
    Blend: JUN-CC-PVDZ-JKFIT

    Orbital Energies [Eh]
    ---------------------

    Doubly Occupied:

       1A    -11.260629     2A    -11.260201     3A    -11.260166
       4A    -11.259479     5A    -11.259451     6A    -11.259291
       7A    -11.259078     8A    -11.259009     9A    -11.258992
      10A    -11.258683    11A    -11.258671    12A    -11.258602
      13A    -11.258540    14A    -11.258538    15A    -11.258535
      16A    -11.258502    17A    -11.258501    18A    -11.258483
      19A    -11.258471    20A    -11.258466    21A    -11.258458
      22A    -11.258373    23A    -11.258354    24A    -11.258070
      25A    -11.257390    26A    -11.257329    27A    -11.257327
      28A    -11.257193    29A    -11.257192    30A    -11.257108
      31A    -11.256483    32A    -11.256414    33A    -11.256411
      34A    -11.256303    35A    -11.256303    36A    -11.256256
      37A    -11.252351    38A    -11.252350    39A    -11.252349
      40A    -11.252347    41A    -11.252346    42A    -11.252344
      43A    -11.251474    44A    -11.251472    45A    -11.251468
      46A    -11.251465    47A    -11.251459    48A    -11.251457
      49A    -11.250913    50A    -11.250911    51A    -11.250910
      52A    -11.250908    53A    -11.250907    54A    -11.250906
      55A     -1.244169    56A     -1.219927    57A     -1.219911
      58A     -1.189644    59A     -1.189633    60A     -1.181049
      61A     -1.157654    62A     -1.149078    63A     -1.135596
      64A     -1.135590    65A     -1.113288    66A     -1.113281
      67A     -1.082531    68A     -1.082531    69A     -1.078705
      70A     -1.066073    71A     -1.066069    72A     -1.039498
      73A     -1.024383    74A     -1.021870    75A     -1.021835
      76A     -1.017822    77A     -1.012884    78A     -0.987126
      79A     -0.987079    80A     -0.961973    81A     -0.961925
      82A     -0.894388    83A     -0.894362    84A     -0.888044
      85A     -0.886299    86A     -0.886231    87A     -0.881501
      88A     -0.881458    89A     -0.861996    90A     -0.837496
      91A     -0.818310    92A     -0.816721    93A     -0.812242
      94A     -0.812230    95A     -0.794781    96A     -0.794772
      97A     -0.746732    98A     -0.744963    99A     -0.733524
     100A     -0.733508   101A     -0.732277   102A     -0.732255
     103A     -0.716598   104A     -0.699066   105A     -0.699064
     106A     -0.693684   107A     -0.693674   108A     -0.661325
     109A     -0.653212   110A     -0.651263   111A     -0.650345
     112A     -0.650340   113A     -0.639457   114A     -0.639453
     115A     -0.629816   116A     -0.627630   117A     -0.627606
     118A     -0.606486   119A     -0.605885   120A     -0.601767
     121A     -0.599831   122A     -0.599809   123A     -0.593739
     124A     -0.591326   125A     -0.591322   126A     -0.585362
     127A     -0.576439   128A     -0.576376   129A     -0.567413
     130A     -0.567399   131A     -0.566061   132A     -0.566037
     133A     -0.558828   134A     -0.554940   135A     -0.554936
     136A     -0.538688   137A     -0.538684   138A     -0.538241
     139A     -0.538240   140A     -0.529815   141A     -0.528210
     142A     -0.522967   143A     -0.522964   144A     -0.500597
     145A     -0.495669   146A     -0.493330   147A     -0.487898
     148A     -0.485176   149A     -0.481857   150A     -0.481850
     151A     -0.470424   152A     -0.470368   153A     -0.451133
     154A     -0.451051   155A     -0.439138   156A     -0.439130
     157A     -0.404815   158A     -0.404790   159A     -0.403444
     160A     -0.375491   161A     -0.375490   162A     -0.349193
     163A     -0.337657   164A     -0.336638   165A     -0.336557
     166A     -0.311166   167A     -0.298166   168A     -0.284414
     169A     -0.284369   170A     -0.224994   171A     -0.224922

  @DF-RHF Final Energy: -2055.89248782765344

   => Energetics <=

    Nuclear Repulsion Energy =           6452.5568002797781446
    One-Electron Energy =              -15636.4528817928076023
    Two-Electron Energy =                7128.0035936853764724
    Total Energy =                      -2055.8924878276538948
 Dipole X            :          0.0000706            0.0000112            0.0000818
 Dipole Y            :          0.0001602           -0.0000531            0.0001071
 Dipole Z            :        403.1518008         -403.1574053           -0.0056045
 Magnitude           :                                                    0.0056061

    SAPT Results
  --------------------------------------------------------------------------------------------------------
    Electrostatics                 10.36788229 [mEh]       6.50594436 [kcal/mol]      27.22087121 [kJ/mol]
      Elst10,r                     10.36788229 [mEh]       6.50594436 [kcal/mol]      27.22087121 [kJ/mol]

    Exchange                        0.02547305 [mEh]       0.01598458 [kcal/mol]       0.06687949 [kJ/mol]
      Exch10                        0.02547305 [mEh]       0.01598458 [kcal/mol]       0.06687949 [kJ/mol]
      Exch10(S^2)                   0.02547349 [mEh]       0.01598486 [kcal/mol]       0.06688064 [kJ/mol]

    Induction                      -5.22888413 [mEh]      -3.28117433 [kcal/mol]     -13.72843340 [kJ/mol]
      Ind20,r                      -5.29013660 [mEh]      -3.31961083 [kcal/mol]     -13.88925173 [kJ/mol]
      Exch-Ind20,r                  0.00774078 [mEh]       0.00485741 [kcal/mol]       0.02032340 [kJ/mol]
      delta HF,r (2)                0.05351169 [mEh]       0.03357909 [kcal/mol]       0.14049493 [kJ/mol]

    Dispersion                     -1.51012622 [mEh]      -0.94761851 [kcal/mol]      -3.96483585 [kJ/mol]
      Disp20                       -1.52069607 [mEh]      -0.95425119 [kcal/mol]      -3.99258698 [kJ/mol]
      Exch-Disp20                   0.01056985 [mEh]       0.00663268 [kcal/mol]       0.02775113 [kJ/mol]
      Disp20 (SS)                  -0.76034804 [mEh]      -0.47712560 [kcal/mol]      -1.99629349 [kJ/mol]
      Disp20 (OS)                  -0.76034804 [mEh]      -0.47712560 [kcal/mol]      -1.99629349 [kJ/mol]
      Exch-Disp20 (SS)              0.00767866 [mEh]       0.00481843 [kcal/mol]       0.02016031 [kJ/mol]
      Exch-Disp20 (OS)              0.00289119 [mEh]       0.00181425 [kcal/mol]       0.00759082 [kJ/mol]

  Total HF                          5.16447121 [mEh]       3.24075461 [kcal/mol]      13.55931730 [kJ/mol]
  Total SAPT0                       3.65434499 [mEh]       2.29313610 [kcal/mol]       9.59448145 [kJ/mol]

  Special recipe for scaled SAPT0 (see Manual):
    Electrostatics sSAPT0          10.36788229 [mEh]       6.50594436 [kcal/mol]      27.22087121 [kJ/mol]
    Exchange sSAPT0                 0.02547305 [mEh]       0.01598458 [kcal/mol]       0.06687949 [kJ/mol]
    Induction sSAPT0               -5.22888453 [mEh]      -3.28117458 [kcal/mol]     -13.72843445 [kJ/mol]
    Dispersion sSAPT0              -1.51012677 [mEh]      -0.94761886 [kcal/mol]      -3.96483729 [kJ/mol]
  Total sSAPT0                      3.65434404 [mEh]       2.29313551 [kcal/mol]       9.59447896 [kJ/mol]
  --------------------------------------------------------------------------------------------------------

*** Psi4 exiting successfully. Buy a developer a beer!
