                               Psi4 1.9 release

  ==> Input File <==

--------------------------------------------------------------------------
memory 47 GB # how much memory is available ! Depends on the nodes/cores !

molecule dimer {
# monomer A
+1 1    # Charge and multiplicity
C  0.680067 1.417258 -7.815929
C -0.680504 1.419286 -7.815545
N -1.085635 1.420284 -6.497221
C  0.000108 1.423560 -5.715820
C -2.477365 1.469690 -6.029242
N  1.085222 1.420284 -6.497221
H  1.385146 1.409430 -8.633368
H -1.385302 1.419096 -8.633214
H -0.000009 1.425307 -4.634731
C  2.478117 1.403392 -6.032123
H  2.490592 1.430737 -4.941870
H  2.967028 0.489946 -6.379299
H  3.001428 2.278875 -6.423595
H -2.857359 2.491761 -6.109201
H -3.082679 0.799606 -6.642306
H -2.518128 1.142706 -4.989294
--
# monomer B
0 1     # Charge and multiplicity
C   -3.66844126402057      7.80375217008252      0.00190004133558
C   -4.84759871934653      7.13124183134024     -0.00046653359696
C   -4.89495929917518      5.69633040353158     -0.00103944469517
C   -3.65374067877320      4.98073034095895      0.00662099703436
C   -2.40942512149445      7.11398103667468      0.00209438359570
C   -2.42547734410473      5.68112195090346     -0.00491050527438
C   -1.19474401643570      7.78614419430947      0.00356656413763
C   0.03795902893699      7.09942164575698      0.00139585983271
C   0.03033258741920      5.66948955970466     -0.00408752508301
C   -1.20098450790502      4.96927034791531      0.00488220885047
C   1.27795782581485      7.77285944319479      0.00277170839332
C   2.48535808472416      7.08769688523756      0.00049722048857
C   2.48612868491717      5.65477081024076     -0.00644052849921
C   1.25408291964399      4.95607811366431      0.00518741308898
C   3.75171459140595      7.76391215098033      0.00062407186893
C   4.92356605618520      7.07878077698995     -0.00143240883900
C   4.95560727132542      5.64344746336949     -0.00159282164606
C   3.70680153420475      4.94121020833308      0.00349873852374
H   -3.65852113775815      8.89082741913536      0.00358502958574
H   -1.18921332975660      8.87412108735996      0.00753844057883
H   1.28429423888630      8.86083343548850      0.00693053253426
H   3.75354208679975      8.85103527897216      0.00214659618464
H   5.86995870320703      7.61379483465560     -0.00235777588134
H   -5.78823170750226      7.67630221293400     -0.00202638095293
C   -6.09197395869619      4.99326001364347     -0.00291168518608
C   -6.12866148031747      3.58258016879823     -0.00171050815740
C   -3.66457974004527      3.56418217974434     -0.00463560277484
C   -4.89429820469869      2.86108077590057      0.00453338221034
C   -2.43733499489796      2.84761165708481      0.00719617576166
C   -1.20922785759670      3.54788693497833     -0.00648285103018
C   1.24714157216223      3.53468075142962     -0.00729145743546
C   0.01517603956900      2.83311183930540      0.00439272578912
C   2.46764517244071      2.82128997725533      0.00449278391269
C   3.70254947457969      3.52466015442405     -0.00899517692985
C   6.14498038638375      4.92757236613191     -0.00282626685777
C   6.16658835886151      3.51658447594213     -0.00065971342101
C   4.92460995845939      2.80840792535402      0.00587903281610
H   7.08990550964105      5.46688776622306     -0.00658814770723
H   -7.03104175110130      5.54268795285765     -0.00714490013730
C   -7.33969804112295      2.85841153457957     -0.00333767559888
C   -7.36488195805880      1.47032337158330     -0.00157213747140
C   -4.90350460894690      1.44442681216000     -0.00628840166334
C   -6.13225715261081      0.73993935705394      0.00600164231964
C   -3.67687480051673      0.72669714267312      0.00433931473643
C   -2.44565658606518      1.42964113326212     -0.00597039546461
C   -1.22360068130162      0.71532450163492      0.00545886906656
C   0.00763786931376      1.41738314923765      0.00392452278437
C   1.23121980774686      0.70211669058719     -0.01490206287210
C   2.46082110053113      1.40329203612573      0.00460244601878
C   3.68443025419614      0.68719842821222      0.00377365974158
C   4.91870890153864      1.39173456118907     -0.00862816189375
C   7.36980207796101      2.77948220318441     -0.00242013321349
C   7.38016266612146      1.39121750785509     -0.00087345036788
C   6.13979953912259      0.67411862320065      0.00545489144369
H   -8.27919079934664      3.40711804112415     -0.00763522772059
H   8.31511347147953      3.31811809662368     -0.00663070901292
C   -8.59175593758115      0.72483255304480     -0.00123170985383
C   -8.59902460370342     -0.63263980622873      0.00089141472904
C   -6.13981313911873     -0.67413663715361     -0.00609792660607
C   -7.38018411213749     -1.39126618958160      0.00131813493501
C   -4.91868448025621     -1.39175501803000      0.00624257154343
C   -3.68443829568458     -0.68723731573599     -0.00478966852105
C   -2.46081704024768     -1.40334517882457      0.00575341766833
C   -1.23116201232071     -0.70217386488055     -0.00636696112346
C   -0.00756962538737     -1.41741884941102      0.00108956317991
C   1.22364771588843     -0.71527537726392      0.01109518512883
C   2.44567064933149     -1.42964328900682     -0.00065482763106
C   3.67686670284649     -0.72670743155550     -0.00479541202602
C   6.13224884641929     -0.73997883984993     -0.00632338623858
C   4.90351914550401     -1.44445752054090      0.00751768830159
C   8.59901484869081      0.63260386666793     -0.00101133422380
C   8.59174548810050     -0.72485086719319      0.00072504603735
C   7.36486276438985     -1.47033266560598      0.00049486934466
H   -9.52830597181814      1.27684744919284     -0.00270163681798
H   9.54141097460619      1.17457248844457     -0.00206336648518
C   -7.36983790976868     -2.77954514593389      0.00312634335708
C   -4.92459910905015     -2.80843725734101     -0.00460528907921
C   -6.16662249566744     -3.51665219282533      0.00169655107992
C   -3.70251035970491     -3.52468154912026      0.00571878010666
C   -2.46764698511392     -2.82132596280400     -0.00632585824990
C   -0.01513347410770     -2.83314164539971     -0.00604426974092
C   -1.24712184122656     -3.53473217556300      0.00551968366725
C   1.20924506964357     -3.54791467864352      0.00805871345849
C   2.43733602215464     -2.84764173817541     -0.00608104485234
C   4.89430234377080     -2.86112296828604     -0.00526030478103
C   3.66461525504104     -3.56421984553201      0.00761911515957
C   6.12863901474565     -3.58258405771778      0.00096495711699
C   7.33967266469532     -2.85841330737039      0.00248018319869
H   -9.54144911125902     -1.17456346666430      0.00226083090216
H   9.52826186807155     -1.27691907390448      0.00197485379837
H   -8.31516504384864     -3.31814985321231      0.00729857188773
H   8.27915514249207     -3.40714078989363      0.00681973918158
C   -6.14499418870218     -4.92764727278338      0.00302254913999
C   -3.70678334799751     -4.94126171411716     -0.00679841894792
C   -4.95559005800169     -5.64349397349412      0.00116871569699
C   -2.48612132622665     -5.65478557440947      0.00614125209662
C   -1.25405833548005     -4.95612205000132     -0.00503435388927
C   1.20101257386816     -4.96928038819302     -0.00385322963129
C   -0.03033667441341     -5.66952030313900      0.00398997003238
C   3.65375010132847     -4.98074377541453     -0.00309522988330
C   2.42549269587528     -5.68117463552727      0.00628170066869
C   6.09196561781097     -4.99325796338655      0.00325918379042
C   4.89497644461045     -5.69634842095790      0.00202298796027
H   -7.08989238804069     -5.46699984223871      0.00742531082125
H   7.03105520920009     -5.54265853633254      0.00683896355417
C   -4.92354532219813     -7.07882109967734      0.00061394679214
C   -2.48534208823777     -7.08772807792913     -0.00189594564379
C   -3.75168589177895     -7.76394715763627     -0.00170126671874
C   -0.03794895698805     -7.09946487446944     -0.00168022049625
C   -1.27795610040136     -7.77290438466689     -0.00366491325785
C   2.40944432072629     -7.11402201200282     -0.00081701968533
C   1.19474993715296     -7.78618536556242     -0.00296931056689
C   4.84762105249800     -7.13126211057943      0.00168979497423
C   3.66847160587561     -7.80378799294376     -0.00065863938960
H   -5.86994035041618     -7.61383059804164      0.00215798365757
H   5.78824962538815     -7.67633218931421      0.00281691445618
H   -3.75352693944918     -8.85107156923607     -0.00353718114765
H   -1.28430440589466     -8.86087539249706     -0.00809229711623
H   1.18922157469537     -8.87416062058945     -0.00706194725726
H   3.65854661482387     -8.89086063405326     -0.00231318081200

    units angstrom      # Angstroms are the default
    no_reorient         # Geometry fixed, default
    symmetry c1         # C1 symmetry, default
}

set {
    scf_type DF         # Density fitting, faster than exact integrals
    freeze_core True    # Freeze core electrons
    basis jun-cc-pVDZ   # Jun-cc-pVDZ basis set, recommended for sSAPT0 in https://doi.org/10.1063/1.4867135
}

energy('ssapt0')        # Compute sSAPT0 energy, includes also SAPT0
--------------------------------------------------------------------------

  //              Dimer HF             //
    Molecular point group: c1
  Charge       = 1
  Multiplicity = 1
  Basis Set: JUN-CC-PVDZ
    Blend: JUN-CC-PVDZ
  Basis Set: (JUN-CC-PVDZ AUX)
    Blend: JUN-CC-PVDZ-JKFIT
  @DF-RHF Final Energy: -3953.64930160233507
    Total Energy =                      -3953.6493016023341625
 Dipole X            :         -0.0026697            0.0004804           -0.0021893
 Dipole Y            :         -6.9319476            8.7122315            1.7802839
 Dipole Z            :         28.3062296          -38.1969296           -9.8907000
 Magnitude           :                                                   10.0496448
  //            Monomer A HF           //
    Molecular point group: c1
  Multiplicity = 1
  Basis Set: JUN-CC-PVDZ
    Blend: JUN-CC-PVDZ
  Basis Set: (JUN-CC-PVDZ AUX)
    Blend: JUN-CC-PVDZ-JKFIT
  @DF-RHF Final Energy:  -303.29732879305567
    Total Energy =                       -303.2973287930556694
  //            Monomer B HF           //
    Molecular point group: c1

    Geometry (in Angstrom), charge = 0, multiplicity = 1:

       Center              X                  Y                   Z               Mass
    ------------   -----------------  -----------------  -----------------  -----------------
      Gh(C)           0.680062820275     1.308604348936    -7.312735758930    12.000000000000
      Gh(C)          -0.680508179725     1.310632348936    -7.312351758930    12.000000000000
      Gh(N)          -1.085639179725     1.311630348936    -5.994027758930    14.003074004430
      Gh(C)           0.000103820275     1.314906348936    -5.212626758930    12.000000000000
      Gh(C)          -2.477369179725     1.361036348936    -5.526048758930    12.000000000000
      Gh(N)           1.085217820275     1.311630348936    -5.994027758930    14.003074004430
      Gh(H)           1.385141820275     1.300776348936    -8.130174758930     1.007825032230
      Gh(H)          -1.385306179725     1.310442348936    -8.130020758930     1.007825032230
      Gh(H)          -0.000013179725     1.316653348936    -4.131537758930     1.007825032230
      Gh(C)           2.478112820275     1.294738348936    -5.528929758930    12.000000000000
      Gh(H)           2.490587820275     1.322083348936    -4.438676758930     1.007825032230
      Gh(H)           2.967023820275     0.381292348936    -5.876105758930     1.007825032230
      Gh(H)           3.001423820275     2.170221348936    -5.920401758930     1.007825032230
      Gh(H)          -2.857363179725     2.383107348936    -5.606007758930     1.007825032230
      Gh(H)          -3.082683179725     0.690952348936    -6.139112758930     1.007825032230
      Gh(H)          -2.518132179725     1.034052348936    -4.486100758930     1.007825032230
         C           -3.668445443746     7.695098519018     0.505093282405    12.000000000000
         C           -4.847602899072     7.022588180276     0.502726707473    12.000000000000
         C           -4.894963478901     5.587676752467     0.502153796375    12.000000000000
         C           -3.653744858499     4.872076689895     0.509814238104    12.000000000000
         C           -2.409429301220     7.005327385610     0.505287624666    12.000000000000
         C           -2.425481523830     5.572468299839     0.498282735795    12.000000000000
         C           -1.194748196161     7.677490543245     0.506759805207    12.000000000000
         C            0.037954849212     6.990767994693     0.504589100903    12.000000000000
         C            0.030328407694     5.560835908640     0.499105715987    12.000000000000
         C           -1.200988687630     4.860616696851     0.508075449920    12.000000000000
         C            1.277953646089     7.664205792130     0.505964949463    12.000000000000
         C            2.485353904999     6.979043234173     0.503690461558    12.000000000000
         C            2.486124505192     5.546117159176     0.496752712571    12.000000000000
         C            1.254078739919     4.847424462600     0.508380654159    12.000000000000
         C            3.751710411681     7.655258499916     0.503817312939    12.000000000000
         C            4.923561876460     6.970127125926     0.501760832231    12.000000000000
         C            4.955603091600     5.534793812305     0.501600419424    12.000000000000
         C            3.706797354479     4.832556557269     0.506691979594    12.000000000000
         H           -3.658525317484     8.782173768071     0.506778270656     1.007825032230
         H           -1.189217509482     8.765467436296     0.510731681649     1.007825032230
         H            1.284290059161     8.752179784424     0.510123773604     1.007825032230
         H            3.753537907074     8.742381627908     0.505339837254     1.007825032230
         H            5.869954523482     7.505141183591     0.500835465189     1.007825032230
         H           -5.788235887228     7.567648561870     0.501166860117     1.007825032230
         C           -6.091978138422     4.884606362579     0.500281555884    12.000000000000
         C           -6.128665660043     3.473926517734     0.501482732912    12.000000000000
         C           -3.664583919771     3.455528528680     0.498557638295    12.000000000000
         C           -4.894302384424     2.752427124836     0.507726623280    12.000000000000
         C           -2.437339174623     2.738958006020     0.510389416832    12.000000000000
         C           -1.209232037322     3.439233283914     0.496710390040    12.000000000000
         C            1.247137392437     3.426027100365     0.495901783634    12.000000000000
         C            0.015171859844     2.724458188241     0.507585966859    12.000000000000
         C            2.467640992715     2.712636326191     0.507686024983    12.000000000000
         C            3.702545294854     3.416006503360     0.494198064140    12.000000000000
         C            6.144976206658     4.818918715067     0.500366974212    12.000000000000
         C            6.166584179136     3.407930824878     0.502533527649    12.000000000000
         C            4.924605778734     2.699754274290     0.509072273886    12.000000000000
         H            7.089901329916     5.358234115159     0.496605093363     1.007825032230
         H           -7.031045930827     5.434034301793     0.496048340933     1.007825032230
         C           -7.339702220848     2.749757883515     0.499855565471    12.000000000000
         C           -7.364886137784     1.361669720519     0.501621103598    12.000000000000
         C           -4.903508788672     1.335773161096     0.496904839407    12.000000000000
         C           -6.132261332336     0.631285705989     0.509194883389    12.000000000000
         C           -3.676878980242     0.618043491609     0.507532555806    12.000000000000
         C           -2.445660765791     1.320987482198     0.497222845605    12.000000000000
         C           -1.223604861027     0.606670850570     0.508652110136    12.000000000000
         C            0.007633689588     1.308729498173     0.507117763854    12.000000000000
         C            1.231215628021     0.593463039523     0.488291178198    12.000000000000
         C            2.460816920806     1.294638385061     0.507795687089    12.000000000000
         C            3.684426074471     0.578544777148     0.506966900811    12.000000000000
         C            4.918704721813     1.283080910125     0.494565079176    12.000000000000
         C            7.369797898236     2.670828552120     0.500773107856    12.000000000000
         C            7.380158486396     1.282563856791     0.502319790702    12.000000000000
         C            6.139795359397     0.565464972136     0.508648132514    12.000000000000
         H           -8.279194979072     3.298464390060     0.495558013349     1.007825032230
         H            8.315109291754     3.209464445559     0.496562532057     1.007825032230
         C           -8.591760117307     0.616178901980     0.501961531216    12.000000000000
         C           -8.599028783429    -0.741293457293     0.504084655799    12.000000000000
         C           -6.139817318844    -0.782790288218     0.497095314464    12.000000000000
         C           -7.380188291863    -1.499919840646     0.504511376005    12.000000000000
         C           -4.918688659982    -1.500408669094     0.509435812613    12.000000000000
         C           -3.684442475410    -0.795890966800     0.498403572549    12.000000000000
         C           -2.460821219973    -1.511998829889     0.508946658738    12.000000000000
         C           -1.231166192046    -0.810827515945     0.496826279946    12.000000000000
         C           -0.007573805113    -1.526072500475     0.504282804250    12.000000000000
         C            1.223643536163    -0.823929028328     0.514288426199    12.000000000000
         C            2.445666469606    -1.538296940071     0.502538413439    12.000000000000
         C            3.676862523121    -0.835361082620     0.498397829044    12.000000000000
         C            6.132244666694    -0.848632490914     0.496869854831    12.000000000000
         C            4.903514965779    -1.553111171605     0.510710929371    12.000000000000
         C            8.599010668965     0.523950215603     0.502181906846    12.000000000000
         C            8.591741308375    -0.833504518258     0.503918287107    12.000000000000
         C            7.364858584664    -1.578986316670     0.503688110415    12.000000000000
         H           -9.528310151544     1.168193798128     0.500491604252     1.007825032230
         H            9.541406794881     1.065918837380     0.501129874585     1.007825032230
         C           -7.369842089494    -2.888198796998     0.506319584427    12.000000000000
         C           -4.924603288776    -2.917090908405     0.498587951991    12.000000000000
         C           -6.166626675393    -3.625305843890     0.504889792150    12.000000000000
         C           -3.702514539430    -3.633335200185     0.508912021177    12.000000000000
         C           -2.467651164839    -2.929979613868     0.496867382820    12.000000000000
         C           -0.015137653833    -2.941795296464     0.497148971329    12.000000000000
         C           -1.247126020952    -3.643385826627     0.508712924737    12.000000000000
         C            1.209240889918    -3.656568329708     0.511251954528    12.000000000000
         C            2.437331842429    -2.956295389240     0.497112196218    12.000000000000
         C            4.894298164045    -2.969776619350     0.497932936289    12.000000000000
         C            3.664611075316    -3.672873496596     0.510812356229    12.000000000000
         C            6.128634835020    -3.691237708782     0.504158198187    12.000000000000
         C            7.339668484970    -2.967066958435     0.505673424269    12.000000000000
         H           -9.541453290984    -1.283217117729     0.505454071972     1.007825032230
         H            9.528257688346    -1.385572724969     0.505168094868     1.007825032230
         H           -8.315169223574    -3.426803504277     0.510491812958     1.007825032230
         H            8.279150962767    -3.515794440958     0.510012980251     1.007825032230
         C           -6.144998368428    -5.036300923848     0.506215790210    12.000000000000
         C           -3.706787527723    -5.049915365182     0.496394822122    12.000000000000
         C           -4.955594237727    -5.752147624559     0.504361956767    12.000000000000
         C           -2.486125505952    -5.763439225474     0.509334493166    12.000000000000
         C           -1.254062515205    -5.064775701066     0.498158887181    12.000000000000
         C            1.201008394143    -5.077934039257     0.499340011439    12.000000000000
         C           -0.030340854139    -5.778173954203     0.507183211102    12.000000000000
         C            3.653745921603    -5.089397426479     0.500098011187    12.000000000000
         C            2.425488516150    -5.789828286592     0.509474941739    12.000000000000
         C            6.091961438086    -5.101911614451     0.506452424860    12.000000000000
         C            4.894972264885    -5.805002072022     0.505216229030    12.000000000000
         H           -7.089896567766    -5.575653493303     0.510618551891     1.007825032230
         H            7.031051029475    -5.651312187397     0.510032204624     1.007825032230
         C           -4.923549501924    -7.187474750742     0.503807187862    12.000000000000
         C           -2.485346267963    -7.196381728994     0.501297295426    12.000000000000
         C           -3.751690071504    -7.872600808701     0.501491974351    12.000000000000
         C           -0.037953136713    -7.208118525534     0.501513020574    12.000000000000
         C           -1.277960280127    -7.881558035731     0.499528327812    12.000000000000
         C            2.409440141001    -7.222675663067     0.502376221385    12.000000000000
         C            1.194745757428    -7.894839016627     0.500223930503    12.000000000000
         C            4.847616872773    -7.239915761644     0.504883036044    12.000000000000
         C            3.668467426150    -7.912441644008     0.502534601680    12.000000000000
         H           -5.869944530142    -7.722484249106     0.505351224727     1.007825032230
         H            5.788245445663    -7.784985840379     0.506010155526     1.007825032230
         H           -3.753531119175    -8.959725220301     0.499656059922     1.007825032230
         H           -1.284308585620    -8.969529043562     0.495100943954     1.007825032230
         H            1.189217394970    -8.982814271654     0.496131293813     1.007825032230
         H            3.658542435098    -8.999514285118     0.500880060258     1.007825032230

  Charge       = 0
  Multiplicity = 1
  Basis Set: JUN-CC-PVDZ
    Blend: JUN-CC-PVDZ
  Basis Set: (JUN-CC-PVDZ AUX)
    Blend: JUN-CC-PVDZ-JKFIT

    Orbital Energies [Eh]
    ---------------------

    Doubly Occupied:

       1A    -11.264018     2A    -11.263703     3A    -11.263699
       4A    -11.263358     5A    -11.263355     6A    -11.263321
       7A    -11.263163     8A    -11.263140     9A    -11.263134
      10A    -11.262977    11A    -11.262819    12A    -11.262812
      13A    -11.262337    14A    -11.262331    15A    -11.262262
      16A    -11.262259    17A    -11.262208    18A    -11.262174
      19A    -11.262129    20A    -11.262092    21A    -11.262089
      22A    -11.261938    23A    -11.261932    24A    -11.261815
      25A    -11.261803    26A    -11.261785    27A    -11.261782
      28A    -11.261735    29A    -11.261726    30A    -11.261654
      31A    -11.261627    32A    -11.261623    33A    -11.261597
      34A    -11.261596    35A    -11.261574    36A    -11.261527
      37A    -11.261393    38A    -11.261384    39A    -11.261376
      40A    -11.261369    41A    -11.261363    42A    -11.261354
      43A    -11.261350    44A    -11.261334    45A    -11.261330
      46A    -11.261310    47A    -11.261303    48A    -11.261297
      49A    -11.261141    50A    -11.261109    51A    -11.261105
      52A    -11.261026    53A    -11.261023    54A    -11.260953
      55A    -11.259992    56A    -11.259975    57A    -11.259973
      58A    -11.259946    59A    -11.259942    60A    -11.259924
      61A    -11.259368    62A    -11.259340    63A    -11.259339
      64A    -11.259287    65A    -11.259284    66A    -11.259254
      67A    -11.258995    68A    -11.258975    69A    -11.258973
      70A    -11.258947    71A    -11.258943    72A    -11.258929
      73A    -11.254575    74A    -11.254571    75A    -11.254570
      76A    -11.254568    77A    -11.254561    78A    -11.254559
      79A    -11.253721    80A    -11.253717    81A    -11.253713
      82A    -11.253712    83A    -11.253709    84A    -11.253701
      85A    -11.253637    86A    -11.253632    87A    -11.253628
      88A    -11.253628    89A    -11.253625    90A    -11.253617
      91A    -11.253102    92A    -11.253099    93A    -11.253098
      94A    -11.253097    95A    -11.253088    96A    -11.253087
      97A     -1.254079    98A     -1.239101    99A     -1.239099
     100A     -1.220551   101A     -1.220546   102A     -1.215561
     103A     -1.201117   104A     -1.195684   105A     -1.188256
     106A     -1.188253   107A     -1.173837   108A     -1.173834
     109A     -1.155732   110A     -1.155729   111A     -1.152832
     112A     -1.144791   113A     -1.144788   114A     -1.128660
     115A     -1.114815   116A     -1.113232   117A     -1.112595
     118A     -1.112581   119A     -1.111683   120A     -1.088522
     121A     -1.088506   122A     -1.077030   123A     -1.077028
     124A     -1.067713   125A     -1.067682   126A     -1.065078
     127A     -1.046884   128A     -1.046876   129A     -1.040570
     130A     -1.038802   131A     -1.038802   132A     -1.025346
     133A     -1.021509   134A     -1.021458   135A     -1.007257
     136A     -1.006896   137A     -1.003875   138A     -1.000591
     139A     -1.000542   140A     -0.991139   141A     -0.971082
     142A     -0.971033   143A     -0.955959   144A     -0.955903
     145A     -0.905710   146A     -0.905670   147A     -0.905612
     148A     -0.905571   149A     -0.904462   150A     -0.892481
     151A     -0.892424   152A     -0.890470   153A     -0.890413
     154A     -0.889550   155A     -0.872289   156A     -0.869111
     157A     -0.851616   158A     -0.847968   159A     -0.847947
     160A     -0.845702   161A     -0.843111   162A     -0.834647
     163A     -0.834634   164A     -0.828184   165A     -0.828180
     166A     -0.784636   167A     -0.784625   168A     -0.783758
     169A     -0.783733   170A     -0.782378   171A     -0.782359
     172A     -0.782136   173A     -0.767071   174A     -0.760905
     175A     -0.750682   176A     -0.733555   177A     -0.727154
     178A     -0.727138   179A     -0.725174   180A     -0.724621
     181A     -0.724601   182A     -0.718607   183A     -0.713875
     184A     -0.713869   185A     -0.699657   186A     -0.699644
     187A     -0.686240   188A     -0.686027   189A     -0.686024
     190A     -0.682247   191A     -0.682237   192A     -0.678874
     193A     -0.653709   194A     -0.650956   195A     -0.650926
     196A     -0.649919   197A     -0.649905   198A     -0.649635
     199A     -0.641039   200A     -0.641011   201A     -0.640158
     202A     -0.639226   203A     -0.636118   204A     -0.636090
     205A     -0.629223   206A     -0.617725   207A     -0.615370
     208A     -0.615350   209A     -0.608877   210A     -0.608870
     211A     -0.599168   212A     -0.599141   213A     -0.598831
     214A     -0.598699   215A     -0.598676   216A     -0.598148
     217A     -0.595136   218A     -0.595123   219A     -0.594802
     220A     -0.594347   221A     -0.592046   222A     -0.592043
     223A     -0.587504   224A     -0.577850   225A     -0.577839
     226A     -0.575721   227A     -0.575716   228A     -0.573453
     229A     -0.569574   230A     -0.568247   231A     -0.568224
     232A     -0.566837   233A     -0.566827   234A     -0.560969
     235A     -0.558812   236A     -0.558790   237A     -0.558484
     238A     -0.554449   239A     -0.550609   240A     -0.547528
     241A     -0.544319   242A     -0.535021   243A     -0.534990
     244A     -0.533614   245A     -0.533593   246A     -0.528146
     247A     -0.528130   248A     -0.527903   249A     -0.517268
     250A     -0.517235   251A     -0.515401   252A     -0.515396
     253A     -0.509708   254A     -0.509692   255A     -0.498098
     256A     -0.496530   257A     -0.496501   258A     -0.493819
     259A     -0.493809   260A     -0.489457   261A     -0.481517
     262A     -0.477463   263A     -0.477461   264A     -0.474065
     265A     -0.469526   266A     -0.466606   267A     -0.466602
     268A     -0.458851   269A     -0.446801   270A     -0.446741
     271A     -0.441073   272A     -0.440799   273A     -0.440777
     274A     -0.434732   275A     -0.433948   276A     -0.407420
     277A     -0.407397   278A     -0.386455   279A     -0.386408
     280A     -0.385773   281A     -0.385772   282A     -0.383799
     283A     -0.354372   284A     -0.354354   285A     -0.350708
     286A     -0.338134   287A     -0.335636   288A     -0.335564
     289A     -0.332755   290A     -0.332749   291A     -0.307131
     292A     -0.301992   293A     -0.301931   294A     -0.300885
     295A     -0.286214   296A     -0.256504   297A     -0.253545
     298A     -0.253493   299A     -0.204305   300A     -0.204218

  @DF-RHF Final Energy: -3650.33833316410937

   => Energetics <=

    Nuclear Repulsion Energy =          15611.4211649754306563
    One-Electron Energy =              -36072.1011240963853197
    Two-Electron Energy =               16810.3416259568475652
    Total Energy =                      -3650.3383331641089171
 Dipole X            :         -0.0008792            0.0002112           -0.0006680
 Dipole Y            :        123.2143176         -123.2131634            0.0011542
 Dipole Z            :       -570.5333293          570.5418402            0.0085109
 Magnitude           :                                                    0.0086148

    SAPT Results
  --------------------------------------------------------------------------------------------------------
    Electrostatics                 -9.13152907 [mEh]      -5.73012100 [kcal/mol]     -23.97482626 [kJ/mol]
      Elst10,r                     -9.13152907 [mEh]      -5.73012100 [kcal/mol]     -23.97482626 [kJ/mol]

    Exchange                        0.00388949 [mEh]       0.00244069 [kcal/mol]       0.01021186 [kJ/mol]
      Exch10                        0.00388949 [mEh]       0.00244069 [kcal/mol]       0.01021186 [kJ/mol]
      Exch10(S^2)                   0.00388948 [mEh]       0.00244069 [kcal/mol]       0.01021184 [kJ/mol]

    Induction                      -4.51200560 [mEh]      -2.83132626 [kcal/mol]     -11.84626906 [kJ/mol]
      Ind20,r                      -4.40300893 [mEh]      -2.76292981 [kcal/mol]     -11.56009834 [kJ/mol]
      Exch-Ind20,r                  0.00228188 [mEh]       0.00143190 [kcal/mol]       0.00599108 [kJ/mol]
      delta HF,r (2)               -0.11127855 [mEh]      -0.06982835 [kcal/mol]      -0.29216180 [kJ/mol]

    Dispersion                     -2.48100398 [mEh]      -1.55685350 [kcal/mol]      -6.51387505 [kJ/mol]
      Disp20                       -2.48205320 [mEh]      -1.55751190 [kcal/mol]      -6.51662978 [kJ/mol]
      Exch-Disp20                   0.00104922 [mEh]       0.00065840 [kcal/mol]       0.00275473 [kJ/mol]
      Disp20 (SS)                  -1.24102660 [mEh]      -0.77875595 [kcal/mol]      -3.25831489 [kJ/mol]
      Disp20 (OS)                  -1.24102660 [mEh]      -0.77875595 [kcal/mol]      -3.25831489 [kJ/mol]
      Exch-Disp20 (SS)              0.00075216 [mEh]       0.00047199 [kcal/mol]       0.00197480 [kJ/mol]
      Exch-Disp20 (OS)              0.00029706 [mEh]       0.00018641 [kcal/mol]       0.00077994 [kJ/mol]

  Total HF                        -13.63964517 [mEh]      -8.55900656 [kcal/mol]     -35.81088346 [kJ/mol]
  Total SAPT0                     -16.12064915 [mEh]     -10.11586006 [kcal/mol]     -42.32475851 [kJ/mol]

  Special recipe for scaled SAPT0 (see Manual):
    Electrostatics sSAPT0          -9.13152907 [mEh]      -5.73012100 [kcal/mol]     -23.97482626 [kJ/mol]
    Exchange sSAPT0                 0.00388949 [mEh]       0.00244069 [kcal/mol]       0.01021186 [kJ/mol]
    Induction sSAPT0               -4.51200560 [mEh]      -2.83132626 [kcal/mol]     -11.84626906 [kJ/mol]
    Dispersion sSAPT0              -2.48100398 [mEh]      -1.55685350 [kcal/mol]      -6.51387505 [kJ/mol]
  Total sSAPT0                    -16.12064915 [mEh]     -10.11586006 [kcal/mol]     -42.32475851 [kJ/mol]
  --------------------------------------------------------------------------------------------------------

*** Psi4 exiting successfully. Buy a developer a beer!
