                               Psi4 1.9 release

  ==> Input File <==

--------------------------------------------------------------------------
memory 32 GB # how much memory is available ! Depends on the nodes/cores !

molecule dimer {
# monomer A
+1 1    # Charge and multiplicity
C  0.680067 1.417258 -7.815929
C -0.680504 1.419286 -7.815545
N -1.085635 1.420284 -6.497221
C  0.000108 1.423560 -5.715820
C -2.477365 1.469690 -6.029242
N  1.085222 1.420284 -6.497221
H  1.385146 1.409430 -8.633368
H -1.385302 1.419096 -8.633214
H -0.000009 1.425307 -4.634731
C  2.478117 1.403392 -6.032123
H  2.490592 1.430737 -4.941870
H  2.967028 0.489946 -6.379299
H  3.001428 2.278875 -6.423595
H -2.857359 2.491761 -6.109201
H -3.082679 0.799606 -6.642306
H -2.518128 1.142706 -4.989294
--
# monomer B
0 1     # Charge and multiplicity
C   1.22531237526482      0.70753866091955      0.00613762728373
C   1.22532433589282     -0.70753852257020     -0.00619318228664
C   -0.00000567409046      1.41496628609039     -0.00672680580738
C   2.45644923379077      1.41832825917820      0.00902448468363
C   0.00001130712078     -1.41497612663474      0.00347275151708
C   -1.22530046906674      0.70754574598412      0.00838914760619
C   2.45643823516184     -1.41832293188077     -0.00843833914343
C   -0.00000085313587      2.83680140328112     -0.00913035594137
C   3.68182717731192      0.70931832800114     -0.00808954934571
C   2.45512052870677      2.83422403348893     -0.00819210630633
C   3.68182158506039     -0.70933346742900      0.00798293467272
C   -1.22531311884624     -0.70752714354401     -0.00512042085974
C   1.22670006104402      3.54346985599427      0.00816696660346
C   0.00000526469929     -2.83678176723568      0.00832091913869
C   -2.45643555300670      1.41831729028492      0.00842454345199
C   2.45512389762097     -2.83422965658853      0.00783102630520
C   -1.22671388474763      3.54346943575023      0.00827029982280
C   4.91451777504333      1.42717324448953     -0.00160886631602
C   3.69315067131765      3.54279566454522     -0.00155906667985
C   -2.45643712022637     -1.41831290883911     -0.00846337726810
C   1.22670532178455     -3.54347386990643     -0.00780316414624
C   -2.45512491866593      2.83421703463423     -0.00818572995999
C   4.91452486062398     -1.42718653794377      0.00136387641845
C   1.22142509354026      4.97013443726031      0.00150231067809
C   4.89300870916237      2.82518837202648     -0.00039219795739
C   -1.22669652864725     -3.54347062507680     -0.00753595973677
C   -3.68181849668397      0.70932533873199     -0.00807686886569
C   3.69314758099218     -3.54280096939050      0.00148176697923
C   -1.22143177215231      4.97012866986289      0.00168580605083
C   6.13477145276790      0.68054831910577     -0.00083909176631
C   3.65678936045204      4.97295361556775     -0.00065042889723
C   -2.45512642789169     -2.83421472106065      0.00758666850712
C   -3.68181869921921     -0.70932533146830      0.00810055625144
C   4.89301309775526     -2.82519973363176      0.00021895393805
C   -0.00000059327114      5.65044773803267      0.00045449734393
C   6.13477559217374     -0.68055448207492      0.00042622874941
C   2.47813196269732      5.65357712333155      0.00063835075260
C   1.22142288457925     -4.97012668293268     -0.00129718634452
C   -3.69316190412301      3.54279732619245     -0.00139355922051
C   -1.22142804110313     -4.97011793159564     -0.00140994817719
C   -4.91452132810043      1.42717581899491     -0.00153192130862
C   3.65678749952045     -4.97295485423912      0.00080007163680
C   -2.47813805026426      5.65357479452875      0.00092287576113
C   -3.69314125872231     -3.54278984697859      0.00136564082345
C   -4.91451200321153     -1.42718062802730      0.00139857359209
C   -0.00000552908399     -5.65043791501335      0.00005899322272
C   -4.89302000425900      2.82518897091939     -0.00040227981744
C   2.47812647313991     -5.65357317188818     -0.00029052915548
C   -3.65679823041642      4.97295655404175     -0.00047374852278
C   -4.89299899901461     -2.82519139505969      0.00006491824035
C   -2.47812801824129     -5.65356579800621     -0.00056571680280
C   -6.13477002348955      0.68054913825639     -0.00086464346868
C   -3.65678835334731     -4.97294365097028      0.00058578382008
C   -6.13476456307132     -0.68055354348201      0.00040575295444
H   5.83528897565761      3.36927626695423      0.00396712770529
H   7.07385965258860      1.22821762089947     -0.00037744837300
H   4.60066374401555      5.51238117445323     -0.00014522814529
H   5.83528386714679     -3.36930568472863     -0.00423551337640
H   -0.00001167146422      6.73853104613662     -0.00389474766392
H   7.07386165167227     -1.22822657074368     -0.00008250934481
H   2.47331421164041      6.74068466339473      0.00017162982210
H   4.60066897122302     -5.51237575717576      0.00039007446835
H   -2.47331820069565      6.74068209160650      0.00047297644710
H   -0.00000978838621     -6.73852780445195      0.00458867820736
H   -5.83530143450167      3.36927132229595      0.00410314985360
H   2.47330840367253     -6.74068500242887      0.00027980126949
H   -4.60067436136587      5.51237839860371      0.00002010017831
H   -5.83527902699321     -3.36928859177951     -0.00451481925734
H   -2.47329986759855     -6.74067870613986     -0.00016951527498
H   -7.07385728692578      1.22822084484047     -0.00046143985387
H   -4.60067330624313     -5.51236229778631      0.00021776644566
H   -7.07385645456741     -1.22822025997701     -0.00017736581114

    units angstrom      # Angstroms are the default
    no_reorient         # Geometry fixed, default
    symmetry c1         # C1 symmetry, default
}

set {
    scf_type DF         # Density fitting, faster than exact integrals
    freeze_core True    # Freeze core electrons
    basis jun-cc-pVDZ   # Jun-cc-pVDZ basis set, recommended for sSAPT0 in https://doi.org/10.1063/1.4867135
}

energy('ssapt0')        # Compute sSAPT0 energy, includes also SAPT0
--------------------------------------------------------------------------

  //              Dimer HF             //
    Molecular point group: c1
  Charge       = 1
  Multiplicity = 1
  Basis Set: JUN-CC-PVDZ
    Blend: JUN-CC-PVDZ
  Basis Set: (JUN-CC-PVDZ AUX)
    Blend: JUN-CC-PVDZ-JKFIT
  @DF-RHF Final Energy: -2359.20140443320543
    Total Energy =                      -2359.2014044332063349
 Dipole X            :         -0.0017754            0.0006313           -0.0011441
 Dipole Y            :         -5.6703706            7.4856329            1.8152623
 Dipole Z            :         23.0578539          -32.5168618           -9.4590079
 Magnitude           :                                                    9.6316151
  //            Monomer A HF           //
    Molecular point group: c1
  Multiplicity = 1
  Basis Set: JUN-CC-PVDZ
    Blend: JUN-CC-PVDZ
  Basis Set: (JUN-CC-PVDZ AUX)
    Blend: JUN-CC-PVDZ-JKFIT
  @DF-RHF Final Energy:  -303.29731541655940
    Total Energy =                       -303.2973154165593996
  //            Monomer B HF           //
    Molecular point group: c1

    Geometry (in Angstrom), charge = 0, multiplicity = 1:

       Center              X                  Y                   Z               Mass
    ------------   -----------------  -----------------  -----------------  -----------------
      Gh(C)           0.680066520158     1.235968212970    -6.976451766133    12.000000000000
      Gh(C)          -0.680504479842     1.237996212970    -6.976067766133    12.000000000000
      Gh(N)          -1.085635479842     1.238994212970    -5.657743766133    14.003074004430
      Gh(C)           0.000107520158     1.242270212970    -4.876342766133    12.000000000000
      Gh(C)          -2.477365479842     1.288400212970    -5.189764766133    12.000000000000
      Gh(N)           1.085221520158     1.238994212970    -5.657743766133    14.003074004430
      Gh(H)           1.385145520158     1.228140212970    -7.793890766133     1.007825032230
      Gh(H)          -1.385302479842     1.237806212970    -7.793736766133     1.007825032230
      Gh(H)          -0.000009479842     1.244017212970    -3.795253766133     1.007825032230
      Gh(C)           2.478116520158     1.222102212970    -5.192645766133    12.000000000000
      Gh(H)           2.490591520158     1.249447212970    -4.102392766133     1.007825032230
      Gh(H)           2.967027520158     0.308656212970    -5.539821766133     1.007825032230
      Gh(H)           3.001427520158     2.097585212970    -5.584117766133     1.007825032230
      Gh(H)          -2.857359479842     2.310471212970    -5.269723766133     1.007825032230
      Gh(H)          -3.082679479842     0.618316212970    -5.802828766133     1.007825032230
      Gh(H)          -2.518128479842     0.961416212970    -4.149816766133     1.007825032230
         C            1.225311895423     0.526248873889     0.845614861151    12.000000000000
         C            1.225323856051    -0.888828309601     0.833284051581    12.000000000000
         C           -0.000006153932     1.233676499060     0.832750428060    12.000000000000
         C            2.456448753949     1.237038472148     0.848501718551    12.000000000000
         C            0.000010827279    -1.596265913665     0.842949985385    12.000000000000
         C           -1.225300948908     0.526255958954     0.847866381474    12.000000000000
         C            2.456437755320    -1.599612718911     0.831038894724    12.000000000000
         C           -0.000001332978     2.655511616251     0.830346877926    12.000000000000
         C            3.681826697470     0.528028540971     0.831387684522    12.000000000000
         C            2.455120048865     2.652934246459     0.831285127561    12.000000000000
         C            3.681821105219    -0.890623254459     0.847460168540    12.000000000000
         C           -1.225313598688    -0.888816930574     0.834356813008    12.000000000000
         C            1.226699581202     3.362180068964     0.847644200471    12.000000000000
         C            0.000004784858    -3.018071554266     0.847798153006    12.000000000000
         C           -2.456436032848     1.237027503255     0.847901777319    12.000000000000
         C            2.455123417779    -3.015519443619     0.847308260173    12.000000000000
         C           -1.226714364589     3.362179648720     0.847747533690    12.000000000000
         C            4.914517295202     1.245883457459     0.837868367551    12.000000000000
         C            3.693150191476     3.361505877515     0.837918167188    12.000000000000
         C           -2.456437600068    -1.599602695869     0.831013856599    12.000000000000
         C            1.226704841943    -3.724763656937     0.831674069721    12.000000000000
         C           -2.455125398508     2.652927247604     0.831291503907    12.000000000000
         C            4.914524380782    -1.608476324974     0.840841110286    12.000000000000
         C            1.221424613699     4.788844650230     0.840979544546    12.000000000000
         C            4.893008229321     2.643898584996     0.839085035910    12.000000000000
         C           -1.226697008489    -3.724760412107     0.831941274131    12.000000000000
         C           -3.681818976526     0.528035551702     0.831400365002    12.000000000000
         C            3.693147101150    -3.724090756421     0.840959000847    12.000000000000
         C           -1.221432251994     4.788838882833     0.841163039918    12.000000000000
         C            6.134770972926     0.499258532075     0.838638142101    12.000000000000
         C            3.656788880610     4.791663828537     0.838826804970    12.000000000000
         C           -2.455126907733    -3.015504508091     0.847063902375    12.000000000000
         C           -3.681819179061    -0.890615118499     0.847577790119    12.000000000000
         C            4.893012617914    -3.006489520662     0.839696187806    12.000000000000
         C           -0.000001073113     5.469157951002     0.839931731211    12.000000000000
         C            6.134775112332    -0.861844269105     0.839903462617    12.000000000000
         C            2.478131482856     5.472287336301     0.840115584620    12.000000000000
         C            1.221422404738    -5.151416469963     0.838180047523    12.000000000000
         C           -3.693162383965     3.361507539162     0.838083674647    12.000000000000
         C           -1.221428520945    -5.151407718626     0.838067285690    12.000000000000
         C           -4.914521807942     1.245886031965     0.837945312559    12.000000000000
         C            3.656787019679    -5.154244641269     0.840277305504    12.000000000000
         C           -2.478138530106     5.472285007498     0.840400109629    12.000000000000
         C           -3.693141738564    -3.724079634009     0.840842874691    12.000000000000
         C           -4.914512483053    -1.608470415058     0.840875807460    12.000000000000
         C           -0.000006008926    -5.831727702044     0.839536227090    12.000000000000
         C           -4.893020484101     2.643899183889     0.839074954050    12.000000000000
         C            2.478125993298    -5.834862958919     0.839186704712    12.000000000000
         C           -3.656798710258     4.791666767011     0.839003485345    12.000000000000
         C           -4.892999478856    -3.006481182090     0.839542152108    12.000000000000
         C           -2.478128498083    -5.834855585037     0.838911517065    12.000000000000
         C           -6.134770503331     0.499259351226     0.838612590399    12.000000000000
         C           -3.656788833189    -5.154233438001     0.840063017688    12.000000000000
         C           -6.134765042913    -0.861843330512     0.839882986822    12.000000000000
         H            5.835288495816     3.187986479924     0.843444361573     1.007825032230
         H            7.073859172747     1.046927833869     0.839099785494     1.007825032230
         H            4.600663264174     5.331091387423     0.839332005722     1.007825032230
         H            5.835283387305    -3.550595471759     0.835241720491     1.007825032230
         H           -0.000012151306     6.557241259106     0.835582486204     1.007825032230
         H            7.073861171831    -1.409516357774     0.839394724523     1.007825032230
         H            2.473313731799     6.559394876364     0.839648863690     1.007825032230
         H            4.600668491381    -5.693665544206     0.839867308336     1.007825032230
         H           -2.473318680537     6.559392304576     0.839950210315     1.007825032230
         H           -0.000010268228    -6.919817591482     0.844065912075     1.007825032230
         H           -5.835301914343     3.187981535266     0.843580383721     1.007825032230
         H            2.473307923831    -6.921974789459     0.839757035137     1.007825032230
         H           -4.600674841208     5.331088611573     0.839497334046     1.007825032230
         H           -5.835279506835    -3.550578378810     0.834962414610     1.007825032230
         H           -2.473300347440    -6.921968493170     0.839307718592     1.007825032230
         H           -7.073857766768     1.046931057810     0.839015794014     1.007825032230
         H           -4.600673786085    -5.693652084817     0.839695000313     1.007825032230
         H           -7.073856934409    -1.409510047007     0.839299868056     1.007825032230

  Charge       = 0
  Multiplicity = 1
  Basis Set: JUN-CC-PVDZ
    Blend: JUN-CC-PVDZ
  Basis Set: (JUN-CC-PVDZ AUX)
    Blend: JUN-CC-PVDZ-JKFIT

    Orbital Energies [Eh]
    ---------------------

    Doubly Occupied:

       1A    -11.260615     2A    -11.260174     3A    -11.260170
       4A    -11.259464     5A    -11.259460     6A    -11.259292
       7A    -11.259083     8A    -11.259008     9A    -11.259003
      10A    -11.258681    11A    -11.258678    12A    -11.258610
      13A    -11.258547    14A    -11.258545    15A    -11.258538
      16A    -11.258511    17A    -11.258505    18A    -11.258488
      19A    -11.258477    20A    -11.258468    21A    -11.258464
      22A    -11.258365    23A    -11.258360    24A    -11.258061
      25A    -11.257404    26A    -11.257343    27A    -11.257339
      28A    -11.257206    29A    -11.257204    30A    -11.257121
      31A    -11.256498    32A    -11.256428    33A    -11.256426
      34A    -11.256319    35A    -11.256315    36A    -11.256270
      37A    -11.252361    38A    -11.252359    39A    -11.252347
      40A    -11.252345    41A    -11.252344    42A    -11.252342
      43A    -11.251488    44A    -11.251478    45A    -11.251476
      46A    -11.251469    47A    -11.251466    48A    -11.251458
      49A    -11.250923    50A    -11.250919    51A    -11.250909
      52A    -11.250907    53A    -11.250905    54A    -11.250903
      55A     -1.244198    56A     -1.219933    57A     -1.219932
      58A     -1.189649    59A     -1.189641    60A     -1.181075
      61A     -1.157655    62A     -1.149082    63A     -1.135620
      64A     -1.135610    65A     -1.113289    66A     -1.113283
      67A     -1.082546    68A     -1.082539    69A     -1.078724
      70A     -1.066073    71A     -1.066069    72A     -1.039502
      73A     -1.024399    74A     -1.021899    75A     -1.021854
      76A     -1.017819    77A     -1.012884    78A     -0.987138
      79A     -0.987089    80A     -0.961977    81A     -0.961927
      82A     -0.894393    83A     -0.894367    84A     -0.888067
      85A     -0.886315    86A     -0.886260    87A     -0.881513
      88A     -0.881466    89A     -0.862000    90A     -0.837491
      91A     -0.818312    92A     -0.816740    93A     -0.812252
      94A     -0.812244    95A     -0.794785    96A     -0.794774
      97A     -0.746745    98A     -0.744976    99A     -0.733539
     100A     -0.733534   101A     -0.732280   102A     -0.732257
     103A     -0.716614   104A     -0.699076   105A     -0.699061
     106A     -0.693696   107A     -0.693676   108A     -0.661328
     109A     -0.653241   110A     -0.651285   111A     -0.650348
     112A     -0.650342   113A     -0.639457   114A     -0.639452
     115A     -0.629828   116A     -0.627639   117A     -0.627623
     118A     -0.606478   119A     -0.605882   120A     -0.601776
     121A     -0.599844   122A     -0.599808   123A     -0.593740
     124A     -0.591355   125A     -0.591341   126A     -0.585359
     127A     -0.576428   128A     -0.576402   129A     -0.567413
     130A     -0.567397   131A     -0.566075   132A     -0.566059
     133A     -0.558849   134A     -0.554948   135A     -0.554944
     136A     -0.538689   137A     -0.538686   138A     -0.538256
     139A     -0.538251   140A     -0.529817   141A     -0.528189
     142A     -0.522976   143A     -0.522965   144A     -0.500598
     145A     -0.495679   146A     -0.493333   147A     -0.487907
     148A     -0.485181   149A     -0.481864   150A     -0.481858
     151A     -0.470393   152A     -0.470380   153A     -0.451151
     154A     -0.451075   155A     -0.439144   156A     -0.439135
     157A     -0.404818   158A     -0.404797   159A     -0.403443
     160A     -0.375498   161A     -0.375493   162A     -0.349198
     163A     -0.337659   164A     -0.336629   165A     -0.336568
     166A     -0.311174   167A     -0.298166   168A     -0.284422
     169A     -0.284372   170A     -0.224996   171A     -0.224930

  @DF-RHF Final Energy: -2055.89235560398492

   => Energetics <=

    Nuclear Repulsion Energy =           6452.5568002797781446
    One-Electron Energy =              -15636.4502525468469685
    Two-Electron Energy =                7128.0010966630825351
    Total Energy =                      -2055.8923556039853793
 Dipole X            :          0.0001489           -0.0000085            0.0001404
 Dipole Y            :        117.1670254         -117.1648546            0.0021708
 Dipole Z            :       -542.5338956          542.5412217            0.0073261
 Magnitude           :                                                    0.0076423

    SAPT Results
  --------------------------------------------------------------------------------------------------------
    Electrostatics                 -8.36402035 [mEh]      -5.24850201 [kcal/mol]     -21.95973241 [kJ/mol]
      Elst10,r                     -8.36402035 [mEh]      -5.24850201 [kcal/mol]     -21.95973241 [kJ/mol]

    Exchange                        0.00398501 [mEh]       0.00250063 [kcal/mol]       0.01046264 [kJ/mol]
      Exch10                        0.00398501 [mEh]       0.00250063 [kcal/mol]       0.01046264 [kJ/mol]
      Exch10(S^2)                   0.00398500 [mEh]       0.00250062 [kcal/mol]       0.01046261 [kJ/mol]

    Induction                      -3.37337732 [mEh]      -2.11682623 [kcal/mol]      -8.85680093 [kJ/mol]
      Ind20,r                      -3.28033256 [mEh]      -2.05843976 [kcal/mol]      -8.61251196 [kJ/mol]
      Exch-Ind20,r                  0.00206570 [mEh]       0.00129624 [kcal/mol]       0.00542349 [kJ/mol]
      delta HF,r (2)               -0.09511045 [mEh]      -0.05968271 [kcal/mol]      -0.24971246 [kJ/mol]

    Dispersion                     -2.08514911 [mEh]      -1.30845082 [kcal/mol]      -5.47455823 [kJ/mol]
      Disp20                       -2.08615068 [mEh]      -1.30907932 [kcal/mol]      -5.47718786 [kJ/mol]
      Exch-Disp20                   0.00100158 [mEh]       0.00062850 [kcal/mol]       0.00262964 [kJ/mol]
      Disp20 (SS)                  -1.04307534 [mEh]      -0.65453966 [kcal/mol]      -2.73859393 [kJ/mol]
      Disp20 (OS)                  -1.04307534 [mEh]      -0.65453966 [kcal/mol]      -2.73859393 [kJ/mol]
      Exch-Disp20 (SS)              0.00071252 [mEh]       0.00044711 [kcal/mol]       0.00187071 [kJ/mol]
      Exch-Disp20 (OS)              0.00028906 [mEh]       0.00018139 [kcal/mol]       0.00075893 [kJ/mol]

  Total HF                        -11.73341266 [mEh]      -7.36282760 [kcal/mol]     -30.80607070 [kJ/mol]
  Total SAPT0                     -13.81856177 [mEh]      -8.67127842 [kcal/mol]     -36.28062892 [kJ/mol]

  Special recipe for scaled SAPT0 (see Manual):
    Electrostatics sSAPT0          -8.36402035 [mEh]      -5.24850201 [kcal/mol]     -21.95973241 [kJ/mol]
    Exchange sSAPT0                 0.00398501 [mEh]       0.00250063 [kcal/mol]       0.01046264 [kJ/mol]
    Induction sSAPT0               -3.37337732 [mEh]      -2.11682623 [kcal/mol]      -8.85680093 [kJ/mol]
    Dispersion sSAPT0              -2.08514911 [mEh]      -1.30845082 [kcal/mol]      -5.47455823 [kJ/mol]
  Total sSAPT0                    -13.81856177 [mEh]      -8.67127842 [kcal/mol]     -36.28062892 [kJ/mol]
  --------------------------------------------------------------------------------------------------------

*** Psi4 exiting successfully. Buy a developer a beer!
