                               Psi4 1.9 release

  ==> Input File <==

--------------------------------------------------------------------------
memory 48 GB # how much memory is available ! Depends on the nodes/cores !

molecule dimer {
# monomer A
+1 1    # Charge and multiplicity
C  0.680067 1.417258 -6.115929
C -0.680504 1.419286 -6.115545
N -1.085635 1.420284 -4.797221
C  0.000108 1.423560 -4.015820
C -2.477365 1.469690 -4.329242
N  1.085222 1.420284 -4.797221
H  1.385146 1.409430 -6.933368
H -1.385302 1.419096 -6.933214
H -0.000009 1.425307 -2.934731
C  2.478117 1.403392 -4.332123
H  2.490592 1.430737 -3.241870
H  2.967028 0.489946 -4.679299
H  3.001428 2.278875 -4.723595
H -2.857359 2.491761 -4.409201
H -3.082679 0.799606 -4.942306
H -2.518128 1.142706 -3.289294
--
# monomer B
0 1     # Charge and multiplicity
C   1.22531237526482      0.70753866091955      0.00613762728373
C   1.22532433589282     -0.70753852257020     -0.00619318228664
C   -0.00000567409046      1.41496628609039     -0.00672680580738
C   2.45644923379077      1.41832825917820      0.00902448468363
C   0.00001130712078     -1.41497612663474      0.00347275151708
C   -1.22530046906674      0.70754574598412      0.00838914760619
C   2.45643823516184     -1.41832293188077     -0.00843833914343
C   -0.00000085313587      2.83680140328112     -0.00913035594137
C   3.68182717731192      0.70931832800114     -0.00808954934571
C   2.45512052870677      2.83422403348893     -0.00819210630633
C   3.68182158506039     -0.70933346742900      0.00798293467272
C   -1.22531311884624     -0.70752714354401     -0.00512042085974
C   1.22670006104402      3.54346985599427      0.00816696660346
C   0.00000526469929     -2.83678176723568      0.00832091913869
C   -2.45643555300670      1.41831729028492      0.00842454345199
C   2.45512389762097     -2.83422965658853      0.00783102630520
C   -1.22671388474763      3.54346943575023      0.00827029982280
C   4.91451777504333      1.42717324448953     -0.00160886631602
C   3.69315067131765      3.54279566454522     -0.00155906667985
C   -2.45643712022637     -1.41831290883911     -0.00846337726810
C   1.22670532178455     -3.54347386990643     -0.00780316414624
C   -2.45512491866593      2.83421703463423     -0.00818572995999
C   4.91452486062398     -1.42718653794377      0.00136387641845
C   1.22142509354026      4.97013443726031      0.00150231067809
C   4.89300870916237      2.82518837202648     -0.00039219795739
C   -1.22669652864725     -3.54347062507680     -0.00753595973677
C   -3.68181849668397      0.70932533873199     -0.00807686886569
C   3.69314758099218     -3.54280096939050      0.00148176697923
C   -1.22143177215231      4.97012866986289      0.00168580605083
C   6.13477145276790      0.68054831910577     -0.00083909176631
C   3.65678936045204      4.97295361556775     -0.00065042889723
C   -2.45512642789169     -2.83421472106065      0.00758666850712
C   -3.68181869921921     -0.70932533146830      0.00810055625144
C   4.89301309775526     -2.82519973363176      0.00021895393805
C   -0.00000059327114      5.65044773803267      0.00045449734393
C   6.13477559217374     -0.68055448207492      0.00042622874941
C   2.47813196269732      5.65357712333155      0.00063835075260
C   1.22142288457925     -4.97012668293268     -0.00129718634452
C   -3.69316190412301      3.54279732619245     -0.00139355922051
C   -1.22142804110313     -4.97011793159564     -0.00140994817719
C   -4.91452132810043      1.42717581899491     -0.00153192130862
C   3.65678749952045     -4.97295485423912      0.00080007163680
C   -2.47813805026426      5.65357479452875      0.00092287576113
C   -3.69314125872231     -3.54278984697859      0.00136564082345
C   -4.91451200321153     -1.42718062802730      0.00139857359209
C   -0.00000552908399     -5.65043791501335      0.00005899322272
C   -4.89302000425900      2.82518897091939     -0.00040227981744
C   2.47812647313991     -5.65357317188818     -0.00029052915548
C   -3.65679823041642      4.97295655404175     -0.00047374852278
C   -4.89299899901461     -2.82519139505969      0.00006491824035
C   -2.47812801824129     -5.65356579800621     -0.00056571680280
C   -6.13477002348955      0.68054913825639     -0.00086464346868
C   -3.65678835334731     -4.97294365097028      0.00058578382008
C   -6.13476456307132     -0.68055354348201      0.00040575295444
H   5.83528897565761      3.36927626695423      0.00396712770529
H   7.07385965258860      1.22821762089947     -0.00037744837300
H   4.60066374401555      5.51238117445323     -0.00014522814529
H   5.83528386714679     -3.36930568472863     -0.00423551337640
H   -0.00001167146422      6.73853104613662     -0.00389474766392
H   7.07386165167227     -1.22822657074368     -0.00008250934481
H   2.47331421164041      6.74068466339473      0.00017162982210
H   4.60066897122302     -5.51237575717576      0.00039007446835
H   -2.47331820069565      6.74068209160650      0.00047297644710
H   -0.00000978838621     -6.73852780445195      0.00458867820736
H   -5.83530143450167      3.36927132229595      0.00410314985360
H   2.47330840367253     -6.74068500242887      0.00027980126949
H   -4.60067436136587      5.51237839860371      0.00002010017831
H   -5.83527902699321     -3.36928859177951     -0.00451481925734
H   -2.47329986759855     -6.74067870613986     -0.00016951527498
H   -7.07385728692578      1.22822084484047     -0.00046143985387
H   -4.60067330624313     -5.51236229778631      0.00021776644566
H   -7.07385645456741     -1.22822025997701     -0.00017736581114

    units angstrom      # Angstroms are the default
    no_reorient         # Geometry fixed, default
    symmetry c1         # C1 symmetry, default
}

set {
    scf_type DF         # Density fitting, faster than exact integrals
    freeze_core True    # Freeze core electrons
    basis jun-cc-pVDZ   # Jun-cc-pVDZ basis set, recommended for sSAPT0 in https://doi.org/10.1063/1.4867135
}

energy('ssapt0')        # Compute sSAPT0 energy, includes also SAPT0
--------------------------------------------------------------------------

  //              Dimer HF             //
    Molecular point group: c1
  Charge       = 1
  Multiplicity = 1
  Basis Set: JUN-CC-PVDZ
    Blend: JUN-CC-PVDZ
  Basis Set: (JUN-CC-PVDZ AUX)
    Blend: JUN-CC-PVDZ-JKFIT
  @DF-RHF Final Energy: -2359.21165553703440
    Total Energy =                      -2359.2116555370339483
 Dipole X            :         -0.0023278            0.0006313           -0.0016965
 Dipole Y            :         -5.9541325            7.4856329            1.5315005
 Dipole Z            :         17.4435749          -23.6553308           -6.2117559
 Magnitude           :                                                    6.3977658
  //            Monomer A HF           //
    Molecular point group: c1
  Multiplicity = 1
  Basis Set: JUN-CC-PVDZ
    Blend: JUN-CC-PVDZ
  Basis Set: (JUN-CC-PVDZ AUX)
    Blend: JUN-CC-PVDZ-JKFIT
  @DF-RHF Final Energy:  -303.29783449996842
    Total Energy =                       -303.2978344999684168
  //            Monomer B HF           //
    Molecular point group: c1

    Geometry (in Angstrom), charge = 0, multiplicity = 1:

       Center              X                  Y                   Z               Mass
    ------------   -----------------  -----------------  -----------------  -----------------
      Gh(C)           0.680066520158     1.235968212970    -5.492681335119    12.000000000000
      Gh(C)          -0.680504479842     1.237996212970    -5.492297335119    12.000000000000
      Gh(N)          -1.085635479842     1.238994212970    -4.173973335119    14.003074004430
      Gh(C)           0.000107520158     1.242270212970    -3.392572335119    12.000000000000
      Gh(C)          -2.477365479842     1.288400212970    -3.705994335119    12.000000000000
      Gh(N)           1.085221520158     1.238994212970    -4.173973335119    14.003074004430
      Gh(H)           1.385145520158     1.228140212970    -6.310120335119     1.007825032230
      Gh(H)          -1.385302479842     1.237806212970    -6.309966335119     1.007825032230
      Gh(H)          -0.000009479842     1.244017212970    -2.311483335119     1.007825032230
      Gh(C)           2.478116520158     1.222102212970    -3.708875335119    12.000000000000
      Gh(H)           2.490591520158     1.249447212970    -2.618622335119     1.007825032230
      Gh(H)           2.967027520158     0.308656212970    -4.056051335119     1.007825032230
      Gh(H)           3.001427520158     2.097585212970    -4.100347335119     1.007825032230
      Gh(H)          -2.857359479842     2.310471212970    -3.785953335119     1.007825032230
      Gh(H)          -3.082679479842     0.618316212970    -4.319058335119     1.007825032230
      Gh(H)          -2.518128479842     0.961416212970    -2.666046335119     1.007825032230
         C            1.225311895423     0.526248873889     0.629385292165    12.000000000000
         C            1.225323856051    -0.888828309601     0.617054482595    12.000000000000
         C           -0.000006153932     1.233676499060     0.616520859074    12.000000000000
         C            2.456448753949     1.237038472148     0.632272149565    12.000000000000
         C            0.000010827279    -1.596265913665     0.626720416398    12.000000000000
         C           -1.225300948908     0.526255958954     0.631636812487    12.000000000000
         C            2.456437755320    -1.599612718911     0.614809325738    12.000000000000
         C           -0.000001332978     2.655511616251     0.614117308940    12.000000000000
         C            3.681826697470     0.528028540971     0.615158115535    12.000000000000
         C            2.455120048865     2.652934246459     0.615055558575    12.000000000000
         C            3.681821105219    -0.890623254459     0.631230599554    12.000000000000
         C           -1.225313598688    -0.888816930574     0.618127244021    12.000000000000
         C            1.226699581202     3.362180068964     0.631414631485    12.000000000000
         C            0.000004784858    -3.018071554266     0.631568584020    12.000000000000
         C           -2.456436032848     1.237027503255     0.631672208333    12.000000000000
         C            2.455123417779    -3.015519443619     0.631078691186    12.000000000000
         C           -1.226714364589     3.362179648720     0.631517964704    12.000000000000
         C            4.914517295202     1.245883457459     0.621638798565    12.000000000000
         C            3.693150191476     3.361505877515     0.621688598201    12.000000000000
         C           -2.456437600068    -1.599602695869     0.614784287613    12.000000000000
         C            1.226704841943    -3.724763656937     0.615444500735    12.000000000000
         C           -2.455125398508     2.652927247604     0.615061934921    12.000000000000
         C            4.914524380782    -1.608476324974     0.624611541300    12.000000000000
         C            1.221424613699     4.788844650230     0.624749975559    12.000000000000
         C            4.893008229321     2.643898584996     0.622855466924    12.000000000000
         C           -1.226697008489    -3.724760412107     0.615711705144    12.000000000000
         C           -3.681818976526     0.528035551702     0.615170796015    12.000000000000
         C            3.693147101150    -3.724090756421     0.624729431860    12.000000000000
         C           -1.221432251994     4.788838882833     0.624933470932    12.000000000000
         C            6.134770972926     0.499258532075     0.622408573115    12.000000000000
         C            3.656788880610     4.791663828537     0.622597235984    12.000000000000
         C           -2.455126907733    -3.015504508091     0.630834333388    12.000000000000
         C           -3.681819179061    -0.890615118499     0.631348221133    12.000000000000
         C            4.893012617914    -3.006489520662     0.623466618819    12.000000000000
         C           -0.000001073113     5.469157951002     0.623702162225    12.000000000000
         C            6.134775112332    -0.861844269105     0.623673893631    12.000000000000
         C            2.478131482856     5.472287336301     0.623886015634    12.000000000000
         C            1.221422404738    -5.151416469963     0.621950478537    12.000000000000
         C           -3.693162383965     3.361507539162     0.621854105661    12.000000000000
         C           -1.221428520945    -5.151407718626     0.621837716704    12.000000000000
         C           -4.914521807942     1.245886031965     0.621715743573    12.000000000000
         C            3.656787019679    -5.154244641269     0.624047736518    12.000000000000
         C           -2.478138530106     5.472285007498     0.624170540642    12.000000000000
         C           -3.693141738564    -3.724079634009     0.624613305705    12.000000000000
         C           -4.914512483053    -1.608470415058     0.624646238473    12.000000000000
         C           -0.000006008926    -5.831727702044     0.623306658104    12.000000000000
         C           -4.893020484101     2.643899183889     0.622845385064    12.000000000000
         C            2.478125993298    -5.834862958919     0.622957135726    12.000000000000
         C           -3.656798710258     4.791666767011     0.622773916358    12.000000000000
         C           -4.892999478856    -3.006481182090     0.623312583122    12.000000000000
         C           -2.478128498083    -5.834855585037     0.622681948078    12.000000000000
         C           -6.134770503331     0.499259351226     0.622383021413    12.000000000000
         C           -3.656788833189    -5.154233438001     0.623833448701    12.000000000000
         C           -6.134765042913    -0.861843330512     0.623653417836    12.000000000000
         H            5.835288495816     3.187986479924     0.627214792586     1.007825032230
         H            7.073859172747     1.046927833869     0.622870216508     1.007825032230
         H            4.600663264174     5.331091387423     0.623102436736     1.007825032230
         H            5.835283387305    -3.550595471759     0.619012151505     1.007825032230
         H           -0.000012151306     6.557241259106     0.619352917217     1.007825032230
         H            7.073861171831    -1.409516357774     0.623165155536     1.007825032230
         H            2.473313731799     6.559394876364     0.623419294703     1.007825032230
         H            4.600668491381    -5.693665544206     0.623637739350     1.007825032230
         H           -2.473318680537     6.559392304576     0.623720641328     1.007825032230
         H           -0.000010268228    -6.919817591482     0.627836343089     1.007825032230
         H           -5.835301914343     3.187981535266     0.627350814735     1.007825032230
         H            2.473307923831    -6.921974789459     0.623527466151     1.007825032230
         H           -4.600674841208     5.331088611573     0.623267765059     1.007825032230
         H           -5.835279506835    -3.550578378810     0.618732845624     1.007825032230
         H           -2.473300347440    -6.921968493170     0.623078149606     1.007825032230
         H           -7.073857766768     1.046931057810     0.622786225027     1.007825032230
         H           -4.600673786085    -5.693652084817     0.623465431327     1.007825032230
         H           -7.073856934409    -1.409510047007     0.623070299070     1.007825032230

  Charge       = 0
  Multiplicity = 1
  Basis Set: JUN-CC-PVDZ
    Blend: JUN-CC-PVDZ
  Basis Set: (JUN-CC-PVDZ AUX)
    Blend: JUN-CC-PVDZ-JKFIT

    Orbital Energies [Eh]
    ---------------------

    Doubly Occupied:

       1A    -11.260578     2A    -11.260126     3A    -11.260119
       4A    -11.259432     5A    -11.259418     6A    -11.259232
       7A    -11.259037     8A    -11.258961     9A    -11.258916
      10A    -11.258604    11A    -11.258590    12A    -11.258513
      13A    -11.258452    14A    -11.258448    15A    -11.258443
      16A    -11.258413    17A    -11.258406    18A    -11.258393
      19A    -11.258388    20A    -11.258381    21A    -11.258365
      22A    -11.258294    23A    -11.258282    24A    -11.257999
      25A    -11.257321    26A    -11.257267    27A    -11.257247
      28A    -11.257135    29A    -11.257119    30A    -11.257038
      31A    -11.256417    32A    -11.256355    33A    -11.256338
      34A    -11.256242    35A    -11.256235    36A    -11.256177
      37A    -11.252269    38A    -11.252266    39A    -11.252234
      40A    -11.252229    41A    -11.252227    42A    -11.252224
      43A    -11.251380    44A    -11.251365    45A    -11.251364
      46A    -11.251358    47A    -11.251356    48A    -11.251335
      49A    -11.250830    50A    -11.250827    51A    -11.250795
      52A    -11.250790    53A    -11.250788    54A    -11.250785
      55A     -1.244004    56A     -1.219765    57A     -1.219741
      58A     -1.189488    59A     -1.189469    60A     -1.180883
      61A     -1.157499    62A     -1.148921    63A     -1.135442
      64A     -1.135413    65A     -1.113134    66A     -1.113130
      67A     -1.082365    68A     -1.082363    69A     -1.078540
      70A     -1.065925    71A     -1.065918    72A     -1.039334
      73A     -1.024209    74A     -1.021711    75A     -1.021647
      76A     -1.017666    77A     -1.012739    78A     -0.986961
      79A     -0.986906    80A     -0.961821    81A     -0.961769
      82A     -0.894226    83A     -0.894203    84A     -0.887861
      85A     -0.886110    86A     -0.886062    87A     -0.881325
      88A     -0.881277    89A     -0.861836    90A     -0.837351
      91A     -0.818141    92A     -0.816545    93A     -0.812063
      94A     -0.812061    95A     -0.794629    96A     -0.794614
      97A     -0.746547    98A     -0.744786    99A     -0.733346
     100A     -0.733341   101A     -0.732119   102A     -0.732094
     103A     -0.716429   104A     -0.698913   105A     -0.698886
     106A     -0.693526   107A     -0.693490   108A     -0.661168
     109A     -0.653046   110A     -0.651086   111A     -0.650192
     112A     -0.650182   113A     -0.639301   114A     -0.639280
     115A     -0.629644   116A     -0.627449   117A     -0.627440
     118A     -0.606437   119A     -0.605755   120A     -0.601585
     121A     -0.599683   122A     -0.599622   123A     -0.593555
     124A     -0.591152   125A     -0.591123   126A     -0.585221
     127A     -0.576458   128A     -0.576357   129A     -0.567264
     130A     -0.567242   131A     -0.565888   132A     -0.565873
     133A     -0.558653   134A     -0.554785   135A     -0.554781
     136A     -0.538529   137A     -0.538527   138A     -0.538214
     139A     -0.538202   140A     -0.529646   141A     -0.528141
     142A     -0.522811   143A     -0.522786   144A     -0.500439
     145A     -0.495599   146A     -0.493169   147A     -0.487835
     148A     -0.484995   149A     -0.481681   150A     -0.481680
     151A     -0.470315   152A     -0.470315   153A     -0.450939
     154A     -0.450871   155A     -0.439048   156A     -0.439040
     157A     -0.404726   158A     -0.404706   159A     -0.403334
     160A     -0.375398   161A     -0.375389   162A     -0.349094
     163A     -0.337592   164A     -0.336533   165A     -0.336466
     166A     -0.311069   167A     -0.298068   168A     -0.284324
     169A     -0.284268   170A     -0.224884   171A     -0.224824

  @DF-RHF Final Energy: -2055.89427471459248

   => Energetics <=

    Nuclear Repulsion Energy =           6452.5568002797781446
    One-Electron Energy =              -15636.4994586388111202
    Two-Electron Energy =                7128.0483836444391272
    Total Energy =                      -2055.8942747145929388
 Dipole X            :         -0.0001224           -0.0000085           -0.0001309
 Dipole Y            :        117.1714232         -117.1648546            0.0065686
 Dipole Z            :       -402.7906317          402.7950061            0.0043745
 Magnitude           :                                                    0.0078930

    SAPT Results
  --------------------------------------------------------------------------------------------------------
    Electrostatics                -12.30801614 [mEh]      -7.72339673 [kcal/mol]     -32.31469193 [kJ/mol]
      Elst10,r                    -12.30801614 [mEh]      -7.72339673 [kcal/mol]     -32.31469193 [kJ/mol]

    Exchange                        2.29899801 [mEh]       1.44264303 [kcal/mol]       6.03601845 [kJ/mol]
      Exch10                        2.29899801 [mEh]       1.44264303 [kcal/mol]       6.03601845 [kJ/mol]
      Exch10(S^2)                   2.29720821 [mEh]       1.44151992 [kcal/mol]       6.03131933 [kJ/mol]

    Induction                      -9.53730434 [mEh]      -5.98474883 [kcal/mol]     -25.04018910 [kJ/mol]
      Ind20,r                      -9.12138519 [mEh]      -5.72375562 [kcal/mol]     -23.94819352 [kJ/mol]
      Exch-Ind20,r                  0.52512989 [mEh]       0.32952398 [kcal/mol]       1.37872835 [kJ/mol]
      delta HF,r (2)               -0.94104905 [mEh]      -0.59051719 [kcal/mol]      -2.47072393 [kJ/mol]

    Dispersion                    -10.34677081 [mEh]      -6.49269670 [kcal/mol]     -27.16544301 [kJ/mol]
      Disp20                      -10.57709056 [mEh]      -6.63722453 [kcal/mol]     -27.77014745 [kJ/mol]
      Exch-Disp20                   0.23031976 [mEh]       0.14452783 [kcal/mol]       0.60470444 [kJ/mol]
      Disp20 (SS)                  -5.28854528 [mEh]      -3.31861227 [kcal/mol]     -13.88507373 [kJ/mol]
      Disp20 (OS)                  -5.28854528 [mEh]      -3.31861227 [kcal/mol]     -13.88507373 [kJ/mol]
      Exch-Disp20 (SS)              0.14551310 [mEh]       0.09131085 [kcal/mol]       0.38204459 [kJ/mol]
      Exch-Disp20 (OS)              0.08480666 [mEh]       0.05321698 [kcal/mol]       0.22265985 [kJ/mol]

  Total HF                        -19.54632247 [mEh]     -12.26550253 [kcal/mol]     -51.31886258 [kJ/mol]
  Total SAPT0                     -29.89309328 [mEh]     -18.75819923 [kcal/mol]     -78.48430560 [kJ/mol]

  Special recipe for scaled SAPT0 (see Manual):
    Electrostatics sSAPT0         -12.30801614 [mEh]      -7.72339673 [kcal/mol]     -32.31469193 [kJ/mol]
    Exchange sSAPT0                 2.29899801 [mEh]       1.44264303 [kcal/mol]       6.03601845 [kJ/mol]
    Induction sSAPT0               -9.53607597 [mEh]      -5.98397801 [kcal/mol]     -25.03696401 [kJ/mol]
    Dispersion sSAPT0             -10.34623205 [mEh]      -6.49235863 [kcal/mol]     -27.16402850 [kJ/mol]
  Total sSAPT0                    -29.89132615 [mEh]     -18.75709034 [kcal/mol]     -78.47966599 [kJ/mol]
  --------------------------------------------------------------------------------------------------------

*** Psi4 exiting successfully. Buy a developer a beer!
