                               Psi4 1.9 release

  ==> Input File <==

--------------------------------------------------------------------------
memory 64 GB # how much memory is available ! Depends on the nodes/cores !

molecule dimer {
# monomer A
+1 1    # Charge and multiplicity
C  0.680067 -0.008042 -7.215929
C -0.680504 -0.006014 -7.215545
N -1.085635 -0.005016 -5.897221
C  0.000108 -0.001740 -5.115820
C -2.477365  0.044390 -5.429242
N  1.085222 -0.005016 -5.897221
H  1.385146 -0.015870 -8.033368
H -1.385302 -0.006204 -8.033214
H -0.000009  0.000007 -4.034731
C  2.478117 -0.021908 -5.432123
H  2.490592  0.005437 -4.341870
H  2.967028 -0.935354 -5.779299
H  3.001428  0.853575 -5.823595
H -2.857359  1.066461 -5.509201
H -3.082679 -0.625694 -6.042306
H -2.518128 -0.282594 -4.389294
--
# monomer B
0 1     # Charge and multiplicity
C   -3.66844126402057      7.80375217008252      0.00190004133558
C   -4.84759871934653      7.13124183134024     -0.00046653359696
C   -4.89495929917518      5.69633040353158     -0.00103944469517
C   -3.65374067877320      4.98073034095895      0.00662099703436
C   -2.40942512149445      7.11398103667468      0.00209438359570
C   -2.42547734410473      5.68112195090346     -0.00491050527438
C   -1.19474401643570      7.78614419430947      0.00356656413763
C   0.03795902893699      7.09942164575698      0.00139585983271
C   0.03033258741920      5.66948955970466     -0.00408752508301
C   -1.20098450790502      4.96927034791531      0.00488220885047
C   1.27795782581485      7.77285944319479      0.00277170839332
C   2.48535808472416      7.08769688523756      0.00049722048857
C   2.48612868491717      5.65477081024076     -0.00644052849921
C   1.25408291964399      4.95607811366431      0.00518741308898
C   3.75171459140595      7.76391215098033      0.00062407186893
C   4.92356605618520      7.07878077698995     -0.00143240883900
C   4.95560727132542      5.64344746336949     -0.00159282164606
C   3.70680153420475      4.94121020833308      0.00349873852374
H   -3.65852113775815      8.89082741913536      0.00358502958574
H   -1.18921332975660      8.87412108735996      0.00753844057883
H   1.28429423888630      8.86083343548850      0.00693053253426
H   3.75354208679975      8.85103527897216      0.00214659618464
H   5.86995870320703      7.61379483465560     -0.00235777588134
H   -5.78823170750226      7.67630221293400     -0.00202638095293
C   -6.09197395869619      4.99326001364347     -0.00291168518608
C   -6.12866148031747      3.58258016879823     -0.00171050815740
C   -3.66457974004527      3.56418217974434     -0.00463560277484
C   -4.89429820469869      2.86108077590057      0.00453338221034
C   -2.43733499489796      2.84761165708481      0.00719617576166
C   -1.20922785759670      3.54788693497833     -0.00648285103018
C   1.24714157216223      3.53468075142962     -0.00729145743546
C   0.01517603956900      2.83311183930540      0.00439272578912
C   2.46764517244071      2.82128997725533      0.00449278391269
C   3.70254947457969      3.52466015442405     -0.00899517692985
C   6.14498038638375      4.92757236613191     -0.00282626685777
C   6.16658835886151      3.51658447594213     -0.00065971342101
C   4.92460995845939      2.80840792535402      0.00587903281610
H   7.08990550964105      5.46688776622306     -0.00658814770723
H   -7.03104175110130      5.54268795285765     -0.00714490013730
C   -7.33969804112295      2.85841153457957     -0.00333767559888
C   -7.36488195805880      1.47032337158330     -0.00157213747140
C   -4.90350460894690      1.44442681216000     -0.00628840166334
C   -6.13225715261081      0.73993935705394      0.00600164231964
C   -3.67687480051673      0.72669714267312      0.00433931473643
C   -2.44565658606518      1.42964113326212     -0.00597039546461
C   -1.22360068130162      0.71532450163492      0.00545886906656
C   0.00763786931376      1.41738314923765      0.00392452278437
C   1.23121980774686      0.70211669058719     -0.01490206287210
C   2.46082110053113      1.40329203612573      0.00460244601878
C   3.68443025419614      0.68719842821222      0.00377365974158
C   4.91870890153864      1.39173456118907     -0.00862816189375
C   7.36980207796101      2.77948220318441     -0.00242013321349
C   7.38016266612146      1.39121750785509     -0.00087345036788
C   6.13979953912259      0.67411862320065      0.00545489144369
H   -8.27919079934664      3.40711804112415     -0.00763522772059
H   8.31511347147953      3.31811809662368     -0.00663070901292
C   -8.59175593758115      0.72483255304480     -0.00123170985383
C   -8.59902460370342     -0.63263980622873      0.00089141472904
C   -6.13981313911873     -0.67413663715361     -0.00609792660607
C   -7.38018411213749     -1.39126618958160      0.00131813493501
C   -4.91868448025621     -1.39175501803000      0.00624257154343
C   -3.68443829568458     -0.68723731573599     -0.00478966852105
C   -2.46081704024768     -1.40334517882457      0.00575341766833
C   -1.23116201232071     -0.70217386488055     -0.00636696112346
C   -0.00756962538737     -1.41741884941102      0.00108956317991
C   1.22364771588843     -0.71527537726392      0.01109518512883
C   2.44567064933149     -1.42964328900682     -0.00065482763106
C   3.67686670284649     -0.72670743155550     -0.00479541202602
C   6.13224884641929     -0.73997883984993     -0.00632338623858
C   4.90351914550401     -1.44445752054090      0.00751768830159
C   8.59901484869081      0.63260386666793     -0.00101133422380
C   8.59174548810050     -0.72485086719319      0.00072504603735
C   7.36486276438985     -1.47033266560598      0.00049486934466
H   -9.52830597181814      1.27684744919284     -0.00270163681798
H   9.54141097460619      1.17457248844457     -0.00206336648518
C   -7.36983790976868     -2.77954514593389      0.00312634335708
C   -4.92459910905015     -2.80843725734101     -0.00460528907921
C   -6.16662249566744     -3.51665219282533      0.00169655107992
C   -3.70251035970491     -3.52468154912026      0.00571878010666
C   -2.46764698511392     -2.82132596280400     -0.00632585824990
C   -0.01513347410770     -2.83314164539971     -0.00604426974092
C   -1.24712184122656     -3.53473217556300      0.00551968366725
C   1.20924506964357     -3.54791467864352      0.00805871345849
C   2.43733602215464     -2.84764173817541     -0.00608104485234
C   4.89430234377080     -2.86112296828604     -0.00526030478103
C   3.66461525504104     -3.56421984553201      0.00761911515957
C   6.12863901474565     -3.58258405771778      0.00096495711699
C   7.33967266469532     -2.85841330737039      0.00248018319869
H   -9.54144911125902     -1.17456346666430      0.00226083090216
H   9.52826186807155     -1.27691907390448      0.00197485379837
H   -8.31516504384864     -3.31814985321231      0.00729857188773
H   8.27915514249207     -3.40714078989363      0.00681973918158
C   -6.14499418870218     -4.92764727278338      0.00302254913999
C   -3.70678334799751     -4.94126171411716     -0.00679841894792
C   -4.95559005800169     -5.64349397349412      0.00116871569699
C   -2.48612132622665     -5.65478557440947      0.00614125209662
C   -1.25405833548005     -4.95612205000132     -0.00503435388927
C   1.20101257386816     -4.96928038819302     -0.00385322963129
C   -0.03033667441341     -5.66952030313900      0.00398997003238
C   3.65375010132847     -4.98074377541453     -0.00309522988330
C   2.42549269587528     -5.68117463552727      0.00628170066869
C   6.09196561781097     -4.99325796338655      0.00325918379042
C   4.89497644461045     -5.69634842095790      0.00202298796027
H   -7.08989238804069     -5.46699984223871      0.00742531082125
H   7.03105520920009     -5.54265853633254      0.00683896355417
C   -4.92354532219813     -7.07882109967734      0.00061394679214
C   -2.48534208823777     -7.08772807792913     -0.00189594564379
C   -3.75168589177895     -7.76394715763627     -0.00170126671874
C   -0.03794895698805     -7.09946487446944     -0.00168022049625
C   -1.27795610040136     -7.77290438466689     -0.00366491325785
C   2.40944432072629     -7.11402201200282     -0.00081701968533
C   1.19474993715296     -7.78618536556242     -0.00296931056689
C   4.84762105249800     -7.13126211057943      0.00168979497423
C   3.66847160587561     -7.80378799294376     -0.00065863938960
H   -5.86994035041618     -7.61383059804164      0.00215798365757
H   5.78824962538815     -7.67633218931421      0.00281691445618
H   -3.75352693944918     -8.85107156923607     -0.00353718114765
H   -1.28430440589466     -8.86087539249706     -0.00809229711623
H   1.18922157469537     -8.87416062058945     -0.00706194725726
H   3.65854661482387     -8.89086063405326     -0.00231318081200

    units angstrom      # Angstroms are the default
    no_reorient         # Geometry fixed, default
    symmetry c1         # C1 symmetry, default
}

set {
    scf_type DF         # Density fitting, faster than exact integrals
    freeze_core True    # Freeze core electrons
    basis jun-cc-pVDZ   # Jun-cc-pVDZ basis set, recommended for sSAPT0 in https://doi.org/10.1063/1.4867135
}

energy('ssapt0')        # Compute sSAPT0 energy, includes also SAPT0
--------------------------------------------------------------------------

  //              Dimer HF             //
    Molecular point group: c1
  Charge       = 1
  Multiplicity = 1
  Basis Set: JUN-CC-PVDZ
    Blend: JUN-CC-PVDZ
  Basis Set: (JUN-CC-PVDZ AUX)
    Blend: JUN-CC-PVDZ-JKFIT
  @DF-RHF Final Energy: -3953.65245482519003
    Total Energy =                      -3953.6524548251909437
 Dipole X            :         -0.0025489            0.0004804           -0.0020685
 Dipole Y            :         -0.0501037            0.0561130            0.0060093
 Dipole Z            :         25.8397333          -34.5530153           -8.7132820
 Magnitude           :                                                    8.7132843
  //            Monomer A HF           //
    Molecular point group: c1
  Multiplicity = 1
  Basis Set: JUN-CC-PVDZ
    Blend: JUN-CC-PVDZ
  Basis Set: (JUN-CC-PVDZ AUX)
    Blend: JUN-CC-PVDZ-JKFIT
  @DF-RHF Final Energy:  -303.29746285082388
    Total Energy =                       -303.2974628508238766
  //            Monomer B HF           //
    Molecular point group: c1

    Geometry (in Angstrom), charge = 0, multiplicity = 1:

       Center              X                  Y                   Z               Mass
    ------------   -----------------  -----------------  -----------------  -----------------
      Gh(C)           0.680062820275    -0.008027535675    -6.758481124280    12.000000000000
      Gh(C)          -0.680508179725    -0.005999535675    -6.758097124280    12.000000000000
      Gh(N)          -1.085639179725    -0.005001535675    -5.439773124280    14.003074004430
      Gh(C)           0.000103820275    -0.001725535675    -4.658372124280    12.000000000000
      Gh(C)          -2.477369179725     0.044404464325    -4.971794124280    12.000000000000
      Gh(N)           1.085217820275    -0.005001535675    -5.439773124280    14.003074004430
      Gh(H)           1.385141820275    -0.015855535675    -7.575920124280     1.007825032230
      Gh(H)          -1.385306179725    -0.006189535675    -7.575766124280     1.007825032230
      Gh(H)          -0.000013179725     0.000021464325    -3.577283124280     1.007825032230
      Gh(C)           2.478112820275    -0.021893535675    -4.974675124280    12.000000000000
      Gh(H)           2.490587820275     0.005451464325    -3.884422124280     1.007825032230
      Gh(H)           2.967023820275    -0.935339535675    -5.321851124280     1.007825032230
      Gh(H)           3.001423820275     0.853589464325    -5.366147124280     1.007825032230
      Gh(H)          -2.857363179725     1.066475464325    -5.051753124280     1.007825032230
      Gh(H)          -3.082683179725    -0.625679535675    -5.584858124280     1.007825032230
      Gh(H)          -2.518132179725    -0.282579535675    -3.931846124280     1.007825032230
         C           -3.668445443746     7.803766634408     0.459347917055    12.000000000000
         C           -4.847602899072     7.131256295665     0.456981342123    12.000000000000
         C           -4.894963478901     5.696344867857     0.456408431024    12.000000000000
         C           -3.653744858499     4.980744805284     0.464068872754    12.000000000000
         C           -2.409429301220     7.113995501000     0.459542259315    12.000000000000
         C           -2.425481523830     5.681136415228     0.452537370445    12.000000000000
         C           -1.194748196161     7.786158658634     0.461014439857    12.000000000000
         C            0.037954849212     7.099436110082     0.458843735552    12.000000000000
         C            0.030328407694     5.669504024030     0.453360350637    12.000000000000
         C           -1.200988687630     4.969284812240     0.462330084570    12.000000000000
         C            1.277953646089     7.772873907520     0.460219584113    12.000000000000
         C            2.485353904999     7.087711349563     0.457945096208    12.000000000000
         C            2.486124505192     5.654785274566     0.451007347220    12.000000000000
         C            1.254078739919     4.956092577989     0.462635288809    12.000000000000
         C            3.751710411681     7.763926615305     0.458071947589    12.000000000000
         C            4.923561876460     7.078795241315     0.456015466881    12.000000000000
         C            4.955603091600     5.643461927694     0.455855054074    12.000000000000
         C            3.706797354479     4.941224672658     0.460946614243    12.000000000000
         H           -3.658525317484     8.890841883460     0.461032905305     1.007825032230
         H           -1.189217509482     8.874135551685     0.464986316298     1.007825032230
         H            1.284290059161     8.860847899813     0.464378408254     1.007825032230
         H            3.753537907074     8.851049743297     0.459594471904     1.007825032230
         H            5.869954523482     7.613809298981     0.455090099838     1.007825032230
         H           -5.788235887228     7.676316677259     0.455421494767     1.007825032230
         C           -6.091978138422     4.993274477968     0.454536190534    12.000000000000
         C           -6.128665660043     3.582594633123     0.455737367562    12.000000000000
         C           -3.664583919771     3.564196644069     0.452812272945    12.000000000000
         C           -4.894302384424     2.861095240226     0.461981257930    12.000000000000
         C           -2.437339174623     2.847626121410     0.464644051481    12.000000000000
         C           -1.209232037322     3.547901399303     0.450965024689    12.000000000000
         C            1.247137392437     3.534695215755     0.450156418284    12.000000000000
         C            0.015171859844     2.833126303630     0.461840601509    12.000000000000
         C            2.467640992715     2.821304441580     0.461940659632    12.000000000000
         C            3.702545294854     3.524674618749     0.448452698790    12.000000000000
         C            6.144976206658     4.927586830457     0.454621608862    12.000000000000
         C            6.166584179136     3.516598940267     0.456788162299    12.000000000000
         C            4.924605778734     2.808422389679     0.463326908536    12.000000000000
         H            7.089901329916     5.466902230548     0.450859728012     1.007825032230
         H           -7.031045930827     5.542702417183     0.450302975582     1.007825032230
         C           -7.339702220848     2.858425998905     0.454110200121    12.000000000000
         C           -7.364886137784     1.470337835908     0.455875738248    12.000000000000
         C           -4.903508788672     1.444441276485     0.451159474056    12.000000000000
         C           -6.132261332336     0.739953821379     0.463449518039    12.000000000000
         C           -3.676878980242     0.726711606998     0.461787190456    12.000000000000
         C           -2.445660765791     1.429655597587     0.451477480255    12.000000000000
         C           -1.223604861027     0.715338965960     0.462906744786    12.000000000000
         C            0.007633689588     1.417397613563     0.461372398504    12.000000000000
         C            1.231215628021     0.702131154912     0.442545812848    12.000000000000
         C            2.460816920806     1.403306500451     0.462050321738    12.000000000000
         C            3.684426074471     0.687212892537     0.461221535461    12.000000000000
         C            4.918704721813     1.391749025514     0.448819713826    12.000000000000
         C            7.369797898236     2.779496667509     0.455027742506    12.000000000000
         C            7.380158486396     1.391231972180     0.456574425352    12.000000000000
         C            6.139795359397     0.674133087526     0.462902767163    12.000000000000
         H           -8.279194979072     3.407132505449     0.449812647999     1.007825032230
         H            8.315109291754     3.318132560949     0.450817166707     1.007825032230
         C           -8.591760117307     0.724847017370     0.456216165866    12.000000000000
         C           -8.599028783429    -0.632625341904     0.458339290449    12.000000000000
         C           -6.139817318844    -0.674122172829     0.451349949114    12.000000000000
         C           -7.380188291863    -1.391251725257     0.458766010655    12.000000000000
         C           -4.918688659982    -1.391740553705     0.463690447263    12.000000000000
         C           -3.684442475410    -0.687222851411     0.452658207199    12.000000000000
         C           -2.460821219973    -1.403330714500     0.463201293388    12.000000000000
         C           -1.231166192046    -0.702159400556     0.451080914596    12.000000000000
         C           -0.007573805113    -1.417404385086     0.458537438900    12.000000000000
         C            1.223643536163    -0.715260912939     0.468543060848    12.000000000000
         C            2.445666469606    -1.429628824682     0.456793048089    12.000000000000
         C            3.676862523121    -0.726692967231     0.452652463694    12.000000000000
         C            6.132244666694    -0.739964375525     0.451124489481    12.000000000000
         C            4.903514965779    -1.444443056216     0.464965564021    12.000000000000
         C            8.599010668965     0.632618330993     0.456436541496    12.000000000000
         C            8.591741308375    -0.724836402868     0.458172921757    12.000000000000
         C            7.364858584664    -1.470318201281     0.457942745064    12.000000000000
         H           -9.528310151544     1.276861913518     0.454746238902     1.007825032230
         H            9.541406794881     1.174586952770     0.455384509234     1.007825032230
         C           -7.369842089494    -2.779530681609     0.460574219077    12.000000000000
         C           -4.924603288776    -2.808422793016     0.452842586640    12.000000000000
         C           -6.166626675393    -3.516637728500     0.459144426800    12.000000000000
         C           -3.702514539430    -3.524667084795     0.463166655826    12.000000000000
         C           -2.467651164839    -2.821311498479     0.451122017470    12.000000000000
         C           -0.015137653833    -2.833127181075     0.451403605979    12.000000000000
         C           -1.247126020952    -3.534717711238     0.462967559387    12.000000000000
         C            1.209240889918    -3.547900214319     0.465506589178    12.000000000000
         C            2.437331842429    -2.847627273850     0.451366830867    12.000000000000
         C            4.894298164045    -2.861108503961     0.452187570939    12.000000000000
         C            3.664611075316    -3.564205381207     0.465066990879    12.000000000000
         C            6.128634835020    -3.582569593393     0.458412832837    12.000000000000
         C            7.339668484970    -2.858398843045     0.459928058918    12.000000000000
         H           -9.541453290984    -1.174549002339     0.459708706622     1.007825032230
         H            9.528257688346    -1.276904609579     0.459422729518     1.007825032230
         H           -8.315169223574    -3.318135388887     0.464746447607     1.007825032230
         H            8.279150962767    -3.407126325569     0.464267614901     1.007825032230
         C           -6.144998368428    -4.927632808458     0.460470424860    12.000000000000
         C           -3.706787527723    -4.941247249792     0.450649456772    12.000000000000
         C           -4.955594237727    -5.643479509169     0.458616591417    12.000000000000
         C           -2.486125505952    -5.654771110084     0.463589127816    12.000000000000
         C           -1.254062515205    -4.956107585676     0.452413521830    12.000000000000
         C            1.201008394143    -4.969265923868     0.453594646088    12.000000000000
         C           -0.030340854139    -5.669505838814     0.461437845752    12.000000000000
         C            3.653745921603    -4.980729311090     0.454352645836    12.000000000000
         C            2.425488516150    -5.681160171202     0.463729576388    12.000000000000
         C            6.091961438086    -4.993243499062     0.460707059510    12.000000000000
         C            4.894972264885    -5.696333956633     0.459470863680    12.000000000000
         H           -7.089896567766    -5.466985377914     0.464873186541     1.007825032230
         H            7.031051029475    -5.542644072008     0.464286839274     1.007825032230
         C           -4.923549501924    -7.078806635352     0.458061822512    12.000000000000
         C           -2.485346267963    -7.087713613604     0.455551930076    12.000000000000
         C           -3.751690071504    -7.763932693311     0.455746609001    12.000000000000
         C           -0.037953136713    -7.099450410144     0.455767655223    12.000000000000
         C           -1.277960280127    -7.772889920342     0.453782962462    12.000000000000
         C            2.409440141001    -7.114007547678     0.456630856034    12.000000000000
         C            1.194745757428    -7.786170901237     0.454478565153    12.000000000000
         C            4.847616872773    -7.131247646254     0.459137670694    12.000000000000
         C            3.668467426150    -7.803773528619     0.456789236330    12.000000000000
         H           -5.869944530142    -7.613816133717     0.459605859377     1.007825032230
         H            5.788245445663    -7.676317724989     0.460264790176     1.007825032230
         H           -3.753531119175    -8.851057104911     0.453910694572     1.007825032230
         H           -1.284308585620    -8.860860928172     0.449355578603     1.007825032230
         H            1.189217394970    -8.874146156264     0.450385928462     1.007825032230
         H            3.658542435098    -8.890846169728     0.455134694908     1.007825032230

  Charge       = 0
  Multiplicity = 1
  Basis Set: JUN-CC-PVDZ
    Blend: JUN-CC-PVDZ
  Basis Set: (JUN-CC-PVDZ AUX)
    Blend: JUN-CC-PVDZ-JKFIT

    Orbital Energies [Eh]
    ---------------------

    Doubly Occupied:

       1A    -11.264013     2A    -11.263688     3A    -11.263686
       4A    -11.263332     5A    -11.263328     6A    -11.263295
       7A    -11.263137     8A    -11.263119     9A    -11.263118
      10A    -11.262944    11A    -11.262790    12A    -11.262786
      13A    -11.262305    14A    -11.262302    15A    -11.262238
      16A    -11.262238    17A    -11.262175    18A    -11.262146
      19A    -11.262101    20A    -11.262064    21A    -11.262060
      22A    -11.261920    23A    -11.261913    24A    -11.261790
      25A    -11.261781    26A    -11.261762    27A    -11.261756
      28A    -11.261714    29A    -11.261703    30A    -11.261625
      31A    -11.261601    32A    -11.261596    33A    -11.261570
      34A    -11.261569    35A    -11.261547    36A    -11.261517
      37A    -11.261369    38A    -11.261360    39A    -11.261354
      40A    -11.261349    41A    -11.261340    42A    -11.261332
      43A    -11.261324    44A    -11.261309    45A    -11.261305
      46A    -11.261283    47A    -11.261277    48A    -11.261274
      49A    -11.261110    50A    -11.261078    51A    -11.261074
      52A    -11.260996    53A    -11.260992    54A    -11.260925
      55A    -11.259962    56A    -11.259951    57A    -11.259945
      58A    -11.259918    59A    -11.259914    60A    -11.259899
      61A    -11.259336    62A    -11.259313    63A    -11.259305
      64A    -11.259257    65A    -11.259251    66A    -11.259223
      67A    -11.258966    68A    -11.258949    69A    -11.258945
      70A    -11.258919    71A    -11.258914    72A    -11.258904
      73A    -11.254556    74A    -11.254555    75A    -11.254550
      76A    -11.254548    77A    -11.254546    78A    -11.254538
      79A    -11.253695    80A    -11.253694    81A    -11.253690
      82A    -11.253687    83A    -11.253685    84A    -11.253678
      85A    -11.253610    86A    -11.253610    87A    -11.253606
      88A    -11.253603    89A    -11.253601    90A    -11.253594
      91A    -11.253084    92A    -11.253082    93A    -11.253078
      94A    -11.253076    95A    -11.253073    96A    -11.253066
      97A     -1.254025    98A     -1.239064    99A     -1.239049
     100A     -1.220517   101A     -1.220507   102A     -1.215516
     103A     -1.201085   104A     -1.195652   105A     -1.188212
     106A     -1.188202   107A     -1.173806   108A     -1.173805
     109A     -1.155688   110A     -1.155683   111A     -1.152788
     112A     -1.144763   113A     -1.144761   114A     -1.128621
     115A     -1.114771   116A     -1.113205   117A     -1.112552
     118A     -1.112532   119A     -1.111657   120A     -1.088482
     121A     -1.088466   122A     -1.077002   123A     -1.077001
     124A     -1.067673   125A     -1.067640   126A     -1.065036
     127A     -1.046850   128A     -1.046840   129A     -1.040531
     130A     -1.038776   131A     -1.038773   132A     -1.025300
     133A     -1.021462   134A     -1.021404   135A     -1.007225
     136A     -1.006858   137A     -1.003841   138A     -1.000549
     139A     -1.000496   140A     -0.991113   141A     -0.971044
     142A     -0.970994   143A     -0.955928   144A     -0.955870
     145A     -0.905658   146A     -0.905620   147A     -0.905587
     148A     -0.905545   149A     -0.904408   150A     -0.892430
     151A     -0.892374   152A     -0.890425   153A     -0.890369
     154A     -0.889508   155A     -0.872260   156A     -0.869089
     157A     -0.851583   158A     -0.847922   159A     -0.847905
     160A     -0.845657   161A     -0.843069   162A     -0.834611
     163A     -0.834599   164A     -0.828157   165A     -0.828151
     166A     -0.784599   167A     -0.784588   168A     -0.783717
     169A     -0.783694   170A     -0.782338   171A     -0.782318
     172A     -0.782092   173A     -0.767037   174A     -0.760858
     175A     -0.750635   176A     -0.733525   177A     -0.727122
     178A     -0.727097   179A     -0.725133   180A     -0.724588
     181A     -0.724564   182A     -0.718557   183A     -0.713830
     184A     -0.713824   185A     -0.699624   186A     -0.699605
     187A     -0.686191   188A     -0.685997   189A     -0.685991
     190A     -0.682214   191A     -0.682205   192A     -0.678832
     193A     -0.653673   194A     -0.650920   195A     -0.650888
     196A     -0.649870   197A     -0.649860   198A     -0.649605
     199A     -0.640995   200A     -0.640958   201A     -0.640127
     202A     -0.639197   203A     -0.636076   204A     -0.636046
     205A     -0.629185   206A     -0.617763   207A     -0.615342
     208A     -0.615318   209A     -0.608844   210A     -0.608837
     211A     -0.599145   212A     -0.599131   213A     -0.598792
     214A     -0.598650   215A     -0.598638   216A     -0.598099
     217A     -0.595105   218A     -0.595092   219A     -0.594766
     220A     -0.594295   221A     -0.592005   222A     -0.592002
     223A     -0.587453   224A     -0.577828   225A     -0.577813
     226A     -0.575707   227A     -0.575691   228A     -0.573420
     229A     -0.569600   230A     -0.568202   231A     -0.568177
     232A     -0.566798   233A     -0.566790   234A     -0.560944
     235A     -0.558774   236A     -0.558742   237A     -0.558459
     238A     -0.554412   239A     -0.550592   240A     -0.547504
     241A     -0.544293   242A     -0.535004   243A     -0.534991
     244A     -0.533579   245A     -0.533559   246A     -0.528115
     247A     -0.528098   248A     -0.527851   249A     -0.517221
     250A     -0.517190   251A     -0.515378   252A     -0.515373
     253A     -0.509676   254A     -0.509663   255A     -0.498065
     256A     -0.496497   257A     -0.496461   258A     -0.493813
     259A     -0.493780   260A     -0.489469   261A     -0.481486
     262A     -0.477441   263A     -0.477440   264A     -0.474031
     265A     -0.469484   266A     -0.466566   267A     -0.466564
     268A     -0.458833   269A     -0.446746   270A     -0.446690
     271A     -0.441046   272A     -0.440789   273A     -0.440750
     274A     -0.434709   275A     -0.433931   276A     -0.407393
     277A     -0.407372   278A     -0.386434   279A     -0.386376
     280A     -0.385752   281A     -0.385751   282A     -0.383785
     283A     -0.354347   284A     -0.354327   285A     -0.350686
     286A     -0.338100   287A     -0.335603   288A     -0.335552
     289A     -0.332731   290A     -0.332729   291A     -0.307098
     292A     -0.301961   293A     -0.301901   294A     -0.300865
     295A     -0.286189   296A     -0.256485   297A     -0.253516
     298A     -0.253471   299A     -0.204278   300A     -0.204192

  @DF-RHF Final Energy: -3650.33894772769418

   => Energetics <=

    Nuclear Repulsion Energy =          15611.4211649754306563
    One-Electron Energy =              -36072.1208851544870413
    Two-Electron Energy =               16810.3607724513640278
    Total Energy =                      -3650.3389477276941761
 Dipole X            :         -0.0008667            0.0002112           -0.0006555
 Dipole Y            :          0.0012388           -0.0013774           -0.0001386
 Dipole Z            :       -518.6640186          518.6741130            0.0100944
 Magnitude           :                                                    0.0101166

    SAPT Results
  --------------------------------------------------------------------------------------------------------
    Electrostatics                -10.03559439 [mEh]      -6.29743056 [kcal/mol]     -26.34844945 [kJ/mol]
      Elst10,r                    -10.03559439 [mEh]      -6.29743056 [kcal/mol]     -26.34844945 [kJ/mol]

    Exchange                        0.03671126 [mEh]       0.02303666 [kcal/mol]       0.09638540 [kJ/mol]
      Exch10                        0.03671126 [mEh]       0.02303666 [kcal/mol]       0.09638540 [kJ/mol]
      Exch10(S^2)                   0.03671053 [mEh]       0.02303620 [kcal/mol]       0.09638348 [kJ/mol]

    Induction                      -6.04536354 [mEh]      -3.79352289 [kcal/mol]     -15.87209979 [kJ/mol]
      Ind20,r                      -5.85306682 [mEh]      -3.67285488 [kcal/mol]     -15.36722481 [kJ/mol]
      Exch-Ind20,r                  0.00846476 [mEh]       0.00531172 [kcal/mol]       0.02222424 [kJ/mol]
      delta HF,r (2)               -0.20076149 [mEh]      -0.12597973 [kcal/mol]      -0.52709921 [kJ/mol]

    Dispersion                     -4.02272234 [mEh]      -2.52429638 [kcal/mol]     -10.56165604 [kJ/mol]
      Disp20                       -4.02909881 [mEh]      -2.52829767 [kcal/mol]     -10.57839747 [kJ/mol]
      Exch-Disp20                   0.00637647 [mEh]       0.00400130 [kcal/mol]       0.01674143 [kJ/mol]
      Disp20 (SS)                  -2.01454940 [mEh]      -1.26414884 [kcal/mol]      -5.28919873 [kJ/mol]
      Disp20 (OS)                  -2.01454940 [mEh]      -1.26414884 [kcal/mol]      -5.28919873 [kJ/mol]
      Exch-Disp20 (SS)              0.00445352 [mEh]       0.00279462 [kcal/mol]       0.01169271 [kJ/mol]
      Exch-Disp20 (OS)              0.00192296 [mEh]       0.00120667 [kcal/mol]       0.00504872 [kJ/mol]

  Total HF                        -16.04424667 [mEh]     -10.06791679 [kcal/mol]     -42.12416383 [kJ/mol]
  Total SAPT0                     -20.06696901 [mEh]     -12.59221316 [kcal/mol]     -52.68581987 [kJ/mol]

  Special recipe for scaled SAPT0 (see Manual):
    Electrostatics sSAPT0         -10.03559439 [mEh]      -6.29743056 [kcal/mol]     -26.34844945 [kJ/mol]
    Exchange sSAPT0                 0.03671126 [mEh]       0.02303666 [kcal/mol]       0.09638540 [kJ/mol]
    Induction sSAPT0               -6.04536303 [mEh]      -3.79352258 [kcal/mol]     -15.87209846 [kJ/mol]
    Dispersion sSAPT0              -4.02272196 [mEh]      -2.52429614 [kcal/mol]     -10.56165504 [kJ/mol]
  Total sSAPT0                    -20.06696812 [mEh]     -12.59221261 [kcal/mol]     -52.68581755 [kJ/mol]
  --------------------------------------------------------------------------------------------------------

*** Psi4 exiting successfully. Buy a developer a beer!
