                               Psi4 1.9 release

  ==> Input File <==

--------------------------------------------------------------------------
memory 32 GB # how much memory is available ! Depends on the nodes/cores !

molecule dimer {
# monomer A
+1 1    # Charge and multiplicity
C  0.680067 -0.008042 -10.015929
C -0.680504 -0.006014 -10.015545
N -1.085635 -0.005016  -8.697221
C  0.000108 -0.001740  -7.915820
C -2.477365  0.044390  -8.229242
N  1.085222 -0.005016  -8.697221
H  1.385146 -0.015870 -10.833368
H -1.385302 -0.006204 -10.833214
H -0.000009  0.000007  -6.834731
C  2.478117 -0.021908  -8.232123
H  2.490592  0.005437  -7.141870
H  2.967028 -0.935354  -8.579299
H  3.001428  0.853575  -8.623595
H -2.857359  1.066461  -8.309201
H -3.082679 -0.625694  -8.842306
H -2.518128 -0.282594  -7.189294
--
# monomer B
0 1     # Charge and multiplicity
C   1.22531237526482      0.70753866091955      0.00613762728373
C   1.22532433589282     -0.70753852257020     -0.00619318228664
C   -0.00000567409046      1.41496628609039     -0.00672680580738
C   2.45644923379077      1.41832825917820      0.00902448468363
C   0.00001130712078     -1.41497612663474      0.00347275151708
C   -1.22530046906674      0.70754574598412      0.00838914760619
C   2.45643823516184     -1.41832293188077     -0.00843833914343
C   -0.00000085313587      2.83680140328112     -0.00913035594137
C   3.68182717731192      0.70931832800114     -0.00808954934571
C   2.45512052870677      2.83422403348893     -0.00819210630633
C   3.68182158506039     -0.70933346742900      0.00798293467272
C   -1.22531311884624     -0.70752714354401     -0.00512042085974
C   1.22670006104402      3.54346985599427      0.00816696660346
C   0.00000526469929     -2.83678176723568      0.00832091913869
C   -2.45643555300670      1.41831729028492      0.00842454345199
C   2.45512389762097     -2.83422965658853      0.00783102630520
C   -1.22671388474763      3.54346943575023      0.00827029982280
C   4.91451777504333      1.42717324448953     -0.00160886631602
C   3.69315067131765      3.54279566454522     -0.00155906667985
C   -2.45643712022637     -1.41831290883911     -0.00846337726810
C   1.22670532178455     -3.54347386990643     -0.00780316414624
C   -2.45512491866593      2.83421703463423     -0.00818572995999
C   4.91452486062398     -1.42718653794377      0.00136387641845
C   1.22142509354026      4.97013443726031      0.00150231067809
C   4.89300870916237      2.82518837202648     -0.00039219795739
C   -1.22669652864725     -3.54347062507680     -0.00753595973677
C   -3.68181849668397      0.70932533873199     -0.00807686886569
C   3.69314758099218     -3.54280096939050      0.00148176697923
C   -1.22143177215231      4.97012866986289      0.00168580605083
C   6.13477145276790      0.68054831910577     -0.00083909176631
C   3.65678936045204      4.97295361556775     -0.00065042889723
C   -2.45512642789169     -2.83421472106065      0.00758666850712
C   -3.68181869921921     -0.70932533146830      0.00810055625144
C   4.89301309775526     -2.82519973363176      0.00021895393805
C   -0.00000059327114      5.65044773803267      0.00045449734393
C   6.13477559217374     -0.68055448207492      0.00042622874941
C   2.47813196269732      5.65357712333155      0.00063835075260
C   1.22142288457925     -4.97012668293268     -0.00129718634452
C   -3.69316190412301      3.54279732619245     -0.00139355922051
C   -1.22142804110313     -4.97011793159564     -0.00140994817719
C   -4.91452132810043      1.42717581899491     -0.00153192130862
C   3.65678749952045     -4.97295485423912      0.00080007163680
C   -2.47813805026426      5.65357479452875      0.00092287576113
C   -3.69314125872231     -3.54278984697859      0.00136564082345
C   -4.91451200321153     -1.42718062802730      0.00139857359209
C   -0.00000552908399     -5.65043791501335      0.00005899322272
C   -4.89302000425900      2.82518897091939     -0.00040227981744
C   2.47812647313991     -5.65357317188818     -0.00029052915548
C   -3.65679823041642      4.97295655404175     -0.00047374852278
C   -4.89299899901461     -2.82519139505969      0.00006491824035
C   -2.47812801824129     -5.65356579800621     -0.00056571680280
C   -6.13477002348955      0.68054913825639     -0.00086464346868
C   -3.65678835334731     -4.97294365097028      0.00058578382008
C   -6.13476456307132     -0.68055354348201      0.00040575295444
H   5.83528897565761      3.36927626695423      0.00396712770529
H   7.07385965258860      1.22821762089947     -0.00037744837300
H   4.60066374401555      5.51238117445323     -0.00014522814529
H   5.83528386714679     -3.36930568472863     -0.00423551337640
H   -0.00001167146422      6.73853104613662     -0.00389474766392
H   7.07386165167227     -1.22822657074368     -0.00008250934481
H   2.47331421164041      6.74068466339473      0.00017162982210
H   4.60066897122302     -5.51237575717576      0.00039007446835
H   -2.47331820069565      6.74068209160650      0.00047297644710
H   -0.00000978838621     -6.73852780445195      0.00458867820736
H   -5.83530143450167      3.36927132229595      0.00410314985360
H   2.47330840367253     -6.74068500242887      0.00027980126949
H   -4.60067436136587      5.51237839860371      0.00002010017831
H   -5.83527902699321     -3.36928859177951     -0.00451481925734
H   -2.47329986759855     -6.74067870613986     -0.00016951527498
H   -7.07385728692578      1.22822084484047     -0.00046143985387
H   -4.60067330624313     -5.51236229778631      0.00021776644566
H   -7.07385645456741     -1.22822025997701     -0.00017736581114

    units angstrom      # Angstroms are the default
    no_reorient         # Geometry fixed, default
    symmetry c1         # C1 symmetry, default
}

set {
    scf_type DF         # Density fitting, faster than exact integrals
    freeze_core True    # Freeze core electrons
    basis jun-cc-pVDZ   # Jun-cc-pVDZ basis set, recommended for sSAPT0 in https://doi.org/10.1063/1.4867135
}

energy('ssapt0')        # Compute sSAPT0 energy, includes also SAPT0
--------------------------------------------------------------------------

  //              Dimer HF             //
    Molecular point group: c1
  Charge       = 1
  Multiplicity = 1
  Basis Set: JUN-CC-PVDZ
    Blend: JUN-CC-PVDZ
  Basis Set: (JUN-CC-PVDZ AUX)
    Blend: JUN-CC-PVDZ-JKFIT
  @DF-RHF Final Energy: -2359.19543251590676
    Total Energy =                      -2359.1954325159058499
 Dipole X            :         -0.0010185            0.0006313           -0.0003873
 Dipole Y            :         -0.0478612            0.0560211            0.0081599
 Dipole Z            :         30.5835079          -43.9847254          -13.4012175
 Magnitude           :                                                   13.4012200
  //            Monomer A HF           //
    Molecular point group: c1
  Multiplicity = 1
  Basis Set: JUN-CC-PVDZ
    Blend: JUN-CC-PVDZ
  Basis Set: (JUN-CC-PVDZ AUX)
    Blend: JUN-CC-PVDZ-JKFIT
  @DF-RHF Final Energy:  -303.29717807537685
    Total Energy =                       -303.2971780753768485
  //            Monomer B HF           //
    Molecular point group: c1

    Geometry (in Angstrom), charge = 0, multiplicity = 1:

       Center              X                  Y                   Z               Mass
    ------------   -----------------  -----------------  -----------------  -----------------
      Gh(C)           0.680066520158    -0.008042372515    -8.896625265091    12.000000000000
      Gh(C)          -0.680504479842    -0.006014372515    -8.896241265091    12.000000000000
      Gh(N)          -1.085635479842    -0.005016372515    -7.577917265091    14.003074004430
      Gh(C)           0.000107520158    -0.001740372515    -6.796516265091    12.000000000000
      Gh(C)          -2.477365479842     0.044389627485    -7.109938265091    12.000000000000
      Gh(N)           1.085221520158    -0.005016372515    -7.577917265091    14.003074004430
      Gh(H)           1.385145520158    -0.015870372515    -9.714064265091     1.007825032230
      Gh(H)          -1.385302479842    -0.006204372515    -9.713910265091     1.007825032230
      Gh(H)          -0.000009479842     0.000006627485    -5.715427265091     1.007825032230
      Gh(C)           2.478116520158    -0.021908372515    -7.112819265091    12.000000000000
      Gh(H)           2.490591520158     0.005436627485    -6.022566265091     1.007825032230
      Gh(H)           2.967027520158    -0.935354372515    -7.459995265091     1.007825032230
      Gh(H)           3.001427520158     0.853574627485    -7.504291265091     1.007825032230
      Gh(H)          -2.857359479842     1.066460627485    -7.189897265091     1.007825032230
      Gh(H)          -3.082679479842    -0.625694372515    -7.723002265091     1.007825032230
      Gh(H)          -2.518128479842    -0.282594372515    -6.069990265091     1.007825032230
         C            1.225311895423     0.707538288405     1.125441362192    12.000000000000
         C            1.225323856051    -0.707538895085     1.113110552622    12.000000000000
         C           -0.000006153932     1.414965913575     1.112576929101    12.000000000000
         C            2.456448753949     1.418327886663     1.128328219592    12.000000000000
         C            0.000010827279    -1.414976499150     1.122776486426    12.000000000000
         C           -1.225300948908     0.707545373469     1.127692882515    12.000000000000
         C            2.456437755320    -1.418323304396     1.110865395765    12.000000000000
         C           -0.000001332978     2.836801030766     1.110173378967    12.000000000000
         C            3.681826697470     0.709317955486     1.111214185563    12.000000000000
         C            2.455120048865     2.834223660974     1.111111628602    12.000000000000
         C            3.681821105219    -0.709333839944     1.127286669581    12.000000000000
         C           -1.225313598688    -0.707527516059     1.114183314049    12.000000000000
         C            1.226699581202     3.543469483479     1.127470701512    12.000000000000
         C            0.000004784858    -2.836782139751     1.127624654047    12.000000000000
         C           -2.456436032848     1.418316917770     1.127728278360    12.000000000000
         C            2.455123417779    -2.834230029103     1.127134761214    12.000000000000
         C           -1.226714364589     3.543469063235     1.127574034731    12.000000000000
         C            4.914517295202     1.427172871975     1.117694868592    12.000000000000
         C            3.693150191476     3.542795292030     1.117744668229    12.000000000000
         C           -2.456437600068    -1.418313281354     1.110840357640    12.000000000000
         C            1.226704841943    -3.543474242421     1.111500570762    12.000000000000
         C           -2.455125398508     2.834216662119     1.111118004949    12.000000000000
         C            4.914524380782    -1.427186910459     1.120667611327    12.000000000000
         C            1.221424613699     4.970134064745     1.120806045587    12.000000000000
         C            4.893008229321     2.825187999512     1.118911536951    12.000000000000
         C           -1.226697008489    -3.543470997592     1.111767775172    12.000000000000
         C           -3.681818976526     0.709324966217     1.111226866043    12.000000000000
         C            3.693147101150    -3.542801341905     1.120785501888    12.000000000000
         C           -1.221432251994     4.970128297348     1.120989540959    12.000000000000
         C            6.134770972926     0.680547946591     1.118464643142    12.000000000000
         C            3.656788880610     4.972953243053     1.118653306011    12.000000000000
         C           -2.455126907733    -2.834215093576     1.126890403416    12.000000000000
         C           -3.681819179061    -0.709325703983     1.127404291160    12.000000000000
         C            4.893012617914    -2.825200106147     1.119522688847    12.000000000000
         C           -0.000001073113     5.650447365518     1.119758232252    12.000000000000
         C            6.134775112332    -0.680554854590     1.119729963658    12.000000000000
         C            2.478131482856     5.653576750817     1.119942085661    12.000000000000
         C            1.221422404738    -4.970127055448     1.118006548564    12.000000000000
         C           -3.693162383965     3.542796953677     1.117910175688    12.000000000000
         C           -1.221428520945    -4.970118304111     1.117893786731    12.000000000000
         C           -4.914521807942     1.427175446480     1.117771813600    12.000000000000
         C            3.656787019679    -4.972955226754     1.120103806545    12.000000000000
         C           -2.478138530106     5.653574422014     1.120226610670    12.000000000000
         C           -3.693141738564    -3.542790219494     1.120669375732    12.000000000000
         C           -4.914512483053    -1.427181000542     1.120702308501    12.000000000000
         C           -0.000006008926    -5.650438287528     1.119362728131    12.000000000000
         C           -4.893020484101     2.825188598404     1.118901455091    12.000000000000
         C            2.478125993298    -5.653573544403     1.119013205753    12.000000000000
         C           -3.656798710258     4.972956181527     1.118829986386    12.000000000000
         C           -4.892999478856    -2.825191767575     1.119368653149    12.000000000000
         C           -2.478128498083    -5.653566170521     1.118738018106    12.000000000000
         C           -6.134770503331     0.680548765741     1.118439091440    12.000000000000
         C           -3.656788833189    -4.972944023485     1.119889518729    12.000000000000
         C           -6.134765042913    -0.680553915997     1.119709487863    12.000000000000
         H            5.835288495816     3.369275894439     1.123270862614     1.007825032230
         H            7.073859172747     1.228217248385     1.118926286536     1.007825032230
         H            4.600663264174     5.512380801938     1.119158506763     1.007825032230
         H            5.835283387305    -3.369306057244     1.115068221532     1.007825032230
         H           -0.000012151306     6.738530673622     1.115408987245     1.007825032230
         H            7.073861171831    -1.228226943259     1.119221225564     1.007825032230
         H            2.473313731799     6.740684290880     1.119475364731     1.007825032230
         H            4.600668491381    -5.512376129691     1.119693809377     1.007825032230
         H           -2.473318680537     6.740681719092     1.119776711356     1.007825032230
         H           -0.000010268228    -6.738528176967     1.123892413116     1.007825032230
         H           -5.835301914343     3.369270949781     1.123406884762     1.007825032230
         H            2.473307923831    -6.740685374944     1.119583536178     1.007825032230
         H           -4.600674841208     5.512378026089     1.119323835087     1.007825032230
         H           -5.835279506835    -3.369288964294     1.114788915651     1.007825032230
         H           -2.473300347440    -6.740679078655     1.119134219634     1.007825032230
         H           -7.073857766768     1.228220472326     1.118842295055     1.007825032230
         H           -4.600673786085    -5.512362670301     1.119521501354     1.007825032230
         H           -7.073856934409    -1.228220632492     1.119126369097     1.007825032230

  Charge       = 0
  Multiplicity = 1
  Basis Set: JUN-CC-PVDZ
    Blend: JUN-CC-PVDZ
  Basis Set: (JUN-CC-PVDZ AUX)
    Blend: JUN-CC-PVDZ-JKFIT

    Orbital Energies [Eh]
    ---------------------

    Doubly Occupied:

       1A    -11.260676     2A    -11.260233     3A    -11.260231
       4A    -11.259522     5A    -11.259521     6A    -11.259351
       7A    -11.259142     8A    -11.259065     9A    -11.259063
      10A    -11.258739    11A    -11.258735    12A    -11.258667
      13A    -11.258605    14A    -11.258599    15A    -11.258596
      16A    -11.258568    17A    -11.258562    18A    -11.258545
      19A    -11.258532    20A    -11.258527    21A    -11.258521
      22A    -11.258423    23A    -11.258420    24A    -11.258121
      25A    -11.257462    26A    -11.257400    27A    -11.257399
      28A    -11.257264    29A    -11.257264    30A    -11.257179
      31A    -11.256557    32A    -11.256486    33A    -11.256486
      34A    -11.256376    35A    -11.256376    36A    -11.256329
      37A    -11.252402    38A    -11.252402    39A    -11.252400
      40A    -11.252399    41A    -11.252397    42A    -11.252395
      43A    -11.251537    44A    -11.251534    45A    -11.251533
      46A    -11.251528    47A    -11.251527    48A    -11.251523
      49A    -11.250964    50A    -11.250963    51A    -11.250962
      52A    -11.250960    53A    -11.250958    54A    -11.250957
      55A     -1.244301    56A     -1.220019    57A     -1.220017
      58A     -1.189726    59A     -1.189719    60A     -1.181170
      61A     -1.157726    62A     -1.149158    63A     -1.135709
      64A     -1.135703    65A     -1.113359    66A     -1.113355
      67A     -1.082633    68A     -1.082626    69A     -1.078816
      70A     -1.066143    71A     -1.066139    72A     -1.039583
      73A     -1.024494    74A     -1.021999    75A     -1.021955
      76A     -1.017892    77A     -1.012953    78A     -0.987225
      79A     -0.987179    80A     -0.962053    81A     -0.962003
      82A     -0.894472    83A     -0.894445    84A     -0.888170
      85A     -0.886417    86A     -0.886359    87A     -0.881605
      88A     -0.881557    89A     -0.862078    90A     -0.837555
      91A     -0.818395    92A     -0.816837    93A     -0.812344
      94A     -0.812335    95A     -0.794859    96A     -0.794848
      97A     -0.746843    98A     -0.745070    99A     -0.733637
     100A     -0.733629   101A     -0.732357   102A     -0.732334
     103A     -0.716705   104A     -0.699154   105A     -0.699143
     106A     -0.693780   107A     -0.693764   108A     -0.661404
     109A     -0.653338   110A     -0.651384   111A     -0.650421
     112A     -0.650415   113A     -0.639534   114A     -0.639531
     115A     -0.629918   116A     -0.627730   117A     -0.627714
     118A     -0.606459   119A     -0.605938   120A     -0.601871
     121A     -0.599924   122A     -0.599892   123A     -0.593828
     124A     -0.591460   125A     -0.591448   126A     -0.585423
     127A     -0.576419   128A     -0.576416   129A     -0.567482
     130A     -0.567468   131A     -0.566170   132A     -0.566151
     133A     -0.558946   134A     -0.555027   135A     -0.555021
     136A     -0.538764   137A     -0.538762   138A     -0.538291
     139A     -0.538286   140A     -0.529900   141A     -0.528209
     142A     -0.523055   143A     -0.523048   144A     -0.500673
     145A     -0.495722   146A     -0.493411   147A     -0.487950
     148A     -0.485271   149A     -0.481952   150A     -0.481944
     151A     -0.470440   152A     -0.470423   153A     -0.451257
     154A     -0.451179   155A     -0.439192   156A     -0.439183
     157A     -0.404873   158A     -0.404850   159A     -0.403494
     160A     -0.375546   161A     -0.375543   162A     -0.349251
     163A     -0.337719   164A     -0.336687   165A     -0.336630
     166A     -0.311227   167A     -0.298214   168A     -0.284484
     169A     -0.284430   170A     -0.225052   171A     -0.224986

  @DF-RHF Final Energy: -2055.89162808325136

   => Energetics <=

    Nuclear Repulsion Energy =           6452.5568002797781446
    One-Electron Energy =              -15636.4250887463167601
    Two-Electron Energy =                7127.9766603832886176
    Total Energy =                      -2055.8916280832509074
 Dipole X            :          0.0001057           -0.0000085            0.0000972
 Dipole Y            :         -0.0000291            0.0000167           -0.0000124
 Dipole Z            :       -723.3885021          723.3892655            0.0007634
 Magnitude           :                                                    0.0007697

    SAPT Results
  --------------------------------------------------------------------------------------------------------
    Electrostatics                 -5.39137859 [mEh]      -3.38314114 [kcal/mol]     -14.15506253 [kJ/mol]
      Elst10,r                     -5.39137859 [mEh]      -3.38314114 [kcal/mol]     -14.15506253 [kJ/mol]

    Exchange                       -0.00007638 [mEh]      -0.00004793 [kcal/mol]      -0.00020053 [kJ/mol]
      Exch10                       -0.00007638 [mEh]      -0.00004793 [kcal/mol]      -0.00020053 [kJ/mol]
      Exch10(S^2)                  -0.00007638 [mEh]      -0.00004793 [kcal/mol]      -0.00020053 [kJ/mol]

    Induction                      -1.23490231 [mEh]      -0.77491290 [kcal/mol]      -3.24223557 [kJ/mol]
      Ind20,r                      -1.22150394 [mEh]      -0.76650529 [kcal/mol]      -3.20705815 [kJ/mol]
      Exch-Ind20,r                  0.00002449 [mEh]       0.00001537 [kcal/mol]       0.00006431 [kJ/mol]
      delta HF,r (2)               -0.01342287 [mEh]      -0.00842298 [kcal/mol]      -0.03524174 [kJ/mol]

    Dispersion                     -0.47154945 [mEh]      -0.29590175 [kcal/mol]      -1.23805291 [kJ/mol]
      Disp20                       -0.47156144 [mEh]      -0.29590927 [kcal/mol]      -1.23808438 [kJ/mol]
      Exch-Disp20                   0.00001199 [mEh]       0.00000752 [kcal/mol]       0.00003147 [kJ/mol]
      Disp20 (SS)                  -0.23578072 [mEh]      -0.14795463 [kcal/mol]      -0.61904219 [kJ/mol]
      Disp20 (OS)                  -0.23578072 [mEh]      -0.14795463 [kcal/mol]      -0.61904219 [kJ/mol]
      Exch-Disp20 (SS)              0.00000871 [mEh]       0.00000546 [kcal/mol]       0.00002286 [kJ/mol]
      Exch-Disp20 (OS)              0.00000328 [mEh]       0.00000206 [kcal/mol]       0.00000861 [kJ/mol]

  Total HF                         -6.62635728 [mEh]      -4.15810197 [kcal/mol]     -17.39749864 [kJ/mol]
  Total SAPT0                      -7.09790673 [mEh]      -4.45400372 [kcal/mol]     -18.63555155 [kJ/mol]

  Special recipe for scaled SAPT0 (see Manual):
    Electrostatics sSAPT0          -5.39137859 [mEh]      -3.38314114 [kcal/mol]     -14.15506253 [kJ/mol]
    Exchange sSAPT0                -0.00007638 [mEh]      -0.00004793 [kcal/mol]      -0.00020053 [kJ/mol]
    Induction sSAPT0               -1.23490231 [mEh]      -0.77491290 [kcal/mol]      -3.24223557 [kJ/mol]
    Dispersion sSAPT0              -0.47154945 [mEh]      -0.29590175 [kcal/mol]      -1.23805291 [kJ/mol]
  Total sSAPT0                     -7.09790673 [mEh]      -4.45400372 [kcal/mol]     -18.63555155 [kJ/mol]
  --------------------------------------------------------------------------------------------------------

*** Psi4 exiting successfully. Buy a developer a beer!
