                               Psi4 1.9 release

  ==> Input File <==

--------------------------------------------------------------------------
memory 32 GB # how much memory is available ! Depends on the nodes/cores !

molecule dimer {
# monomer A
-1 1    # Charge and multiplicity
B -1.977592e-04  2.742729e-04 4.600034
F  1.123153e-16  1.430594e-17 6.012819
F  1.147860e+00  6.757812e-01 4.128893
F  1.191806e-02 -1.332011e+00 4.129095
F -1.159666e+00  6.560735e-01 4.129174
--
# monomer B
0 1     # Charge and multiplicity
C   1.22531237526482      0.70753866091955      0.00613762728373
C   1.22532433589282     -0.70753852257020     -0.00619318228664
C   -0.00000567409046      1.41496628609039     -0.00672680580738
C   2.45644923379077      1.41832825917820      0.00902448468363
C   0.00001130712078     -1.41497612663474      0.00347275151708
C   -1.22530046906674      0.70754574598412      0.00838914760619
C   2.45643823516184     -1.41832293188077     -0.00843833914343
C   -0.00000085313587      2.83680140328112     -0.00913035594137
C   3.68182717731192      0.70931832800114     -0.00808954934571
C   2.45512052870677      2.83422403348893     -0.00819210630633
C   3.68182158506039     -0.70933346742900      0.00798293467272
C   -1.22531311884624     -0.70752714354401     -0.00512042085974
C   1.22670006104402      3.54346985599427      0.00816696660346
C   0.00000526469929     -2.83678176723568      0.00832091913869
C   -2.45643555300670      1.41831729028492      0.00842454345199
C   2.45512389762097     -2.83422965658853      0.00783102630520
C   -1.22671388474763      3.54346943575023      0.00827029982280
C   4.91451777504333      1.42717324448953     -0.00160886631602
C   3.69315067131765      3.54279566454522     -0.00155906667985
C   -2.45643712022637     -1.41831290883911     -0.00846337726810
C   1.22670532178455     -3.54347386990643     -0.00780316414624
C   -2.45512491866593      2.83421703463423     -0.00818572995999
C   4.91452486062398     -1.42718653794377      0.00136387641845
C   1.22142509354026      4.97013443726031      0.00150231067809
C   4.89300870916237      2.82518837202648     -0.00039219795739
C   -1.22669652864725     -3.54347062507680     -0.00753595973677
C   -3.68181849668397      0.70932533873199     -0.00807686886569
C   3.69314758099218     -3.54280096939050      0.00148176697923
C   -1.22143177215231      4.97012866986289      0.00168580605083
C   6.13477145276790      0.68054831910577     -0.00083909176631
C   3.65678936045204      4.97295361556775     -0.00065042889723
C   -2.45512642789169     -2.83421472106065      0.00758666850712
C   -3.68181869921921     -0.70932533146830      0.00810055625144
C   4.89301309775526     -2.82519973363176      0.00021895393805
C   -0.00000059327114      5.65044773803267      0.00045449734393
C   6.13477559217374     -0.68055448207492      0.00042622874941
C   2.47813196269732      5.65357712333155      0.00063835075260
C   1.22142288457925     -4.97012668293268     -0.00129718634452
C   -3.69316190412301      3.54279732619245     -0.00139355922051
C   -1.22142804110313     -4.97011793159564     -0.00140994817719
C   -4.91452132810043      1.42717581899491     -0.00153192130862
C   3.65678749952045     -4.97295485423912      0.00080007163680
C   -2.47813805026426      5.65357479452875      0.00092287576113
C   -3.69314125872231     -3.54278984697859      0.00136564082345
C   -4.91451200321153     -1.42718062802730      0.00139857359209
C   -0.00000552908399     -5.65043791501335      0.00005899322272
C   -4.89302000425900      2.82518897091939     -0.00040227981744
C   2.47812647313991     -5.65357317188818     -0.00029052915548
C   -3.65679823041642      4.97295655404175     -0.00047374852278
C   -4.89299899901461     -2.82519139505969      0.00006491824035
C   -2.47812801824129     -5.65356579800621     -0.00056571680280
C   -6.13477002348955      0.68054913825639     -0.00086464346868
C   -3.65678835334731     -4.97294365097028      0.00058578382008
C   -6.13476456307132     -0.68055354348201      0.00040575295444
H   5.83528897565761      3.36927626695423      0.00396712770529
H   7.07385965258860      1.22821762089947     -0.00037744837300
H   4.60066374401555      5.51238117445323     -0.00014522814529
H   5.83528386714679     -3.36930568472863     -0.00423551337640
H   -0.00001167146422      6.73853104613662     -0.00389474766392
H   7.07386165167227     -1.22822657074368     -0.00008250934481
H   2.47331421164041      6.74068466339473      0.00017162982210
H   4.60066897122302     -5.51237575717576      0.00039007446835
H   -2.47331820069565      6.74068209160650      0.00047297644710
H   -0.00000978838621     -6.73852780445195      0.00458867820736
H   -5.83530143450167      3.36927132229595      0.00410314985360
H   2.47330840367253     -6.74068500242887      0.00027980126949
H   -4.60067436136587      5.51237839860371      0.00002010017831
H   -5.83527902699321     -3.36928859177951     -0.00451481925734
H   -2.47329986759855     -6.74067870613986     -0.00016951527498
H   -7.07385728692578      1.22822084484047     -0.00046143985387
H   -4.60067330624313     -5.51236229778631      0.00021776644566
H   -7.07385645456741     -1.22822025997701     -0.00017736581114

    units angstrom      # Angstroms are the default
    no_reorient         # Geometry fixed, default
    symmetry c1         # C1 symmetry, default
}

set {
    scf_type DF         # Density fitting, faster than exact integrals
    freeze_core True    # Freeze core electrons
    basis jun-cc-pVDZ   # Jun-cc-pVDZ basis set, recommended for sSAPT0 in https://doi.org/10.1063/1.4867135
}

energy('ssapt0')        # Compute sSAPT0 energy, includes also SAPT0
--------------------------------------------------------------------------

  //              Dimer HF             //
    Molecular point group: c1
  Charge       = -1
  Multiplicity = 1
  Basis Set: JUN-CC-PVDZ
    Blend: JUN-CC-PVDZ
  Basis Set: (JUN-CC-PVDZ AUX)
    Blend: JUN-CC-PVDZ-JKFIT
  @DF-RHF Final Energy: -2478.66118314691175
    Total Energy =                      -2478.6611831469126628
 Dipole X            :         -0.0005382            0.0000481           -0.0004901
 Dipole Y            :          0.0009936           -0.0001453            0.0008483
 Dipole Z            :         21.6751908          -28.1993787           -6.5241879
 Magnitude           :                                                    6.5241880
  //            Monomer A HF           //
    Molecular point group: c1
  Multiplicity = 1
  Basis Set: JUN-CC-PVDZ
    Blend: JUN-CC-PVDZ
  Basis Set: (JUN-CC-PVDZ AUX)
    Blend: JUN-CC-PVDZ-JKFIT
  @DF-RHF Final Energy:  -422.77222115763487
    Total Energy =                       -422.7722211576348741
  //            Monomer B HF           //
    Molecular point group: c1

    Geometry (in Angstrom), charge = 0, multiplicity = 1:

       Center              X                  Y                   Z               Mass
    ------------   -----------------  -----------------  -----------------  -----------------
      Gh(B)          -0.000198161052     0.000273808717     4.068645738964    11.009305360000
      Gh(F)          -0.000000401852    -0.000000464183     5.481430738964    18.998403162730
      Gh(F)           1.147859598148     0.675780735817     3.597504738964    18.998403162730
      Gh(F)           0.011917658148    -1.332011464183     3.597706738964    18.998403162730
      Gh(F)          -1.159666401852     0.656073035817     3.597785738964    18.998403162730
         C            1.225311973413     0.707538196736    -0.525250633752    12.000000000000
         C            1.225323934041    -0.707538986754    -0.537581443323    12.000000000000
         C           -0.000006075942     1.414965821907    -0.538115066843    12.000000000000
         C            2.456448831939     1.418327794995    -0.522363776352    12.000000000000
         C            0.000010905269    -1.414976590818    -0.527915509519    12.000000000000
         C           -1.225300870919     0.707545281801    -0.522999113430    12.000000000000
         C            2.456437833310    -1.418323396064    -0.539826600179    12.000000000000
         C           -0.000001254988     2.836800939098    -0.540518616977    12.000000000000
         C            3.681826775460     0.709317863818    -0.539477810382    12.000000000000
         C            2.455120126855     2.834223569306    -0.539580367342    12.000000000000
         C            3.681821183209    -0.709333931612    -0.523405326363    12.000000000000
         C           -1.225313520698    -0.707527607727    -0.536508681896    12.000000000000
         C            1.226699659192     3.543469391811    -0.523221294433    12.000000000000
         C            0.000004862847    -2.836782231419    -0.523067341897    12.000000000000
         C           -2.456435954859     1.418316826102    -0.522963717584    12.000000000000
         C            2.455123495769    -2.834230120772    -0.523557234731    12.000000000000
         C           -1.226714286599     3.543468971567    -0.523117961213    12.000000000000
         C            4.914517373191     1.427172780306    -0.532997127352    12.000000000000
         C            3.693150269466     3.542795200362    -0.532947327716    12.000000000000
         C           -2.456437522078    -1.418313373022    -0.539851638304    12.000000000000
         C            1.226704919933    -3.543474334090    -0.539191425182    12.000000000000
         C           -2.455125320518     2.834216570451    -0.539573990996    12.000000000000
         C            4.914524458772    -1.427187002127    -0.530024384618    12.000000000000
         C            1.221424691688     4.970133973077    -0.529885950358    12.000000000000
         C            4.893008307311     2.825187907843    -0.531780458993    12.000000000000
         C           -1.226696930499    -3.543471089260    -0.538924220773    12.000000000000
         C           -3.681818898536     0.709324874549    -0.539465129902    12.000000000000
         C            3.693147179140    -3.542801433574    -0.529906494057    12.000000000000
         C           -1.221432174004     4.970128205680    -0.529702454985    12.000000000000
         C            6.134771050916     0.680547854922    -0.532227352802    12.000000000000
         C            3.656788958600     4.972953151384    -0.532038689933    12.000000000000
         C           -2.455126829744    -2.834215185244    -0.523801592529    12.000000000000
         C           -3.681819101071    -0.709325795652    -0.523287704785    12.000000000000
         C            4.893012695903    -2.825200197815    -0.531169307098    12.000000000000
         C           -0.000000995123     5.650447273849    -0.530933763692    12.000000000000
         C            6.134775190322    -0.680554946258    -0.530962032287    12.000000000000
         C            2.478131560845     5.653576659148    -0.530749910283    12.000000000000
         C            1.221422482727    -4.970127147116    -0.532685447381    12.000000000000
         C           -3.693162305975     3.542796862009    -0.532781820257    12.000000000000
         C           -1.221428442955    -4.970118395779    -0.532798209213    12.000000000000
         C           -4.914521729952     1.427175354812    -0.532920182345    12.000000000000
         C            3.656787097669    -4.972955318422    -0.530588189399    12.000000000000
         C           -2.478138452116     5.653574330345    -0.530465385275    12.000000000000
         C           -3.693141660574    -3.542790311162    -0.530022620213    12.000000000000
         C           -4.914512405063    -1.427181092211    -0.529989687444    12.000000000000
         C           -0.000005930936    -5.650438379197    -0.531329267813    12.000000000000
         C           -4.893020406111     2.825188506736    -0.531790540853    12.000000000000
         C            2.478126071288    -5.653573636072    -0.531678790191    12.000000000000
         C           -3.656798632268     4.972956089858    -0.531862009559    12.000000000000
         C           -4.892999400866    -2.825191859243    -0.531323342796    12.000000000000
         C           -2.478128420093    -5.653566262190    -0.531953977839    12.000000000000
         C           -6.134770425341     0.680548674073    -0.532252904505    12.000000000000
         C           -3.656788755199    -4.972944115154    -0.530802477216    12.000000000000
         C           -6.134764964923    -0.680554007665    -0.530982508082    12.000000000000
         H            5.835288573806     3.369275802771    -0.527421133331     1.007825032230
         H            7.073859250737     1.228217156716    -0.531765709409     1.007825032230
         H            4.600663342164     5.512380710270    -0.531533489181     1.007825032230
         H            5.835283465295    -3.369306148912    -0.535623774412     1.007825032230
         H           -0.000012073316     6.738530581953    -0.535283008700     1.007825032230
         H            7.073861249820    -1.228227034927    -0.531470770381     1.007825032230
         H            2.473313809789     6.740684199211    -0.531216631214     1.007825032230
         H            4.600668569371    -5.512376221359    -0.530998186568     1.007825032230
         H           -2.473318602548     6.740681627423    -0.530915284589     1.007825032230
         H           -0.000010190238    -6.738528268635    -0.526799582829     1.007825032230
         H           -5.835301836354     3.369270858113    -0.527285111182     1.007825032230
         H            2.473308001821    -6.740685466612    -0.531108459767     1.007825032230
         H           -4.600674763218     5.512377934420    -0.531368160858     1.007825032230
         H           -5.835279428845    -3.369289055963    -0.535903080293     1.007825032230
         H           -2.473300269450    -6.740679170323    -0.531557776311     1.007825032230
         H           -7.073857688778     1.228220380657    -0.531849700890     1.007825032230
         H           -4.600673708095    -5.512362761970    -0.531170494590     1.007825032230
         H           -7.073856856419    -1.228220724160    -0.531565626847     1.007825032230

  Charge       = 0
  Multiplicity = 1
  Basis Set: JUN-CC-PVDZ
    Blend: JUN-CC-PVDZ
  Basis Set: (JUN-CC-PVDZ AUX)
    Blend: JUN-CC-PVDZ-JKFIT

    Orbital Energies [Eh]
    ---------------------

    Doubly Occupied:

       1A    -11.260631     2A    -11.260184     3A    -11.260183
       4A    -11.259452     5A    -11.259452     6A    -11.259275
       7A    -11.259045     8A    -11.258972     9A    -11.258971
      10A    -11.258645    11A    -11.258642    12A    -11.258553
      13A    -11.258496    14A    -11.258491    15A    -11.258488
      16A    -11.258457    17A    -11.258451    18A    -11.258434
      19A    -11.258427    20A    -11.258422    21A    -11.258417
      22A    -11.258338    23A    -11.258334    24A    -11.258064
      25A    -11.257343    26A    -11.257283    27A    -11.257282
      28A    -11.257149    29A    -11.257148    30A    -11.257066
      31A    -11.256437    32A    -11.256367    33A    -11.256367
      34A    -11.256259    35A    -11.256258    36A    -11.256212
      37A    -11.252308    38A    -11.252307    39A    -11.252306
      40A    -11.252304    41A    -11.252302    42A    -11.252300
      43A    -11.251424    44A    -11.251422    45A    -11.251421
      46A    -11.251410    47A    -11.251408    48A    -11.251405
      49A    -11.250870    50A    -11.250869    51A    -11.250867
      52A    -11.250865    53A    -11.250863    54A    -11.250862
      55A     -1.244077    56A     -1.219842    57A     -1.219841
      58A     -1.189573    59A     -1.189566    60A     -1.180962
      61A     -1.157592    62A     -1.149013    63A     -1.135513
      64A     -1.135507    65A     -1.113226    66A     -1.113221
      67A     -1.082458    68A     -1.082451    69A     -1.078623
      70A     -1.066015    71A     -1.066011    72A     -1.039428
      73A     -1.024301    74A     -1.021785    75A     -1.021742
      76A     -1.017763    77A     -1.012831    78A     -0.987048
      79A     -0.987003    80A     -0.961912    81A     -0.961863
      82A     -0.894322    83A     -0.894295    84A     -0.887952
      85A     -0.886205    86A     -0.886147    87A     -0.881423
      88A     -0.881375    89A     -0.861930    90A     -0.837447
      91A     -0.818240    92A     -0.816636    93A     -0.812161
      94A     -0.812152    95A     -0.794721    96A     -0.794710
      97A     -0.746649    98A     -0.744883    99A     -0.733436
     100A     -0.733427   101A     -0.732214   102A     -0.732190
     103A     -0.716520   104A     -0.699004   105A     -0.698993
     106A     -0.693613   107A     -0.693598   108A     -0.661262
     109A     -0.653125   110A     -0.651174   111A     -0.650285
     112A     -0.650279   113A     -0.639393   114A     -0.639391
     115A     -0.629739   116A     -0.627547   117A     -0.627531
     118A     -0.606496   119A     -0.605841   120A     -0.601688
     121A     -0.599763   122A     -0.599732   123A     -0.593667
     124A     -0.591234   125A     -0.591223   126A     -0.585313
     127A     -0.576393   128A     -0.576387   129A     -0.567357
     130A     -0.567343   131A     -0.565979   132A     -0.565960
     133A     -0.558743   134A     -0.554874   135A     -0.554868
     136A     -0.538625   137A     -0.538623   138A     -0.538221
     139A     -0.538215   140A     -0.529748   141A     -0.528188
     142A     -0.522900   143A     -0.522894   144A     -0.500535
     145A     -0.495629   146A     -0.493265   147A     -0.487859
     148A     -0.485099   149A     -0.481784   150A     -0.481776
     151A     -0.470377   152A     -0.470358   153A     -0.451038
     154A     -0.450960   155A     -0.439096   156A     -0.439087
     157A     -0.404778   158A     -0.404755   159A     -0.403406
     160A     -0.375447   161A     -0.375444   162A     -0.349150
     163A     -0.337632   164A     -0.336591   165A     -0.336534
     166A     -0.311113   167A     -0.298133   168A     -0.284374
     169A     -0.284320   170A     -0.224945   171A     -0.224879

  @DF-RHF Final Energy: -2055.89324997699941

   => Energetics <=

    Nuclear Repulsion Energy =           6452.5568002797772351
    One-Electron Energy =              -15636.4735009648029518
    Two-Electron Energy =                7128.0234507080258481
    Total Energy =                      -2055.8932499769998685
 Dipole X            :          0.0000402            0.0000419            0.0000821
 Dipole Y            :          0.0000249           -0.0000426           -0.0000177
 Dipole Z            :        343.4243082         -343.4304146           -0.0061064
 Magnitude           :                                                    0.0061070

    SAPT Results
  --------------------------------------------------------------------------------------------------------
    Electrostatics                 11.98583537 [mEh]       7.52122524 [kcal/mol]      31.46880642 [kJ/mol]
      Elst10,r                     11.98583537 [mEh]       7.52122524 [kcal/mol]      31.46880642 [kJ/mol]

    Exchange                        0.24470150 [mEh]       0.15355251 [kcal/mol]       0.64246369 [kJ/mol]
      Exch10                        0.24470150 [mEh]       0.15355251 [kcal/mol]       0.64246369 [kJ/mol]
      Exch10(S^2)                   0.24471386 [mEh]       0.15356027 [kcal/mol]       0.64249615 [kJ/mol]

    Induction                      -7.94254914 [mEh]      -4.98402483 [kcal/mol]     -20.85315990 [kJ/mol]
      Ind20,r                      -8.05615440 [mEh]      -5.05531321 [kcal/mol]     -21.15143046 [kJ/mol]
      Exch-Ind20,r                  0.04945847 [mEh]       0.03103566 [kcal/mol]       0.12985320 [kJ/mol]
      delta HF,r (2)                0.06414679 [mEh]       0.04025272 [kcal/mol]       0.16841737 [kJ/mol]

    Dispersion                     -3.10537331 [mEh]      -1.94865117 [kcal/mol]      -8.15315651 [kJ/mol]
      Disp20                       -3.17002717 [mEh]      -1.98922208 [kcal/mol]      -8.32290520 [kJ/mol]
      Exch-Disp20                   0.06465386 [mEh]       0.04057091 [kcal/mol]       0.16974869 [kJ/mol]
      Disp20 (SS)                  -1.58501359 [mEh]      -0.99461104 [kcal/mol]      -4.16145260 [kJ/mol]
      Disp20 (OS)                  -1.58501359 [mEh]      -0.99461104 [kcal/mol]      -4.16145260 [kJ/mol]
      Exch-Disp20 (SS)              0.04395953 [mEh]       0.02758502 [kcal/mol]       0.11541574 [kJ/mol]
      Exch-Disp20 (OS)              0.02069433 [mEh]       0.01298589 [kcal/mol]       0.05433295 [kJ/mol]

  Total HF                          4.28798772 [mEh]       2.69075292 [kcal/mol]      11.25811021 [kJ/mol]
  Total SAPT0                       1.18261441 [mEh]       0.74210175 [kcal/mol]       3.10495371 [kJ/mol]

  Special recipe for scaled SAPT0 (see Manual):
    Electrostatics sSAPT0          11.98583537 [mEh]       7.52122524 [kcal/mol]      31.46880642 [kJ/mol]
    Exchange sSAPT0                 0.24470150 [mEh]       0.15355251 [kcal/mol]       0.64246369 [kJ/mol]
    Induction sSAPT0               -7.94255664 [mEh]      -4.98402954 [kcal/mol]     -20.85317958 [kJ/mol]
    Dispersion sSAPT0              -3.10538311 [mEh]      -1.94865732 [kcal/mol]      -8.15318224 [kJ/mol]
  Total sSAPT0                      1.18259711 [mEh]       0.74209089 [kcal/mol]       3.10490829 [kJ/mol]
  --------------------------------------------------------------------------------------------------------

*** Psi4 exiting successfully. Buy a developer a beer!
