                               Psi4 1.9 release

  ==> Input File <==

--------------------------------------------------------------------------
memory 47 GB # how much memory is available ! Depends on the nodes/cores !

molecule dimer {
# monomer A
-1 1    # Charge and multiplicity
B -1.977592e-04  2.742729e-04 -3.999966
F  1.123153e-16  1.430594e-17 -2.587181
F  1.147860e+00  6.757812e-01 -4.471107
F  1.191806e-02 -1.332011e+00 -4.470905
F -1.159666e+00  6.560735e-01 -4.470826
--
# monomer B
0 1     # Charge and multiplicity
C   -3.66844126402057      7.80375217008252      0.00190004133558
C   -4.84759871934653      7.13124183134024     -0.00046653359696
C   -4.89495929917518      5.69633040353158     -0.00103944469517
C   -3.65374067877320      4.98073034095895      0.00662099703436
C   -2.40942512149445      7.11398103667468      0.00209438359570
C   -2.42547734410473      5.68112195090346     -0.00491050527438
C   -1.19474401643570      7.78614419430947      0.00356656413763
C   0.03795902893699      7.09942164575698      0.00139585983271
C   0.03033258741920      5.66948955970466     -0.00408752508301
C   -1.20098450790502      4.96927034791531      0.00488220885047
C   1.27795782581485      7.77285944319479      0.00277170839332
C   2.48535808472416      7.08769688523756      0.00049722048857
C   2.48612868491717      5.65477081024076     -0.00644052849921
C   1.25408291964399      4.95607811366431      0.00518741308898
C   3.75171459140595      7.76391215098033      0.00062407186893
C   4.92356605618520      7.07878077698995     -0.00143240883900
C   4.95560727132542      5.64344746336949     -0.00159282164606
C   3.70680153420475      4.94121020833308      0.00349873852374
H   -3.65852113775815      8.89082741913536      0.00358502958574
H   -1.18921332975660      8.87412108735996      0.00753844057883
H   1.28429423888630      8.86083343548850      0.00693053253426
H   3.75354208679975      8.85103527897216      0.00214659618464
H   5.86995870320703      7.61379483465560     -0.00235777588134
H   -5.78823170750226      7.67630221293400     -0.00202638095293
C   -6.09197395869619      4.99326001364347     -0.00291168518608
C   -6.12866148031747      3.58258016879823     -0.00171050815740
C   -3.66457974004527      3.56418217974434     -0.00463560277484
C   -4.89429820469869      2.86108077590057      0.00453338221034
C   -2.43733499489796      2.84761165708481      0.00719617576166
C   -1.20922785759670      3.54788693497833     -0.00648285103018
C   1.24714157216223      3.53468075142962     -0.00729145743546
C   0.01517603956900      2.83311183930540      0.00439272578912
C   2.46764517244071      2.82128997725533      0.00449278391269
C   3.70254947457969      3.52466015442405     -0.00899517692985
C   6.14498038638375      4.92757236613191     -0.00282626685777
C   6.16658835886151      3.51658447594213     -0.00065971342101
C   4.92460995845939      2.80840792535402      0.00587903281610
H   7.08990550964105      5.46688776622306     -0.00658814770723
H   -7.03104175110130      5.54268795285765     -0.00714490013730
C   -7.33969804112295      2.85841153457957     -0.00333767559888
C   -7.36488195805880      1.47032337158330     -0.00157213747140
C   -4.90350460894690      1.44442681216000     -0.00628840166334
C   -6.13225715261081      0.73993935705394      0.00600164231964
C   -3.67687480051673      0.72669714267312      0.00433931473643
C   -2.44565658606518      1.42964113326212     -0.00597039546461
C   -1.22360068130162      0.71532450163492      0.00545886906656
C   0.00763786931376      1.41738314923765      0.00392452278437
C   1.23121980774686      0.70211669058719     -0.01490206287210
C   2.46082110053113      1.40329203612573      0.00460244601878
C   3.68443025419614      0.68719842821222      0.00377365974158
C   4.91870890153864      1.39173456118907     -0.00862816189375
C   7.36980207796101      2.77948220318441     -0.00242013321349
C   7.38016266612146      1.39121750785509     -0.00087345036788
C   6.13979953912259      0.67411862320065      0.00545489144369
H   -8.27919079934664      3.40711804112415     -0.00763522772059
H   8.31511347147953      3.31811809662368     -0.00663070901292
C   -8.59175593758115      0.72483255304480     -0.00123170985383
C   -8.59902460370342     -0.63263980622873      0.00089141472904
C   -6.13981313911873     -0.67413663715361     -0.00609792660607
C   -7.38018411213749     -1.39126618958160      0.00131813493501
C   -4.91868448025621     -1.39175501803000      0.00624257154343
C   -3.68443829568458     -0.68723731573599     -0.00478966852105
C   -2.46081704024768     -1.40334517882457      0.00575341766833
C   -1.23116201232071     -0.70217386488055     -0.00636696112346
C   -0.00756962538737     -1.41741884941102      0.00108956317991
C   1.22364771588843     -0.71527537726392      0.01109518512883
C   2.44567064933149     -1.42964328900682     -0.00065482763106
C   3.67686670284649     -0.72670743155550     -0.00479541202602
C   6.13224884641929     -0.73997883984993     -0.00632338623858
C   4.90351914550401     -1.44445752054090      0.00751768830159
C   8.59901484869081      0.63260386666793     -0.00101133422380
C   8.59174548810050     -0.72485086719319      0.00072504603735
C   7.36486276438985     -1.47033266560598      0.00049486934466
H   -9.52830597181814      1.27684744919284     -0.00270163681798
H   9.54141097460619      1.17457248844457     -0.00206336648518
C   -7.36983790976868     -2.77954514593389      0.00312634335708
C   -4.92459910905015     -2.80843725734101     -0.00460528907921
C   -6.16662249566744     -3.51665219282533      0.00169655107992
C   -3.70251035970491     -3.52468154912026      0.00571878010666
C   -2.46764698511392     -2.82132596280400     -0.00632585824990
C   -0.01513347410770     -2.83314164539971     -0.00604426974092
C   -1.24712184122656     -3.53473217556300      0.00551968366725
C   1.20924506964357     -3.54791467864352      0.00805871345849
C   2.43733602215464     -2.84764173817541     -0.00608104485234
C   4.89430234377080     -2.86112296828604     -0.00526030478103
C   3.66461525504104     -3.56421984553201      0.00761911515957
C   6.12863901474565     -3.58258405771778      0.00096495711699
C   7.33967266469532     -2.85841330737039      0.00248018319869
H   -9.54144911125902     -1.17456346666430      0.00226083090216
H   9.52826186807155     -1.27691907390448      0.00197485379837
H   -8.31516504384864     -3.31814985321231      0.00729857188773
H   8.27915514249207     -3.40714078989363      0.00681973918158
C   -6.14499418870218     -4.92764727278338      0.00302254913999
C   -3.70678334799751     -4.94126171411716     -0.00679841894792
C   -4.95559005800169     -5.64349397349412      0.00116871569699
C   -2.48612132622665     -5.65478557440947      0.00614125209662
C   -1.25405833548005     -4.95612205000132     -0.00503435388927
C   1.20101257386816     -4.96928038819302     -0.00385322963129
C   -0.03033667441341     -5.66952030313900      0.00398997003238
C   3.65375010132847     -4.98074377541453     -0.00309522988330
C   2.42549269587528     -5.68117463552727      0.00628170066869
C   6.09196561781097     -4.99325796338655      0.00325918379042
C   4.89497644461045     -5.69634842095790      0.00202298796027
H   -7.08989238804069     -5.46699984223871      0.00742531082125
H   7.03105520920009     -5.54265853633254      0.00683896355417
C   -4.92354532219813     -7.07882109967734      0.00061394679214
C   -2.48534208823777     -7.08772807792913     -0.00189594564379
C   -3.75168589177895     -7.76394715763627     -0.00170126671874
C   -0.03794895698805     -7.09946487446944     -0.00168022049625
C   -1.27795610040136     -7.77290438466689     -0.00366491325785
C   2.40944432072629     -7.11402201200282     -0.00081701968533
C   1.19474993715296     -7.78618536556242     -0.00296931056689
C   4.84762105249800     -7.13126211057943      0.00168979497423
C   3.66847160587561     -7.80378799294376     -0.00065863938960
H   -5.86994035041618     -7.61383059804164      0.00215798365757
H   5.78824962538815     -7.67633218931421      0.00281691445618
H   -3.75352693944918     -8.85107156923607     -0.00353718114765
H   -1.28430440589466     -8.86087539249706     -0.00809229711623
H   1.18922157469537     -8.87416062058945     -0.00706194725726
H   3.65854661482387     -8.89086063405326     -0.00231318081200

    units angstrom      # Angstroms are the default
    no_reorient         # Geometry fixed, default
    symmetry c1         # C1 symmetry, default
}

set {
    scf_type DF         # Density fitting, faster than exact integrals
    freeze_core True    # Freeze core electrons
    basis jun-cc-pVDZ   # Jun-cc-pVDZ basis set, recommended for sSAPT0 in https://doi.org/10.1063/1.4867135
}

energy('ssapt0')        # Compute sSAPT0 energy, includes also SAPT0
--------------------------------------------------------------------------

  //              Dimer HF             //
    Molecular point group: c1
  Charge       = -1
  Multiplicity = 1
  Basis Set: JUN-CC-PVDZ
    Blend: JUN-CC-PVDZ
  Basis Set: (JUN-CC-PVDZ AUX)
    Blend: JUN-CC-PVDZ-JKFIT
  @DF-RHF Final Energy: -4073.10948579465276
    Total Energy =                      -4073.1094857946518459
 Dipole X            :          0.0004623           -0.0000548            0.0004075
 Dipole Y            :          0.0008572           -0.0002464            0.0006109
 Dipole Z            :        -18.2516670           23.8041597            5.5524927
 Magnitude           :                                                    5.5524927
  //            Monomer A HF           //
    Molecular point group: c1
  Multiplicity = 1
  Basis Set: JUN-CC-PVDZ
    Blend: JUN-CC-PVDZ
  Basis Set: (JUN-CC-PVDZ AUX)
    Blend: JUN-CC-PVDZ-JKFIT
  @DF-RHF Final Energy:  -422.77304041561860
    Total Energy =                       -422.7730404156185955
  //            Monomer B HF           //
    Molecular point group: c1

    Geometry (in Angstrom), charge = 0, multiplicity = 1:

       Center              X                  Y                   Z               Mass
    ------------   -----------------  -----------------  -----------------  -----------------
      Gh(B)          -0.000201921932     0.000288800891    -3.724467053160    11.009305360000
      Gh(F)          -0.000004162732     0.000014527991    -2.311682053160    18.998403162730
      Gh(F)           1.147855837268     0.675795727991    -4.195608053160    18.998403162730
      Gh(F)           0.011913897268    -1.331996472009    -4.195406053160    18.998403162730
      Gh(F)          -1.159670162732     0.656088027991    -4.195327053160    18.998403162730
         C           -3.668445426752     7.803766698073     0.277398988175    12.000000000000
         C           -4.847602882078     7.131256359331     0.275032413243    12.000000000000
         C           -4.894963461907     5.696344931522     0.274459502145    12.000000000000
         C           -3.653744841505     4.980744868950     0.282119943874    12.000000000000
         C           -2.409429284226     7.113995564665     0.277593330436    12.000000000000
         C           -2.425481506836     5.681136478894     0.270588441566    12.000000000000
         C           -1.194748179167     7.786158722300     0.279065510978    12.000000000000
         C            0.037954866205     7.099436173748     0.276894806673    12.000000000000
         C            0.030328424687     5.669504087695     0.271411421757    12.000000000000
         C           -1.200988670637     4.969284875906     0.280381155690    12.000000000000
         C            1.277953663083     7.772873971185     0.278270655233    12.000000000000
         C            2.485353921992     7.087711413228     0.275996167328    12.000000000000
         C            2.486124522185     5.654785338231     0.269058418341    12.000000000000
         C            1.254078756912     4.956092641655     0.280686359929    12.000000000000
         C            3.751710428674     7.763926678971     0.276123018709    12.000000000000
         C            4.923561893453     7.078795304981     0.274066538001    12.000000000000
         C            4.955603108594     5.643461991360     0.273906125194    12.000000000000
         C            3.706797371473     4.941224736324     0.278997685364    12.000000000000
         H           -3.658525300490     8.890841947126     0.279083976426     1.007825032230
         H           -1.189217492488     8.874135615351     0.283037387419     1.007825032230
         H            1.284290076155     8.860847963479     0.282429479374     1.007825032230
         H            3.753537924068     8.851049806963     0.277645543025     1.007825032230
         H            5.869954540475     7.613809362646     0.273141170959     1.007825032230
         H           -5.788235870234     7.676316740925     0.273472565887     1.007825032230
         C           -6.091978121428     4.993274541634     0.272587261654    12.000000000000
         C           -6.128665643049     3.582594696789     0.273788438683    12.000000000000
         C           -3.664583902777     3.564196707735     0.270863344065    12.000000000000
         C           -4.894302367430     2.861095303891     0.280032329050    12.000000000000
         C           -2.437339157630     2.847626185075     0.282695122602    12.000000000000
         C           -1.209232020328     3.547901462969     0.269016095810    12.000000000000
         C            1.247137409430     3.534695279420     0.268207489404    12.000000000000
         C            0.015171876837     2.833126367296     0.279891672629    12.000000000000
         C            2.467641009709     2.821304505246     0.279991730753    12.000000000000
         C            3.702545311848     3.524674682415     0.266503769910    12.000000000000
         C            6.144976223652     4.927586894122     0.272672679982    12.000000000000
         C            6.166584196130     3.516599003933     0.274839233419    12.000000000000
         C            4.924605795728     2.808422453345     0.281377979656    12.000000000000
         H            7.089901346909     5.466902294214     0.268910799133     1.007825032230
         H           -7.031045913833     5.542702480848     0.268354046703     1.007825032230
         C           -7.339702203855     2.858426062570     0.272161271241    12.000000000000
         C           -7.364886120791     1.470337899574     0.273926809369    12.000000000000
         C           -4.903508771679     1.444441340151     0.269210545177    12.000000000000
         C           -6.132261315343     0.739953885044     0.281500589160    12.000000000000
         C           -3.676878963248     0.726711670664     0.279838261576    12.000000000000
         C           -2.445660748797     1.429655661253     0.269528551375    12.000000000000
         C           -1.223604844033     0.715339029625     0.280957815906    12.000000000000
         C            0.007633706582     1.417397677228     0.279423469624    12.000000000000
         C            1.231215645015     0.702131218578     0.260596883968    12.000000000000
         C            2.460816937799     1.403306564116     0.280101392859    12.000000000000
         C            3.684426091464     0.687212956203     0.279272606581    12.000000000000
         C            4.918704738807     1.391749089180     0.266870784946    12.000000000000
         C            7.369797915229     2.779496731175     0.273078813626    12.000000000000
         C            7.380158503390     1.391232035846     0.274625496472    12.000000000000
         C            6.139795376391     0.674133151191     0.280953838284    12.000000000000
         H           -8.279194962078     3.407132569115     0.267863719119     1.007825032230
         H            8.315109308748     3.318132624614     0.268868237827     1.007825032230
         C           -8.591760100313     0.724847081035     0.274267236986    12.000000000000
         C           -8.599028766435    -0.632625278238     0.276390361569    12.000000000000
         C           -6.139817301850    -0.674122109163     0.269401020234    12.000000000000
         C           -7.380188274869    -1.391251661591     0.276817081775    12.000000000000
         C           -4.918688642988    -1.391740490039     0.281741518383    12.000000000000
         C           -3.684442458416    -0.687222787745     0.270709278319    12.000000000000
         C           -2.460821202979    -1.403330650834     0.281252364508    12.000000000000
         C           -1.231166175052    -0.702159336890     0.269131985716    12.000000000000
         C           -0.007573788119    -1.417404321420     0.276588510020    12.000000000000
         C            1.223643553157    -0.715260849273     0.286594131969    12.000000000000
         C            2.445666486600    -1.429628761016     0.274844119209    12.000000000000
         C            3.676862540115    -0.726692903565     0.270703534814    12.000000000000
         C            6.132244683688    -0.739964311859     0.269175560601    12.000000000000
         C            4.903514982772    -1.444442992550     0.283016635141    12.000000000000
         C            8.599010685959     0.632618394658     0.274487612616    12.000000000000
         C            8.591741325369    -0.724836339203     0.276223992877    12.000000000000
         C            7.364858601658    -1.470318137615     0.275993816185    12.000000000000
         H           -9.528310134550     1.276861977183     0.272797310022     1.007825032230
         H            9.541406811874     1.174587016435     0.273435580355     1.007825032230
         C           -7.369842072500    -2.779530617943     0.278625290197    12.000000000000
         C           -4.924603271782    -2.808422729350     0.270893657761    12.000000000000
         C           -6.166626658399    -3.516637664835     0.277195497920    12.000000000000
         C           -3.702514522437    -3.524667021130     0.281217726947    12.000000000000
         C           -2.467651147846    -2.821311434813     0.269173088590    12.000000000000
         C           -0.015137636839    -2.833127117409     0.269454677099    12.000000000000
         C           -1.247126003958    -3.534717647572     0.281018630507    12.000000000000
         C            1.209240906912    -3.547900150653     0.283557660298    12.000000000000
         C            2.437331859423    -2.847627210185     0.269417901988    12.000000000000
         C            4.894298181039    -2.861108440295     0.270238642059    12.000000000000
         C            3.664611092309    -3.564205317541     0.283118061999    12.000000000000
         C            6.128634852014    -3.582569529727     0.276463903957    12.000000000000
         C            7.339668501964    -2.858398779380     0.277979130039    12.000000000000
         H           -9.541453273991    -1.174548938674     0.277759777742     1.007825032230
         H            9.528257705340    -1.276904545914     0.277473800638     1.007825032230
         H           -8.315169206580    -3.318135325222     0.282797518728     1.007825032230
         H            8.279150979760    -3.407126261903     0.282318686021     1.007825032230
         C           -6.144998351434    -4.927632744793     0.278521495980    12.000000000000
         C           -3.706787510729    -4.941247186127     0.268700527892    12.000000000000
         C           -4.955594220733    -5.643479445504     0.276667662537    12.000000000000
         C           -2.486125488958    -5.654771046419     0.281640198937    12.000000000000
         C           -1.254062498212    -4.956107522011     0.270464592951    12.000000000000
         C            1.201008411136    -4.969265860202     0.271645717209    12.000000000000
         C           -0.030340837145    -5.669505775148     0.279488916872    12.000000000000
         C            3.653745938597    -4.980729247424     0.272403716957    12.000000000000
         C            2.425488533144    -5.681160107537     0.281780647509    12.000000000000
         C            6.091961455079    -4.993243435396     0.278758130630    12.000000000000
         C            4.894972281879    -5.696333892967     0.277521934800    12.000000000000
         H           -7.089896550772    -5.466985314248     0.282924257661     1.007825032230
         H            7.031051046468    -5.542644008342     0.282337910394     1.007825032230
         C           -4.923549484930    -7.078806571687     0.276112893632    12.000000000000
         C           -2.485346250970    -7.087713549939     0.273603001196    12.000000000000
         C           -3.751690054511    -7.763932629646     0.273797680121    12.000000000000
         C           -0.037953119720    -7.099450346479     0.273818726344    12.000000000000
         C           -1.277960263133    -7.772889856676     0.271834033582    12.000000000000
         C            2.409440157995    -7.114007484012     0.274681927155    12.000000000000
         C            1.194745774421    -7.786170837572     0.272529636273    12.000000000000
         C            4.847616889766    -7.131247582589     0.277188741814    12.000000000000
         C            3.668467443144    -7.803773464953     0.274840307450    12.000000000000
         H           -5.869944513148    -7.613816070051     0.277656930497     1.007825032230
         H            5.788245462656    -7.676317661324     0.278315861296     1.007825032230
         H           -3.753531102181    -8.851057041246     0.271961765692     1.007825032230
         H           -1.284308568626    -8.860860864507     0.267406649724     1.007825032230
         H            1.189217411964    -8.874146092599     0.268436999583     1.007825032230
         H            3.658542452092    -8.890846106063     0.273185766028     1.007825032230

  Charge       = 0
  Multiplicity = 1
  Basis Set: JUN-CC-PVDZ
    Blend: JUN-CC-PVDZ
  Basis Set: (JUN-CC-PVDZ AUX)
    Blend: JUN-CC-PVDZ-JKFIT

    Orbital Energies [Eh]
    ---------------------

    Doubly Occupied:

       1A    -11.264103     2A    -11.263743     3A    -11.263739
       4A    -11.263325     5A    -11.263322     6A    -11.263289
       7A    -11.263141     8A    -11.263138     9A    -11.263132
      10A    -11.262910    11A    -11.262783    12A    -11.262778
      13A    -11.262289    14A    -11.262285    15A    -11.262261
      16A    -11.262261    17A    -11.262153    18A    -11.262148
      19A    -11.262095    20A    -11.262058    21A    -11.262056
      22A    -11.261945    23A    -11.261942    24A    -11.261785
      25A    -11.261782    26A    -11.261759    27A    -11.261752
      28A    -11.261716    29A    -11.261708    30A    -11.261617
      31A    -11.261595    32A    -11.261591    33A    -11.261579
      34A    -11.261561    35A    -11.261559    36A    -11.261537
      37A    -11.261365    38A    -11.261357    39A    -11.261351
      40A    -11.261345    41A    -11.261340    42A    -11.261335
      43A    -11.261321    44A    -11.261305    45A    -11.261300
      46A    -11.261278    47A    -11.261274    48A    -11.261270
      49A    -11.261090    50A    -11.261056    51A    -11.261053
      52A    -11.260973    53A    -11.260972    54A    -11.260912
      55A    -11.259956    56A    -11.259943    57A    -11.259940
      58A    -11.259911    59A    -11.259909    60A    -11.259893
      61A    -11.259329    62A    -11.259303    63A    -11.259301
      64A    -11.259248    65A    -11.259246    66A    -11.259217
      67A    -11.258959    68A    -11.258941    69A    -11.258939
      70A    -11.258911    71A    -11.258909    72A    -11.258897
      73A    -11.254555    74A    -11.254555    75A    -11.254550
      76A    -11.254549    77A    -11.254548    78A    -11.254546
      79A    -11.253688    80A    -11.253687    81A    -11.253685
      82A    -11.253683    83A    -11.253682    84A    -11.253678
      85A    -11.253604    86A    -11.253603    87A    -11.253600
      88A    -11.253598    89A    -11.253598    90A    -11.253593
      91A    -11.253083    92A    -11.253082    93A    -11.253078
      94A    -11.253076    95A    -11.253075    96A    -11.253074
      97A     -1.253990    98A     -1.239042    99A     -1.239042
     100A     -1.220507   101A     -1.220502   102A     -1.215483
     103A     -1.201083   104A     -1.195646   105A     -1.188181
     106A     -1.188179   107A     -1.173804   108A     -1.173801
     109A     -1.155670   110A     -1.155667   111A     -1.152762
     112A     -1.144761   113A     -1.144758   114A     -1.128612
     115A     -1.114756   116A     -1.113202   117A     -1.112521
     118A     -1.112507   119A     -1.111656   120A     -1.088470
     121A     -1.088455   122A     -1.076999   123A     -1.076997
     124A     -1.067654   125A     -1.067625   126A     -1.065017
     127A     -1.046842   128A     -1.046835   129A     -1.040524
     130A     -1.038772   131A     -1.038771   132A     -1.025279
     133A     -1.021430   134A     -1.021380   135A     -1.007220
     136A     -1.006855   137A     -1.003833   138A     -1.000529
     139A     -1.000481   140A     -0.991110   141A     -0.971030
     142A     -0.970982   143A     -0.955920   144A     -0.955865
     145A     -0.905634   146A     -0.905591   147A     -0.905585
     148A     -0.905545   149A     -0.904384   150A     -0.892416
     151A     -0.892356   152A     -0.890404   153A     -0.890346
     154A     -0.889498   155A     -0.872255   156A     -0.869089
     157A     -0.851577   158A     -0.847912   159A     -0.847890
     160A     -0.845636   161A     -0.843061   162A     -0.834605
     163A     -0.834593   164A     -0.828152   165A     -0.828148
     166A     -0.784587   167A     -0.784576   168A     -0.783698
     169A     -0.783671   170A     -0.782330   171A     -0.782310
     172A     -0.782080   173A     -0.767033   174A     -0.760841
     175A     -0.750608   176A     -0.733520   177A     -0.727112
     178A     -0.727098   179A     -0.725124   180A     -0.724582
     181A     -0.724564   182A     -0.718526   183A     -0.713814
     184A     -0.713808   185A     -0.699613   186A     -0.699601
     187A     -0.686167   188A     -0.685995   189A     -0.685992
     190A     -0.682213   191A     -0.682202   192A     -0.678804
     193A     -0.653658   194A     -0.650909   195A     -0.650880
     196A     -0.649851   197A     -0.649835   198A     -0.649603
     199A     -0.640969   200A     -0.640942   201A     -0.640125
     202A     -0.639198   203A     -0.636056   204A     -0.636029
     205A     -0.629183   206A     -0.617756   207A     -0.615339
     208A     -0.615319   209A     -0.608839   210A     -0.608833
     211A     -0.599133   212A     -0.599097   213A     -0.598782
     214A     -0.598649   215A     -0.598625   216A     -0.598067
     217A     -0.595103   218A     -0.595090   219A     -0.594758
     220A     -0.594271   221A     -0.591992   222A     -0.591989
     223A     -0.587428   224A     -0.577826   225A     -0.577816
     226A     -0.575677   227A     -0.575673   228A     -0.573418
     229A     -0.569615   230A     -0.568179   231A     -0.568156
     232A     -0.566790   233A     -0.566780   234A     -0.560944
     235A     -0.558754   236A     -0.558735   237A     -0.558458
     238A     -0.554404   239A     -0.550573   240A     -0.547504
     241A     -0.544284   242A     -0.535020   243A     -0.534982
     244A     -0.533568   245A     -0.533546   246A     -0.528111
     247A     -0.528096   248A     -0.527830   249A     -0.517196
     250A     -0.517162   251A     -0.515373   252A     -0.515368
     253A     -0.509676   254A     -0.509660   255A     -0.498063
     256A     -0.496483   257A     -0.496457   258A     -0.493779
     259A     -0.493768   260A     -0.489462   261A     -0.481484
     262A     -0.477438   263A     -0.477434   264A     -0.474028
     265A     -0.469479   266A     -0.466561   267A     -0.466557
     268A     -0.458808   269A     -0.446724   270A     -0.446664
     271A     -0.441045   272A     -0.440791   273A     -0.440767
     274A     -0.434707   275A     -0.433926   276A     -0.407388
     277A     -0.407364   278A     -0.386406   279A     -0.386358
     280A     -0.385752   281A     -0.385751   282A     -0.383759
     283A     -0.354344   284A     -0.354327   285A     -0.350668
     286A     -0.338077   287A     -0.335619   288A     -0.335548
     289A     -0.332731   290A     -0.332725   291A     -0.307073
     292A     -0.301936   293A     -0.301873   294A     -0.300869
     295A     -0.286184   296A     -0.256488   297A     -0.253506
     298A     -0.253453   299A     -0.204276   300A     -0.204187

  @DF-RHF Final Energy: -3650.33930495105642

   => Energetics <=

    Nuclear Repulsion Energy =          15611.4211649754324753
    One-Electron Energy =              -36072.1261825676483568
    Two-Electron Energy =               16810.3657126411599165
    Total Energy =                      -3650.3393049510559649
 Dipole X            :         -0.0002172            0.0002304            0.0000132
 Dipole Y            :          0.0012746           -0.0013052           -0.0000306
 Dipole Z            :       -312.3711074          312.3739263            0.0028190
 Magnitude           :                                                    0.0028192

    SAPT Results
  --------------------------------------------------------------------------------------------------------
    Electrostatics                  6.62281298 [mEh]       4.15587789 [kcal/mol]      17.38819308 [kJ/mol]
      Elst10,r                      6.62281298 [mEh]       4.15587789 [kcal/mol]      17.38819308 [kJ/mol]

    Exchange                       13.13353499 [mEh]       8.24141763 [kcal/mol]      34.48209137 [kJ/mol]
      Exch10                       13.13353499 [mEh]       8.24141763 [kcal/mol]      34.48209137 [kJ/mol]
      Exch10(S^2)                  13.11839585 [mEh]       8.23191768 [kcal/mol]      34.44234356 [kJ/mol]

    Induction                     -16.89677595 [mEh]     -10.60288698 [kcal/mol]     -44.36247914 [kJ/mol]
      Ind20,r                     -19.64755493 [mEh]     -12.32902686 [kcal/mol]     -51.58464836 [kJ/mol]
      Exch-Ind20,r                  3.66014913 [mEh]       2.29677825 [kcal/mol]       9.60972022 [kJ/mol]
      delta HF,r (2)               -0.90937015 [mEh]      -0.57063838 [kcal/mol]      -2.38755099 [kJ/mol]

    Dispersion                     -9.09860671 [mEh]      -5.70946191 [kcal/mol]     -23.88838863 [kJ/mol]
      Disp20                      -10.63099364 [mEh]      -6.67104922 [kcal/mol]     -27.91166995 [kJ/mol]
      Exch-Disp20                   1.53238693 [mEh]       0.96158731 [kcal/mol]       4.02328133 [kJ/mol]
      Disp20 (SS)                  -5.31549682 [mEh]      -3.33552461 [kcal/mol]     -13.95583498 [kJ/mol]
      Disp20 (OS)                  -5.31549682 [mEh]      -3.33552461 [kcal/mol]     -13.95583498 [kJ/mol]
      Exch-Disp20 (SS)              0.87130444 [mEh]       0.54675179 [kcal/mol]       2.28760950 [kJ/mol]
      Exch-Disp20 (OS)              0.66108249 [mEh]       0.41483552 [kcal/mol]       1.73567183 [kJ/mol]

  Total HF                          2.85957202 [mEh]       1.79440853 [kcal/mol]       7.50780531 [kJ/mol]
  Total SAPT0                      -6.23903469 [mEh]      -3.91505337 [kcal/mol]     -16.38058332 [kJ/mol]

  Special recipe for scaled SAPT0 (see Manual):
    Electrostatics sSAPT0           6.62281298 [mEh]       4.15587789 [kcal/mol]      17.38819308 [kJ/mol]
    Exchange sSAPT0                13.13353499 [mEh]       8.24141763 [kcal/mol]      34.48209137 [kJ/mol]
    Induction sSAPT0              -16.88408945 [mEh]     -10.59492609 [kcal/mol]     -44.32917075 [kJ/mol]
    Dispersion sSAPT0              -9.09329528 [mEh]      -5.70612894 [kcal/mol]     -23.87444347 [kJ/mol]
  Total sSAPT0                     -6.22103677 [mEh]      -3.90375951 [kcal/mol]     -16.33332978 [kJ/mol]
  --------------------------------------------------------------------------------------------------------

*** Psi4 exiting successfully. Buy a developer a beer!
