                               Psi4 1.9 release

  ==> Input File <==

--------------------------------------------------------------------------
memory 47 GB # how much memory is available ! Depends on the nodes/cores !

molecule dimer {
# monomer A
-1 1    # Charge and multiplicity
B -1.977592e-04  2.742729e-04 -7.999966
F  1.123153e-16  1.430594e-17 -6.587181
F  1.147860e+00  6.757812e-01 -8.471107
F  1.191806e-02 -1.332011e+00 -8.470905
F -1.159666e+00  6.560735e-01 -8.470826
--
# monomer B
0 1     # Charge and multiplicity
C   -3.66844126402057      7.80375217008252      0.00190004133558
C   -4.84759871934653      7.13124183134024     -0.00046653359696
C   -4.89495929917518      5.69633040353158     -0.00103944469517
C   -3.65374067877320      4.98073034095895      0.00662099703436
C   -2.40942512149445      7.11398103667468      0.00209438359570
C   -2.42547734410473      5.68112195090346     -0.00491050527438
C   -1.19474401643570      7.78614419430947      0.00356656413763
C   0.03795902893699      7.09942164575698      0.00139585983271
C   0.03033258741920      5.66948955970466     -0.00408752508301
C   -1.20098450790502      4.96927034791531      0.00488220885047
C   1.27795782581485      7.77285944319479      0.00277170839332
C   2.48535808472416      7.08769688523756      0.00049722048857
C   2.48612868491717      5.65477081024076     -0.00644052849921
C   1.25408291964399      4.95607811366431      0.00518741308898
C   3.75171459140595      7.76391215098033      0.00062407186893
C   4.92356605618520      7.07878077698995     -0.00143240883900
C   4.95560727132542      5.64344746336949     -0.00159282164606
C   3.70680153420475      4.94121020833308      0.00349873852374
H   -3.65852113775815      8.89082741913536      0.00358502958574
H   -1.18921332975660      8.87412108735996      0.00753844057883
H   1.28429423888630      8.86083343548850      0.00693053253426
H   3.75354208679975      8.85103527897216      0.00214659618464
H   5.86995870320703      7.61379483465560     -0.00235777588134
H   -5.78823170750226      7.67630221293400     -0.00202638095293
C   -6.09197395869619      4.99326001364347     -0.00291168518608
C   -6.12866148031747      3.58258016879823     -0.00171050815740
C   -3.66457974004527      3.56418217974434     -0.00463560277484
C   -4.89429820469869      2.86108077590057      0.00453338221034
C   -2.43733499489796      2.84761165708481      0.00719617576166
C   -1.20922785759670      3.54788693497833     -0.00648285103018
C   1.24714157216223      3.53468075142962     -0.00729145743546
C   0.01517603956900      2.83311183930540      0.00439272578912
C   2.46764517244071      2.82128997725533      0.00449278391269
C   3.70254947457969      3.52466015442405     -0.00899517692985
C   6.14498038638375      4.92757236613191     -0.00282626685777
C   6.16658835886151      3.51658447594213     -0.00065971342101
C   4.92460995845939      2.80840792535402      0.00587903281610
H   7.08990550964105      5.46688776622306     -0.00658814770723
H   -7.03104175110130      5.54268795285765     -0.00714490013730
C   -7.33969804112295      2.85841153457957     -0.00333767559888
C   -7.36488195805880      1.47032337158330     -0.00157213747140
C   -4.90350460894690      1.44442681216000     -0.00628840166334
C   -6.13225715261081      0.73993935705394      0.00600164231964
C   -3.67687480051673      0.72669714267312      0.00433931473643
C   -2.44565658606518      1.42964113326212     -0.00597039546461
C   -1.22360068130162      0.71532450163492      0.00545886906656
C   0.00763786931376      1.41738314923765      0.00392452278437
C   1.23121980774686      0.70211669058719     -0.01490206287210
C   2.46082110053113      1.40329203612573      0.00460244601878
C   3.68443025419614      0.68719842821222      0.00377365974158
C   4.91870890153864      1.39173456118907     -0.00862816189375
C   7.36980207796101      2.77948220318441     -0.00242013321349
C   7.38016266612146      1.39121750785509     -0.00087345036788
C   6.13979953912259      0.67411862320065      0.00545489144369
H   -8.27919079934664      3.40711804112415     -0.00763522772059
H   8.31511347147953      3.31811809662368     -0.00663070901292
C   -8.59175593758115      0.72483255304480     -0.00123170985383
C   -8.59902460370342     -0.63263980622873      0.00089141472904
C   -6.13981313911873     -0.67413663715361     -0.00609792660607
C   -7.38018411213749     -1.39126618958160      0.00131813493501
C   -4.91868448025621     -1.39175501803000      0.00624257154343
C   -3.68443829568458     -0.68723731573599     -0.00478966852105
C   -2.46081704024768     -1.40334517882457      0.00575341766833
C   -1.23116201232071     -0.70217386488055     -0.00636696112346
C   -0.00756962538737     -1.41741884941102      0.00108956317991
C   1.22364771588843     -0.71527537726392      0.01109518512883
C   2.44567064933149     -1.42964328900682     -0.00065482763106
C   3.67686670284649     -0.72670743155550     -0.00479541202602
C   6.13224884641929     -0.73997883984993     -0.00632338623858
C   4.90351914550401     -1.44445752054090      0.00751768830159
C   8.59901484869081      0.63260386666793     -0.00101133422380
C   8.59174548810050     -0.72485086719319      0.00072504603735
C   7.36486276438985     -1.47033266560598      0.00049486934466
H   -9.52830597181814      1.27684744919284     -0.00270163681798
H   9.54141097460619      1.17457248844457     -0.00206336648518
C   -7.36983790976868     -2.77954514593389      0.00312634335708
C   -4.92459910905015     -2.80843725734101     -0.00460528907921
C   -6.16662249566744     -3.51665219282533      0.00169655107992
C   -3.70251035970491     -3.52468154912026      0.00571878010666
C   -2.46764698511392     -2.82132596280400     -0.00632585824990
C   -0.01513347410770     -2.83314164539971     -0.00604426974092
C   -1.24712184122656     -3.53473217556300      0.00551968366725
C   1.20924506964357     -3.54791467864352      0.00805871345849
C   2.43733602215464     -2.84764173817541     -0.00608104485234
C   4.89430234377080     -2.86112296828604     -0.00526030478103
C   3.66461525504104     -3.56421984553201      0.00761911515957
C   6.12863901474565     -3.58258405771778      0.00096495711699
C   7.33967266469532     -2.85841330737039      0.00248018319869
H   -9.54144911125902     -1.17456346666430      0.00226083090216
H   9.52826186807155     -1.27691907390448      0.00197485379837
H   -8.31516504384864     -3.31814985321231      0.00729857188773
H   8.27915514249207     -3.40714078989363      0.00681973918158
C   -6.14499418870218     -4.92764727278338      0.00302254913999
C   -3.70678334799751     -4.94126171411716     -0.00679841894792
C   -4.95559005800169     -5.64349397349412      0.00116871569699
C   -2.48612132622665     -5.65478557440947      0.00614125209662
C   -1.25405833548005     -4.95612205000132     -0.00503435388927
C   1.20101257386816     -4.96928038819302     -0.00385322963129
C   -0.03033667441341     -5.66952030313900      0.00398997003238
C   3.65375010132847     -4.98074377541453     -0.00309522988330
C   2.42549269587528     -5.68117463552727      0.00628170066869
C   6.09196561781097     -4.99325796338655      0.00325918379042
C   4.89497644461045     -5.69634842095790      0.00202298796027
H   -7.08989238804069     -5.46699984223871      0.00742531082125
H   7.03105520920009     -5.54265853633254      0.00683896355417
C   -4.92354532219813     -7.07882109967734      0.00061394679214
C   -2.48534208823777     -7.08772807792913     -0.00189594564379
C   -3.75168589177895     -7.76394715763627     -0.00170126671874
C   -0.03794895698805     -7.09946487446944     -0.00168022049625
C   -1.27795610040136     -7.77290438466689     -0.00366491325785
C   2.40944432072629     -7.11402201200282     -0.00081701968533
C   1.19474993715296     -7.78618536556242     -0.00296931056689
C   4.84762105249800     -7.13126211057943      0.00168979497423
C   3.66847160587561     -7.80378799294376     -0.00065863938960
H   -5.86994035041618     -7.61383059804164      0.00215798365757
H   5.78824962538815     -7.67633218931421      0.00281691445618
H   -3.75352693944918     -8.85107156923607     -0.00353718114765
H   -1.28430440589466     -8.86087539249706     -0.00809229711623
H   1.18922157469537     -8.87416062058945     -0.00706194725726
H   3.65854661482387     -8.89086063405326     -0.00231318081200

    units angstrom      # Angstroms are the default
    no_reorient         # Geometry fixed, default
    symmetry c1         # C1 symmetry, default
}

set {
    scf_type DF         # Density fitting, faster than exact integrals
    freeze_core True    # Freeze core electrons
    basis jun-cc-pVDZ   # Jun-cc-pVDZ basis set, recommended for sSAPT0 in https://doi.org/10.1063/1.4867135
}

energy('ssapt0')        # Compute sSAPT0 energy, includes also SAPT0
--------------------------------------------------------------------------

  //              Dimer HF             //
    Molecular point group: c1
  Charge       = -1
  Multiplicity = 1
  Basis Set: JUN-CC-PVDZ
    Blend: JUN-CC-PVDZ
  Basis Set: (JUN-CC-PVDZ AUX)
    Blend: JUN-CC-PVDZ-JKFIT
  @DF-RHF Final Energy: -4073.10437456610907
    Total Energy =                      -4073.1043745661081630
 Dipole X            :         -0.0010512           -0.0000548           -0.0011060
 Dipole Y            :          0.0009217           -0.0002464            0.0006753
 Dipole Z            :        -34.3810933           47.6087262           13.2276329
 Magnitude           :                                                   13.2276329
  //            Monomer A HF           //
    Molecular point group: c1
  Multiplicity = 1
  Basis Set: JUN-CC-PVDZ
    Blend: JUN-CC-PVDZ
  Basis Set: (JUN-CC-PVDZ AUX)
    Blend: JUN-CC-PVDZ-JKFIT
  @DF-RHF Final Energy:  -422.77143576330906
    Total Energy =                       -422.7714357633090572
  //            Monomer B HF           //
    Molecular point group: c1

    Geometry (in Angstrom), charge = 0, multiplicity = 1:

       Center              X                  Y                   Z               Mass
    ------------   -----------------  -----------------  -----------------  -----------------
      Gh(B)          -0.000201921932     0.000288800891    -7.448964971908    11.009305360000
      Gh(F)          -0.000004162732     0.000014527991    -6.036179971908    18.998403162730
      Gh(F)           1.147855837268     0.675795727991    -7.920105971908    18.998403162730
      Gh(F)           0.011913897268    -1.331996472009    -7.919903971908    18.998403162730
      Gh(F)          -1.159670162732     0.656088027991    -7.919824971908    18.998403162730
         C           -3.668445426752     7.803766698073     0.552901069428    12.000000000000
         C           -4.847602882078     7.131256359331     0.550534494495    12.000000000000
         C           -4.894963461907     5.696344931522     0.549961583397    12.000000000000
         C           -3.653744841505     4.980744868950     0.557622025127    12.000000000000
         C           -2.409429284226     7.113995564665     0.553095411688    12.000000000000
         C           -2.425481506836     5.681136478894     0.546090522818    12.000000000000
         C           -1.194748179167     7.786158722300     0.554567592230    12.000000000000
         C            0.037954866205     7.099436173748     0.552396887925    12.000000000000
         C            0.030328424687     5.669504087695     0.546913503009    12.000000000000
         C           -1.200988670637     4.969284875906     0.555883236943    12.000000000000
         C            1.277953663083     7.772873971185     0.553772736486    12.000000000000
         C            2.485353921992     7.087711413228     0.551498248581    12.000000000000
         C            2.486124522185     5.654785338231     0.544560499593    12.000000000000
         C            1.254078756912     4.956092641655     0.556188441181    12.000000000000
         C            3.751710428674     7.763926678971     0.551625099961    12.000000000000
         C            4.923561893453     7.078795304981     0.549568619253    12.000000000000
         C            4.955603108594     5.643461991360     0.549408206446    12.000000000000
         C            3.706797371473     4.941224736324     0.554499766616    12.000000000000
         H           -3.658525300490     8.890841947126     0.554586057678     1.007825032230
         H           -1.189217492488     8.874135615351     0.558539468671     1.007825032230
         H            1.284290076155     8.860847963479     0.557931560626     1.007825032230
         H            3.753537924068     8.851049806963     0.553147624277     1.007825032230
         H            5.869954540475     7.613809362646     0.548643252211     1.007825032230
         H           -5.788235870234     7.676316740925     0.548974647139     1.007825032230
         C           -6.091978121428     4.993274541634     0.548089342906    12.000000000000
         C           -6.128665643049     3.582594696789     0.549290519935    12.000000000000
         C           -3.664583902777     3.564196707735     0.546365425317    12.000000000000
         C           -4.894302367430     2.861095303891     0.555534410303    12.000000000000
         C           -2.437339157630     2.847626185075     0.558197203854    12.000000000000
         C           -1.209232020328     3.547901462969     0.544518177062    12.000000000000
         C            1.247137409430     3.534695279420     0.543709570657    12.000000000000
         C            0.015171876837     2.833126367296     0.555393753881    12.000000000000
         C            2.467641009709     2.821304505246     0.555493812005    12.000000000000
         C            3.702545311848     3.524674682415     0.542005851162    12.000000000000
         C            6.144976223652     4.927586894122     0.548174761234    12.000000000000
         C            6.166584196130     3.516599003933     0.550341314671    12.000000000000
         C            4.924605795728     2.808422453345     0.556880060908    12.000000000000
         H            7.089901346909     5.466902294214     0.544412880385     1.007825032230
         H           -7.031045913833     5.542702480848     0.543856127955     1.007825032230
         C           -7.339702203855     2.858426062570     0.547663352493    12.000000000000
         C           -7.364886120791     1.470337899574     0.549428890621    12.000000000000
         C           -4.903508771679     1.444441340151     0.544712626429    12.000000000000
         C           -6.132261315343     0.739953885044     0.557002670412    12.000000000000
         C           -3.676878963248     0.726711670664     0.555340342829    12.000000000000
         C           -2.445660748797     1.429655661253     0.545030632628    12.000000000000
         C           -1.223604844033     0.715339029625     0.556459897159    12.000000000000
         C            0.007633706582     1.417397677228     0.554925550877    12.000000000000
         C            1.231215645015     0.702131218578     0.536098965220    12.000000000000
         C            2.460816937799     1.403306564116     0.555603474111    12.000000000000
         C            3.684426091464     0.687212956203     0.554774687834    12.000000000000
         C            4.918704738807     1.391749089180     0.542372866198    12.000000000000
         C            7.369797915229     2.779496731175     0.548580894879    12.000000000000
         C            7.380158503390     1.391232035846     0.550127577724    12.000000000000
         C            6.139795376391     0.674133151191     0.556455919536    12.000000000000
         H           -8.279194962078     3.407132569115     0.543365800372     1.007825032230
         H            8.315109308748     3.318132624614     0.544370319079     1.007825032230
         C           -8.591760100313     0.724847081035     0.549769318238    12.000000000000
         C           -8.599028766435    -0.632625278238     0.551892442821    12.000000000000
         C           -6.139817301850    -0.674122109163     0.544903101486    12.000000000000
         C           -7.380188274869    -1.391251661591     0.552319163027    12.000000000000
         C           -4.918688642988    -1.391740490039     0.557243599636    12.000000000000
         C           -3.684442458416    -0.687222787745     0.546211359571    12.000000000000
         C           -2.460821202979    -1.403330650834     0.556754445761    12.000000000000
         C           -1.231166175052    -0.702159336890     0.544634066969    12.000000000000
         C           -0.007573788119    -1.417404321420     0.552090591272    12.000000000000
         C            1.223643553157    -0.715260849273     0.562096213221    12.000000000000
         C            2.445666486600    -1.429628761016     0.550346200461    12.000000000000
         C            3.676862540115    -0.726692903565     0.546205616066    12.000000000000
         C            6.132244683688    -0.739964311859     0.544677641854    12.000000000000
         C            4.903514982772    -1.444442992550     0.558518716394    12.000000000000
         C            8.599010685959     0.632618394658     0.549989693868    12.000000000000
         C            8.591741325369    -0.724836339203     0.551726074130    12.000000000000
         C            7.364858601658    -1.470318137615     0.551495897437    12.000000000000
         H           -9.528310134550     1.276861977183     0.548299391274     1.007825032230
         H            9.541406811874     1.174587016435     0.548937661607     1.007825032230
         C           -7.369842072500    -2.779530617943     0.554127371449    12.000000000000
         C           -4.924603271782    -2.808422729350     0.546395739013    12.000000000000
         C           -6.166626658399    -3.516637664835     0.552697579172    12.000000000000
         C           -3.702514522437    -3.524667021130     0.556719808199    12.000000000000
         C           -2.467651147846    -2.821311434813     0.544675169842    12.000000000000
         C           -0.015137636839    -2.833127117409     0.544956758351    12.000000000000
         C           -1.247126003958    -3.534717647572     0.556520711759    12.000000000000
         C            1.209240906912    -3.547900150653     0.559059741551    12.000000000000
         C            2.437331859423    -2.847627210185     0.544919983240    12.000000000000
         C            4.894298181039    -2.861108440295     0.545740723311    12.000000000000
         C            3.664611092309    -3.564205317541     0.558620143252    12.000000000000
         C            6.128634852014    -3.582569529727     0.551965985209    12.000000000000
         C            7.339668501964    -2.858398779380     0.553481211291    12.000000000000
         H           -9.541453273991    -1.174548938674     0.553261858994     1.007825032230
         H            9.528257705340    -1.276904545914     0.552975881891     1.007825032230
         H           -8.315169206580    -3.318135325222     0.558299599980     1.007825032230
         H            8.279150979760    -3.407126261903     0.557820767274     1.007825032230
         C           -6.144998351434    -4.927632744793     0.554023577232    12.000000000000
         C           -3.706787510729    -4.941247186127     0.544202609144    12.000000000000
         C           -4.955594220733    -5.643479445504     0.552169743789    12.000000000000
         C           -2.486125488958    -5.654771046419     0.557142280189    12.000000000000
         C           -1.254062498212    -4.956107522011     0.545966674203    12.000000000000
         C            1.201008411136    -4.969265860202     0.547147798461    12.000000000000
         C           -0.030340837145    -5.669505775148     0.554990998125    12.000000000000
         C            3.653745938597    -4.980729247424     0.547905798209    12.000000000000
         C            2.425488533144    -5.681160107537     0.557282728761    12.000000000000
         C            6.091961455079    -4.993243435396     0.554260211883    12.000000000000
         C            4.894972281879    -5.696333892967     0.553024016052    12.000000000000
         H           -7.089896550772    -5.466985314248     0.558426338913     1.007825032230
         H            7.031051046468    -5.542644008342     0.557839991646     1.007825032230
         C           -4.923549484930    -7.078806571687     0.551614974884    12.000000000000
         C           -2.485346250970    -7.087713549939     0.549105082448    12.000000000000
         C           -3.751690054511    -7.763932629646     0.549299761373    12.000000000000
         C           -0.037953119720    -7.099450346479     0.549320807596    12.000000000000
         C           -1.277960263133    -7.772889856676     0.547336114834    12.000000000000
         C            2.409440157995    -7.114007484012     0.550184008407    12.000000000000
         C            1.194745774421    -7.786170837572     0.548031717525    12.000000000000
         C            4.847616889766    -7.131247582589     0.552690823066    12.000000000000
         C            3.668467443144    -7.803773464953     0.550342388703    12.000000000000
         H           -5.869944513148    -7.613816070051     0.553159011750     1.007825032230
         H            5.788245462656    -7.676317661324     0.553817942548     1.007825032230
         H           -3.753531102181    -8.851057041246     0.547463846945     1.007825032230
         H           -1.284308568626    -8.860860864507     0.542908730976     1.007825032230
         H            1.189217411964    -8.874146092599     0.543939080835     1.007825032230
         H            3.658542452092    -8.890846106063     0.548687847280     1.007825032230

  Charge       = 0
  Multiplicity = 1
  Basis Set: JUN-CC-PVDZ
    Blend: JUN-CC-PVDZ
  Basis Set: (JUN-CC-PVDZ AUX)
    Blend: JUN-CC-PVDZ-JKFIT

    Orbital Energies [Eh]
    ---------------------

    Doubly Occupied:

       1A    -11.264048     2A    -11.263733     3A    -11.263731
       4A    -11.263391     5A    -11.263387     6A    -11.263353
       7A    -11.263196     8A    -11.263169     9A    -11.263167
      10A    -11.263010    11A    -11.262850    12A    -11.262846
      13A    -11.262367    14A    -11.262364    15A    -11.262290
      16A    -11.262289    17A    -11.262239    18A    -11.262203
      19A    -11.262158    20A    -11.262119    21A    -11.262118
      22A    -11.261963    23A    -11.261960    24A    -11.261840
      25A    -11.261825    26A    -11.261811    27A    -11.261807
      28A    -11.261760    29A    -11.261752    30A    -11.261680
      31A    -11.261653    32A    -11.261650    33A    -11.261624
      34A    -11.261623    35A    -11.261602    36A    -11.261556
      37A    -11.261414    38A    -11.261403    39A    -11.261397
      40A    -11.261390    41A    -11.261385    42A    -11.261376
      43A    -11.261372    44A    -11.261358    45A    -11.261353
      46A    -11.261331    47A    -11.261327    48A    -11.261322
      49A    -11.261170    50A    -11.261140    51A    -11.261137
      52A    -11.261057    53A    -11.261056    54A    -11.260985
      55A    -11.260015    56A    -11.260002    57A    -11.259999
      58A    -11.259970    59A    -11.259968    60A    -11.259952
      61A    -11.259393    62A    -11.259368    63A    -11.259365
      64A    -11.259313    65A    -11.259311    66A    -11.259282
      67A    -11.259019    68A    -11.259002    69A    -11.259000
      70A    -11.258972    71A    -11.258970    72A    -11.258959
      73A    -11.254589    74A    -11.254587    75A    -11.254586
      76A    -11.254583    77A    -11.254577    78A    -11.254574
      79A    -11.253739    80A    -11.253737    81A    -11.253734
      82A    -11.253733    83A    -11.253731    84A    -11.253725
      85A    -11.253654    86A    -11.253653    87A    -11.253650
      88A    -11.253649    89A    -11.253646    90A    -11.253641
      91A    -11.253117    92A    -11.253115    93A    -11.253114
      94A    -11.253111    95A    -11.253105    96A    -11.253102
      97A     -1.254136    98A     -1.239139    99A     -1.239137
     100A     -1.220581   101A     -1.220576   102A     -1.215611
     103A     -1.201142   104A     -1.195712   105A     -1.188299
     106A     -1.188297   107A     -1.173863   108A     -1.173860
     109A     -1.155771   110A     -1.155768   111A     -1.152879
     112A     -1.144816   113A     -1.144813   114A     -1.128694
     115A     -1.114853   116A     -1.113259   117A     -1.112639
     118A     -1.112625   119A     -1.111707   120A     -1.088556
     121A     -1.088541   122A     -1.077055   123A     -1.077053
     124A     -1.067750   125A     -1.067720   126A     -1.065122
     127A     -1.046915   128A     -1.046908   129A     -1.040604
     130A     -1.038827   131A     -1.038826   132A     -1.025389
     133A     -1.021561   134A     -1.021511   135A     -1.007287
     136A     -1.006930   137A     -1.003907   138A     -1.000631
     139A     -1.000583   140A     -0.991163   141A     -0.971120
     142A     -0.971071   143A     -0.955988   144A     -0.955932
     145A     -0.905758   146A     -0.905717   147A     -0.905635
     148A     -0.905594   149A     -0.904515   150A     -0.892529
     151A     -0.892469   152A     -0.890515   153A     -0.890458
     154A     -0.889588   155A     -0.872317   156A     -0.869131
     157A     -0.851646   158A     -0.848009   159A     -0.847988
     160A     -0.845746   161A     -0.843149   162A     -0.834680
     163A     -0.834667   164A     -0.828209   165A     -0.828206
     166A     -0.784671   167A     -0.784660   168A     -0.783798
     169A     -0.783772   170A     -0.782416   171A     -0.782396
     172A     -0.782180   173A     -0.767103   174A     -0.760951
     175A     -0.750728   176A     -0.733582   177A     -0.727186
     178A     -0.727172   179A     -0.725211   180A     -0.724653
     181A     -0.724634   182A     -0.718657   183A     -0.713918
     184A     -0.713912   185A     -0.699690   186A     -0.699678
     187A     -0.686290   188A     -0.686055   189A     -0.686052
     190A     -0.682278   191A     -0.682267   192A     -0.678915
     193A     -0.653744   194A     -0.650991   195A     -0.650961
     196A     -0.649966   197A     -0.649950   198A     -0.649663
     199A     -0.641085   200A     -0.641058   201A     -0.640188
     202A     -0.639252   203A     -0.636158   204A     -0.636131
     205A     -0.629257   206A     -0.617830   207A     -0.615397
     208A     -0.615377   209A     -0.608909   210A     -0.608902
     211A     -0.599184   212A     -0.599147   213A     -0.598867
     214A     -0.598739   215A     -0.598714   216A     -0.598195
     217A     -0.595164   218A     -0.595151   219A     -0.594836
     220A     -0.594397   221A     -0.592084   222A     -0.592081
     223A     -0.587554   224A     -0.577872   225A     -0.577862
     226A     -0.575730   227A     -0.575727   228A     -0.573484
     229A     -0.569559   230A     -0.568293   231A     -0.568269
     232A     -0.566873   233A     -0.566863   234A     -0.560991
     235A     -0.558851   236A     -0.558832   237A     -0.558508
     238A     -0.554484   239A     -0.550625   240A     -0.547550
     241A     -0.544335   242A     -0.535031   243A     -0.534994
     244A     -0.533648   245A     -0.533626   246A     -0.528174
     247A     -0.528159   248A     -0.527951   249A     -0.517313
     250A     -0.517279   251A     -0.515420   252A     -0.515414
     253A     -0.509737   254A     -0.509721   255A     -0.498131
     256A     -0.496563   257A     -0.496537   258A     -0.493838
     259A     -0.493827   260A     -0.489472   261A     -0.481545
     262A     -0.477482   263A     -0.477479   264A     -0.474097
     265A     -0.469564   266A     -0.466643   267A     -0.466638
     268A     -0.458871   269A     -0.446854   270A     -0.446793
     271A     -0.441094   272A     -0.440819   273A     -0.440795
     274A     -0.434750   275A     -0.433967   276A     -0.407443
     277A     -0.407419   278A     -0.386479   279A     -0.386431
     280A     -0.385791   281A     -0.385790   282A     -0.383823
     283A     -0.354393   284A     -0.354377   285A     -0.350731
     286A     -0.338160   287A     -0.335661   288A     -0.335592
     289A     -0.332774   290A     -0.332767   291A     -0.307156
     292A     -0.302019   293A     -0.301957   294A     -0.300906
     295A     -0.286235   296A     -0.256521   297A     -0.253571
     298A     -0.253518   299A     -0.204329   300A     -0.204240

  @DF-RHF Final Energy: -3650.33785005532991

   => Energetics <=

    Nuclear Repulsion Energy =          15611.4211649754324753
    One-Electron Energy =              -36072.0821498754739878
    Two-Electron Energy =               16810.3231348447116034
    Total Energy =                      -3650.3378500553299091
 Dipole X            :         -0.0010970            0.0002304           -0.0008666
 Dipole Y            :          0.0010333           -0.0013052           -0.0002719
 Dipole Z            :       -624.7483605          624.7480147           -0.0003458
 Magnitude           :                                                    0.0009718

    SAPT Results
  --------------------------------------------------------------------------------------------------------
    Electrostatics                  7.10008212 [mEh]       4.45536880 [kcal/mol]      18.64126304 [kJ/mol]
      Elst10,r                      7.10008212 [mEh]       4.45536880 [kcal/mol]      18.64126304 [kJ/mol]

    Exchange                       -0.00008919 [mEh]      -0.00005597 [kcal/mol]      -0.00023417 [kJ/mol]
      Exch10                       -0.00008919 [mEh]      -0.00005597 [kcal/mol]      -0.00023417 [kJ/mol]
      Exch10(S^2)                  -0.00008919 [mEh]      -0.00005597 [kcal/mol]      -0.00023417 [kJ/mol]

    Induction                      -2.18874040 [mEh]      -1.37345534 [kcal/mol]      -5.74653713 [kJ/mol]
      Ind20,r                      -2.19811434 [mEh]      -1.37933757 [kcal/mol]      -5.77114839 [kJ/mol]
      Exch-Ind20,r                  0.00010199 [mEh]       0.00006400 [kcal/mol]       0.00026777 [kJ/mol]
      delta HF,r (2)                0.00927195 [mEh]       0.00581824 [kcal/mol]       0.02434350 [kJ/mol]

    Dispersion                     -0.26268556 [mEh]      -0.16483768 [kcal/mol]      -0.68968084 [kJ/mol]
      Disp20                       -0.26272022 [mEh]      -0.16485943 [kcal/mol]      -0.68977185 [kJ/mol]
      Exch-Disp20                   0.00003466 [mEh]       0.00002175 [kcal/mol]       0.00009101 [kJ/mol]
      Disp20 (SS)                  -0.13136011 [mEh]      -0.08242971 [kcal/mol]      -0.34488592 [kJ/mol]
      Disp20 (OS)                  -0.13136011 [mEh]      -0.08242971 [kcal/mol]      -0.34488592 [kJ/mol]
      Exch-Disp20 (SS)              0.00002700 [mEh]       0.00001694 [kcal/mol]       0.00007089 [kJ/mol]
      Exch-Disp20 (OS)              0.00000767 [mEh]       0.00000481 [kcal/mol]       0.00002013 [kJ/mol]

  Total HF                          4.91125253 [mEh]       3.08185749 [kcal/mol]      12.89449174 [kJ/mol]
  Total SAPT0                       4.64856697 [mEh]       2.91701981 [kcal/mol]      12.20481090 [kJ/mol]

  Special recipe for scaled SAPT0 (see Manual):
    Electrostatics sSAPT0           7.10008212 [mEh]       4.45536880 [kcal/mol]      18.64126304 [kJ/mol]
    Exchange sSAPT0                -0.00008919 [mEh]      -0.00005597 [kcal/mol]      -0.00023417 [kJ/mol]
    Induction sSAPT0               -2.18874040 [mEh]      -1.37345534 [kcal/mol]      -5.74653713 [kJ/mol]
    Dispersion sSAPT0              -0.26268556 [mEh]      -0.16483768 [kcal/mol]      -0.68968084 [kJ/mol]
  Total sSAPT0                      4.64856697 [mEh]       2.91701981 [kcal/mol]      12.20481090 [kJ/mol]
  --------------------------------------------------------------------------------------------------------

*** Psi4 exiting successfully. Buy a developer a beer!
