                               Psi4 1.9 release

  ==> Input File <==

--------------------------------------------------------------------------
memory 64 GB # how much memory is available ! Depends on the nodes/cores !

molecule dimer {
# monomer A
+1 1    # Charge and multiplicity
C  0.680067 -1.215929 6.608042
C -0.680504 -1.215545 6.606014
N -1.085635  0.102779 6.605016
C  0.000108  0.884180 6.601740
C -2.477365  0.570758 6.555610
N  1.085222  0.102779 6.605016
H  1.385146 -2.033368 6.615870
H -1.385302 -2.033214 6.606204
H -0.000009  1.965269 6.599993
C  2.478117  0.567877 6.621908
H  2.490592  1.658130 6.594563
H  2.967028  0.220701 7.535354
H  3.001428  0.176405 5.746425
H -2.857359  0.490799 5.533539
H -3.082679 -0.042306 7.225694
H -2.518128  1.610706 6.882594
--
# monomer B
0 1     # Charge and multiplicity
C   -3.66844126402057      7.80375217008252      0.00190004133558
C   -4.84759871934653      7.13124183134024     -0.00046653359696
C   -4.89495929917518      5.69633040353158     -0.00103944469517
C   -3.65374067877320      4.98073034095895      0.00662099703436
C   -2.40942512149445      7.11398103667468      0.00209438359570
C   -2.42547734410473      5.68112195090346     -0.00491050527438
C   -1.19474401643570      7.78614419430947      0.00356656413763
C   0.03795902893699      7.09942164575698      0.00139585983271
C   0.03033258741920      5.66948955970466     -0.00408752508301
C   -1.20098450790502      4.96927034791531      0.00488220885047
C   1.27795782581485      7.77285944319479      0.00277170839332
C   2.48535808472416      7.08769688523756      0.00049722048857
C   2.48612868491717      5.65477081024076     -0.00644052849921
C   1.25408291964399      4.95607811366431      0.00518741308898
C   3.75171459140595      7.76391215098033      0.00062407186893
C   4.92356605618520      7.07878077698995     -0.00143240883900
C   4.95560727132542      5.64344746336949     -0.00159282164606
C   3.70680153420475      4.94121020833308      0.00349873852374
H   -3.65852113775815      8.89082741913536      0.00358502958574
H   -1.18921332975660      8.87412108735996      0.00753844057883
H   1.28429423888630      8.86083343548850      0.00693053253426
H   3.75354208679975      8.85103527897216      0.00214659618464
H   5.86995870320703      7.61379483465560     -0.00235777588134
H   -5.78823170750226      7.67630221293400     -0.00202638095293
C   -6.09197395869619      4.99326001364347     -0.00291168518608
C   -6.12866148031747      3.58258016879823     -0.00171050815740
C   -3.66457974004527      3.56418217974434     -0.00463560277484
C   -4.89429820469869      2.86108077590057      0.00453338221034
C   -2.43733499489796      2.84761165708481      0.00719617576166
C   -1.20922785759670      3.54788693497833     -0.00648285103018
C   1.24714157216223      3.53468075142962     -0.00729145743546
C   0.01517603956900      2.83311183930540      0.00439272578912
C   2.46764517244071      2.82128997725533      0.00449278391269
C   3.70254947457969      3.52466015442405     -0.00899517692985
C   6.14498038638375      4.92757236613191     -0.00282626685777
C   6.16658835886151      3.51658447594213     -0.00065971342101
C   4.92460995845939      2.80840792535402      0.00587903281610
H   7.08990550964105      5.46688776622306     -0.00658814770723
H   -7.03104175110130      5.54268795285765     -0.00714490013730
C   -7.33969804112295      2.85841153457957     -0.00333767559888
C   -7.36488195805880      1.47032337158330     -0.00157213747140
C   -4.90350460894690      1.44442681216000     -0.00628840166334
C   -6.13225715261081      0.73993935705394      0.00600164231964
C   -3.67687480051673      0.72669714267312      0.00433931473643
C   -2.44565658606518      1.42964113326212     -0.00597039546461
C   -1.22360068130162      0.71532450163492      0.00545886906656
C   0.00763786931376      1.41738314923765      0.00392452278437
C   1.23121980774686      0.70211669058719     -0.01490206287210
C   2.46082110053113      1.40329203612573      0.00460244601878
C   3.68443025419614      0.68719842821222      0.00377365974158
C   4.91870890153864      1.39173456118907     -0.00862816189375
C   7.36980207796101      2.77948220318441     -0.00242013321349
C   7.38016266612146      1.39121750785509     -0.00087345036788
C   6.13979953912259      0.67411862320065      0.00545489144369
H   -8.27919079934664      3.40711804112415     -0.00763522772059
H   8.31511347147953      3.31811809662368     -0.00663070901292
C   -8.59175593758115      0.72483255304480     -0.00123170985383
C   -8.59902460370342     -0.63263980622873      0.00089141472904
C   -6.13981313911873     -0.67413663715361     -0.00609792660607
C   -7.38018411213749     -1.39126618958160      0.00131813493501
C   -4.91868448025621     -1.39175501803000      0.00624257154343
C   -3.68443829568458     -0.68723731573599     -0.00478966852105
C   -2.46081704024768     -1.40334517882457      0.00575341766833
C   -1.23116201232071     -0.70217386488055     -0.00636696112346
C   -0.00756962538737     -1.41741884941102      0.00108956317991
C   1.22364771588843     -0.71527537726392      0.01109518512883
C   2.44567064933149     -1.42964328900682     -0.00065482763106
C   3.67686670284649     -0.72670743155550     -0.00479541202602
C   6.13224884641929     -0.73997883984993     -0.00632338623858
C   4.90351914550401     -1.44445752054090      0.00751768830159
C   8.59901484869081      0.63260386666793     -0.00101133422380
C   8.59174548810050     -0.72485086719319      0.00072504603735
C   7.36486276438985     -1.47033266560598      0.00049486934466
H   -9.52830597181814      1.27684744919284     -0.00270163681798
H   9.54141097460619      1.17457248844457     -0.00206336648518
C   -7.36983790976868     -2.77954514593389      0.00312634335708
C   -4.92459910905015     -2.80843725734101     -0.00460528907921
C   -6.16662249566744     -3.51665219282533      0.00169655107992
C   -3.70251035970491     -3.52468154912026      0.00571878010666
C   -2.46764698511392     -2.82132596280400     -0.00632585824990
C   -0.01513347410770     -2.83314164539971     -0.00604426974092
C   -1.24712184122656     -3.53473217556300      0.00551968366725
C   1.20924506964357     -3.54791467864352      0.00805871345849
C   2.43733602215464     -2.84764173817541     -0.00608104485234
C   4.89430234377080     -2.86112296828604     -0.00526030478103
C   3.66461525504104     -3.56421984553201      0.00761911515957
C   6.12863901474565     -3.58258405771778      0.00096495711699
C   7.33967266469532     -2.85841330737039      0.00248018319869
H   -9.54144911125902     -1.17456346666430      0.00226083090216
H   9.52826186807155     -1.27691907390448      0.00197485379837
H   -8.31516504384864     -3.31814985321231      0.00729857188773
H   8.27915514249207     -3.40714078989363      0.00681973918158
C   -6.14499418870218     -4.92764727278338      0.00302254913999
C   -3.70678334799751     -4.94126171411716     -0.00679841894792
C   -4.95559005800169     -5.64349397349412      0.00116871569699
C   -2.48612132622665     -5.65478557440947      0.00614125209662
C   -1.25405833548005     -4.95612205000132     -0.00503435388927
C   1.20101257386816     -4.96928038819302     -0.00385322963129
C   -0.03033667441341     -5.66952030313900      0.00398997003238
C   3.65375010132847     -4.98074377541453     -0.00309522988330
C   2.42549269587528     -5.68117463552727      0.00628170066869
C   6.09196561781097     -4.99325796338655      0.00325918379042
C   4.89497644461045     -5.69634842095790      0.00202298796027
H   -7.08989238804069     -5.46699984223871      0.00742531082125
H   7.03105520920009     -5.54265853633254      0.00683896355417
C   -4.92354532219813     -7.07882109967734      0.00061394679214
C   -2.48534208823777     -7.08772807792913     -0.00189594564379
C   -3.75168589177895     -7.76394715763627     -0.00170126671874
C   -0.03794895698805     -7.09946487446944     -0.00168022049625
C   -1.27795610040136     -7.77290438466689     -0.00366491325785
C   2.40944432072629     -7.11402201200282     -0.00081701968533
C   1.19474993715296     -7.78618536556242     -0.00296931056689
C   4.84762105249800     -7.13126211057943      0.00168979497423
C   3.66847160587561     -7.80378799294376     -0.00065863938960
H   -5.86994035041618     -7.61383059804164      0.00215798365757
H   5.78824962538815     -7.67633218931421      0.00281691445618
H   -3.75352693944918     -8.85107156923607     -0.00353718114765
H   -1.28430440589466     -8.86087539249706     -0.00809229711623
H   1.18922157469537     -8.87416062058945     -0.00706194725726
H   3.65854661482387     -8.89086063405326     -0.00231318081200

    units angstrom      # Angstroms are the default
    no_reorient         # Geometry fixed, default
    symmetry c1         # C1 symmetry, default
}

set {
    scf_type DF         # Density fitting, faster than exact integrals
    freeze_core True    # Freeze core electrons
    basis jun-cc-pVDZ   # Jun-cc-pVDZ basis set, recommended for sSAPT0 in https://doi.org/10.1063/1.4867135
}

energy('ssapt0')        # Compute sSAPT0 energy, includes also SAPT0
--------------------------------------------------------------------------

  //              Dimer HF             //
    Molecular point group: c1
  Charge       = 1
  Multiplicity = 1
  Basis Set: JUN-CC-PVDZ
    Blend: JUN-CC-PVDZ
  Basis Set: (JUN-CC-PVDZ AUX)
    Blend: JUN-CC-PVDZ-JKFIT
  @DF-RHF Final Energy: -3953.64687465842553
    Total Energy =                      -3953.6468746584250766
 Dipole X            :          0.0018040            0.0004804            0.0022844
 Dipole Y            :         -1.5467274            1.8866171            0.3398897
 Dipole Z            :        -29.5791325           40.0265689           10.4474364
 Magnitude           :                                                   10.4529640
  //            Monomer A HF           //
    Molecular point group: c1
  Multiplicity = 1
  Basis Set: JUN-CC-PVDZ
    Blend: JUN-CC-PVDZ
  Basis Set: (JUN-CC-PVDZ AUX)
    Blend: JUN-CC-PVDZ-JKFIT
  @DF-RHF Final Energy:  -303.29730960899832
    Total Energy =                       -303.2973096089983187
  //            Monomer B HF           //
    Molecular point group: c1

    Geometry (in Angstrom), charge = 0, multiplicity = 1:

       Center              X                  Y                   Z               Mass
    ------------   -----------------  -----------------  -----------------  -----------------
      Gh(C)           0.680062820275    -1.215917226251     6.104839870091    12.000000000000
      Gh(C)          -0.680508179725    -1.215533226251     6.102811870091    12.000000000000
      Gh(N)          -1.085639179725     0.102790773749     6.101813870091    14.003074004430
      Gh(C)           0.000103820275     0.884191773749     6.098537870091    12.000000000000
      Gh(C)          -2.477369179725     0.570769773749     6.052407870091    12.000000000000
      Gh(N)           1.085217820275     0.102790773749     6.101813870091    14.003074004430
      Gh(H)           1.385141820275    -2.033356226251     6.112667870091     1.007825032230
      Gh(H)          -1.385306179725    -2.033202226251     6.103001870091     1.007825032230
      Gh(H)          -0.000013179725     1.965280773749     6.096790870091     1.007825032230
      Gh(C)           2.478112820275     0.567888773749     6.118705870091    12.000000000000
      Gh(H)           2.490587820275     1.658141773750     6.091360870091     1.007825032230
      Gh(H)           2.967023820275     0.220712773749     7.032151870091     1.007825032230
      Gh(H)           3.001423820275     0.176416773749     5.243222870091     1.007825032230
      Gh(H)          -2.857363179725     0.490810773749     5.030336870091     1.007825032230
      Gh(H)          -3.082683179725    -0.042294226251     6.722491870091     1.007825032230
      Gh(H)          -2.518132179725     1.610717773749     6.379391870091     1.007825032230
         C           -3.668445443746     7.803763943832    -0.501302088573    12.000000000000
         C           -4.847602899072     7.131253605090    -0.503668663506    12.000000000000
         C           -4.894963478901     5.696342177281    -0.504241574604    12.000000000000
         C           -3.653744858499     4.980742114708    -0.496581132874    12.000000000000
         C           -2.409429301220     7.113992810424    -0.501107746313    12.000000000000
         C           -2.425481523830     5.681133724653    -0.508112635183    12.000000000000
         C           -1.194748196161     7.786155968059    -0.499635565771    12.000000000000
         C            0.037954849212     7.099433419506    -0.501806270076    12.000000000000
         C            0.030328407694     5.669501333454    -0.507289654992    12.000000000000
         C           -1.200988687630     4.969282121665    -0.498319921058    12.000000000000
         C            1.277953646089     7.772871216944    -0.500430421515    12.000000000000
         C            2.485353904999     7.087708658987    -0.502704909420    12.000000000000
         C            2.486124505192     5.654782583990    -0.509642658408    12.000000000000
         C            1.254078739919     4.956089887414    -0.498014716820    12.000000000000
         C            3.751710411681     7.763923924730    -0.502578058040    12.000000000000
         C            4.923561876460     7.078792550739    -0.504634538748    12.000000000000
         C            4.955603091600     5.643459237119    -0.504794951555    12.000000000000
         C            3.706797354479     4.941221982083    -0.499703391385    12.000000000000
         H           -3.658525317484     8.890839192885    -0.499617100323     1.007825032230
         H           -1.189217509482     8.874132861109    -0.495663689330     1.007825032230
         H            1.284290059161     8.860845209238    -0.496271597374     1.007825032230
         H            3.753537907074     8.851047052722    -0.501055533724     1.007825032230
         H            5.869954523482     7.613806608405    -0.505559905790     1.007825032230
         H           -5.788235887228     7.676313986684    -0.505228510862     1.007825032230
         C           -6.091978138422     4.993271787393    -0.506113815095    12.000000000000
         C           -6.128665660043     3.582591942548    -0.504912638066    12.000000000000
         C           -3.664583919771     3.564193953494    -0.507837732683    12.000000000000
         C           -4.894302384424     2.861092549650    -0.498668747698    12.000000000000
         C           -2.437339174623     2.847623430834    -0.496005954147    12.000000000000
         C           -1.209232037322     3.547898708728    -0.509684980939    12.000000000000
         C            1.247137392437     3.534692525179    -0.510493587344    12.000000000000
         C            0.015171859844     2.833123613055    -0.498809404120    12.000000000000
         C            2.467640992715     2.821301751005    -0.498709345996    12.000000000000
         C            3.702545294854     3.524671928174    -0.512197306838    12.000000000000
         C            6.144976206658     4.927584139881    -0.506028396766    12.000000000000
         C            6.166584179136     3.516596249692    -0.503861843330    12.000000000000
         C            4.924605778734     2.808419699104    -0.497323097093    12.000000000000
         H            7.089901329916     5.466899539973    -0.509790277616     1.007825032230
         H           -7.031045930827     5.542699726607    -0.510347030046     1.007825032230
         C           -7.339702220848     2.858423308329    -0.506539805508    12.000000000000
         C           -7.364886137784     1.470335145333    -0.504774267380    12.000000000000
         C           -4.903508788672     1.444438585909    -0.509490531572    12.000000000000
         C           -6.132261332336     0.739951130803    -0.497200487589    12.000000000000
         C           -3.676878980242     0.726708916423    -0.498862815172    12.000000000000
         C           -2.445660765791     1.429652907012    -0.509172525373    12.000000000000
         C           -1.223604861027     0.715336275384    -0.497743260842    12.000000000000
         C            0.007633689588     1.417394922987    -0.499277607124    12.000000000000
         C            1.231215628021     0.702128464337    -0.518104192781    12.000000000000
         C            2.460816920806     1.403303809875    -0.498599683890    12.000000000000
         C            3.684426074471     0.687210201962    -0.499428470167    12.000000000000
         C            4.918704721813     1.391746334939    -0.511830291802    12.000000000000
         C            7.369797898236     2.779493976934    -0.505622263122    12.000000000000
         C            7.380158486396     1.391229281605    -0.504075580277    12.000000000000
         C            6.139795359397     0.674130396950    -0.497747238465    12.000000000000
         H           -8.279194979072     3.407129814874    -0.510837357629     1.007825032230
         H            8.315109291754     3.318129870373    -0.509832838922     1.007825032230
         C           -8.591760117307     0.724844326794    -0.504433839762    12.000000000000
         C           -8.599028783429    -0.632628032479    -0.502310715180    12.000000000000
         C           -6.139817318844    -0.674124863404    -0.509300056515    12.000000000000
         C           -7.380188291863    -1.391254415832    -0.501883994974    12.000000000000
         C           -4.918688659982    -1.391743244281    -0.496959558365    12.000000000000
         C           -3.684442475410    -0.687225541986    -0.507991798430    12.000000000000
         C           -2.460821219973    -1.403333405075    -0.497448712240    12.000000000000
         C           -1.231166192046    -0.702162091131    -0.509569091032    12.000000000000
         C           -0.007573805113    -1.417407075662    -0.502112566729    12.000000000000
         C            1.223643536163    -0.715263603514    -0.492106944780    12.000000000000
         C            2.445666469606    -1.429631515257    -0.503856957540    12.000000000000
         C            3.676862523121    -0.726695657806    -0.507997541935    12.000000000000
         C            6.132244666694    -0.739967066100    -0.509525516147    12.000000000000
         C            4.903514965779    -1.444445746791    -0.495684441607    12.000000000000
         C            8.599010668965     0.632615640417    -0.504213464132    12.000000000000
         C            8.591741308375    -0.724839093444    -0.502477083871    12.000000000000
         C            7.364858584664    -1.470320891856    -0.502707260564    12.000000000000
         H           -9.528310151544     1.276859222942    -0.505903766727     1.007825032230
         H            9.541406794881     1.174584262194    -0.505265496394     1.007825032230
         C           -7.369842089494    -2.779533372184    -0.500075786552    12.000000000000
         C           -4.924603288776    -2.808425483592    -0.507807418988    12.000000000000
         C           -6.166626675393    -3.516640419076    -0.501505578829    12.000000000000
         C           -3.702514539430    -3.524669775371    -0.497483349802    12.000000000000
         C           -2.467651164839    -2.821314189055    -0.509527988159    12.000000000000
         C           -0.015137653833    -2.833129871650    -0.509246399650    12.000000000000
         C           -1.247126020952    -3.534720401814    -0.497682446241    12.000000000000
         C            1.209240889918    -3.547902904894    -0.495143416450    12.000000000000
         C            2.437331842429    -2.847629964426    -0.509283174761    12.000000000000
         C            4.894298164045    -2.861111194537    -0.508462434690    12.000000000000
         C            3.664611075316    -3.564208071783    -0.495583014749    12.000000000000
         C            6.128634835020    -3.582572283968    -0.502237172792    12.000000000000
         C            7.339668484970    -2.858401533621    -0.500721946710    12.000000000000
         H           -9.541453290984    -1.174551692915    -0.500941299006     1.007825032230
         H            9.528257688346    -1.276907300155    -0.501227276110     1.007825032230
         H           -8.315169223574    -3.318138079463    -0.495903558021     1.007825032230
         H            8.279150962767    -3.407129016144    -0.496382390727     1.007825032230
         C           -6.144998368428    -4.927635499034    -0.500179580769    12.000000000000
         C           -3.706787527723    -4.941249940368    -0.510000548857    12.000000000000
         C           -4.955594237727    -5.643482199745    -0.502033414212    12.000000000000
         C           -2.486125505952    -5.654773800660    -0.497060877812    12.000000000000
         C           -1.254062515205    -4.956110276252    -0.508236483798    12.000000000000
         C            1.201008394143    -4.969268614444    -0.507055359540    12.000000000000
         C           -0.030340854139    -5.669508529390    -0.499212159876    12.000000000000
         C            3.653745921603    -4.980732001665    -0.506297359792    12.000000000000
         C            2.425488516150    -5.681162861778    -0.496920429240    12.000000000000
         C            6.091961438086    -4.993246189637    -0.499942946118    12.000000000000
         C            4.894972264885    -5.696336647208    -0.501179141948    12.000000000000
         H           -7.089896567766    -5.466988068489    -0.495776819087     1.007825032230
         H            7.031051029475    -5.542646762583    -0.496363166354     1.007825032230
         C           -4.923549501924    -7.078809325928    -0.502588183116    12.000000000000
         C           -2.485346267963    -7.087716304180    -0.505098075552    12.000000000000
         C           -3.751690071504    -7.763935383887    -0.504903396627    12.000000000000
         C           -0.037953136713    -7.099453100720    -0.504882350405    12.000000000000
         C           -1.277960280127    -7.772892610917    -0.506867043166    12.000000000000
         C            2.409440141001    -7.114010238253    -0.504019149594    12.000000000000
         C            1.194745757428    -7.786173591813    -0.506171440476    12.000000000000
         C            4.847616872773    -7.131250336830    -0.501512334934    12.000000000000
         C            3.668467426150    -7.803776219194    -0.503860769298    12.000000000000
         H           -5.869944530142    -7.613818824292    -0.501044146251     1.007825032230
         H            5.788245445663    -7.676320415565    -0.500385215452     1.007825032230
         H           -3.753531119175    -8.851059795487    -0.506739311056     1.007825032230
         H           -1.284308585620    -8.860863618748    -0.511294427025     1.007825032230
         H            1.189217394970    -8.874148846840    -0.510264077166     1.007825032230
         H            3.658542435098    -8.890848860304    -0.505515310721     1.007825032230

  Charge       = 0
  Multiplicity = 1
  Basis Set: JUN-CC-PVDZ
    Blend: JUN-CC-PVDZ
  Basis Set: (JUN-CC-PVDZ AUX)
    Blend: JUN-CC-PVDZ-JKFIT

    Orbital Energies [Eh]
    ---------------------

    Doubly Occupied:

       1A    -11.264038     2A    -11.263724     3A    -11.263723
       4A    -11.263383     5A    -11.263380     6A    -11.263345
       7A    -11.263188     8A    -11.263161     9A    -11.263158
      10A    -11.263002    11A    -11.262842    12A    -11.262838
      13A    -11.262359    14A    -11.262357    15A    -11.262283
      16A    -11.262282    17A    -11.262232    18A    -11.262198
      19A    -11.262153    20A    -11.262115    21A    -11.262113
      22A    -11.261958    23A    -11.261954    24A    -11.261837
      25A    -11.261823    26A    -11.261809    27A    -11.261805
      28A    -11.261757    29A    -11.261749    30A    -11.261676
      31A    -11.261649    32A    -11.261646    33A    -11.261620
      34A    -11.261619    35A    -11.261598    36A    -11.261548
      37A    -11.261413    38A    -11.261402    39A    -11.261396
      40A    -11.261389    41A    -11.261384    42A    -11.261375
      43A    -11.261370    44A    -11.261356    45A    -11.261351
      46A    -11.261328    47A    -11.261324    48A    -11.261320
      49A    -11.261165    50A    -11.261133    51A    -11.261131
      52A    -11.261050    53A    -11.261049    54A    -11.260977
      55A    -11.260012    56A    -11.259999    57A    -11.259996
      58A    -11.259967    59A    -11.259965    60A    -11.259949
      61A    -11.259390    62A    -11.259364    63A    -11.259362
      64A    -11.259310    65A    -11.259307    66A    -11.259279
      67A    -11.259016    68A    -11.258999    69A    -11.258997
      70A    -11.258969    71A    -11.258967    72A    -11.258955
      73A    -11.254589    74A    -11.254587    75A    -11.254585
      76A    -11.254583    77A    -11.254578    78A    -11.254575
      79A    -11.253738    80A    -11.253736    81A    -11.253733
      82A    -11.253732    83A    -11.253729    84A    -11.253724
      85A    -11.253654    86A    -11.253652    87A    -11.253649
      88A    -11.253648    89A    -11.253645    90A    -11.253640
      91A    -11.253116    92A    -11.253115    93A    -11.253114
      94A    -11.253111    95A    -11.253106    96A    -11.253103
      97A     -1.254125    98A     -1.239136    99A     -1.239135
     100A     -1.220581   101A     -1.220576   102A     -1.215602
     103A     -1.201142   104A     -1.195712   105A     -1.188294
     106A     -1.188291   107A     -1.173862   108A     -1.173860
     109A     -1.155768   110A     -1.155764   111A     -1.152871
     112A     -1.144816   113A     -1.144813   114A     -1.128692
     115A     -1.114849   116A     -1.113258   117A     -1.112632
     118A     -1.112619   119A     -1.111707   120A     -1.088553
     121A     -1.088538   122A     -1.077054   123A     -1.077052
     124A     -1.067747   125A     -1.067717   126A     -1.065116
     127A     -1.046914   128A     -1.046906   129A     -1.040601
     130A     -1.038826   131A     -1.038826   132A     -1.025382
     133A     -1.021552   134A     -1.021502   135A     -1.007285
     136A     -1.006928   137A     -1.003904   138A     -1.000625
     139A     -1.000577   140A     -0.991162   141A     -0.971115
     142A     -0.971067   143A     -0.955985   144A     -0.955930
     145A     -0.905752   146A     -0.905711   147A     -0.905634
     148A     -0.905594   149A     -0.904507   150A     -0.892522
     151A     -0.892463   152A     -0.890509   153A     -0.890452
     154A     -0.889585   155A     -0.872315   156A     -0.869131
     157A     -0.851644   158A     -0.848004   159A     -0.847983
     160A     -0.845740   161A     -0.843145   162A     -0.834677
     163A     -0.834664   164A     -0.828208   165A     -0.828204
     166A     -0.784667   167A     -0.784656   168A     -0.783792
     169A     -0.783766   170A     -0.782412   171A     -0.782391
     172A     -0.782174   173A     -0.767102   174A     -0.760945
     175A     -0.750721   176A     -0.733580   177A     -0.727184
     178A     -0.727170   179A     -0.725207   180A     -0.724651
     181A     -0.724632   182A     -0.718648   183A     -0.713912
     184A     -0.713906   185A     -0.699687   186A     -0.699674
     187A     -0.686281   188A     -0.686054   189A     -0.686051
     190A     -0.682276   191A     -0.682266   192A     -0.678908
     193A     -0.653739   194A     -0.650987   195A     -0.650957
     196A     -0.649958   197A     -0.649943   198A     -0.649662
     199A     -0.641078   200A     -0.641050   201A     -0.640186
     202A     -0.639252   203A     -0.636152   204A     -0.636125
     205A     -0.629254   206A     -0.617662   207A     -0.615396
     208A     -0.615376   209A     -0.608907   210A     -0.608900
     211A     -0.599173   212A     -0.599139   213A     -0.598863
     214A     -0.598735   215A     -0.598710   216A     -0.598187
     217A     -0.595163   218A     -0.595150   219A     -0.594832
     220A     -0.594389   221A     -0.592079   222A     -0.592076
     223A     -0.587545   224A     -0.577872   225A     -0.577861
     226A     -0.575729   227A     -0.575725   228A     -0.573482
     229A     -0.569567   230A     -0.568285   231A     -0.568261
     232A     -0.566869   233A     -0.566859   234A     -0.560991
     235A     -0.558846   236A     -0.558826   237A     -0.558507
     238A     -0.554480   239A     -0.550623   240A     -0.547550
     241A     -0.544332   242A     -0.535031   243A     -0.535000
     244A     -0.533644   245A     -0.533622   246A     -0.528173
     247A     -0.528157   248A     -0.527943   249A     -0.517305
     250A     -0.517271   251A     -0.515418   252A     -0.515412
     253A     -0.509735   254A     -0.509719   255A     -0.498129
     256A     -0.496560   257A     -0.496534   258A     -0.493837
     259A     -0.493828   260A     -0.489471   261A     -0.481543
     262A     -0.477481   263A     -0.477478   264A     -0.474094
     265A     -0.469561   266A     -0.466639   267A     -0.466634
     268A     -0.458868   269A     -0.446845   270A     -0.446784
     271A     -0.441091   272A     -0.440819   273A     -0.440793
     274A     -0.434749   275A     -0.433966   276A     -0.407440
     277A     -0.407417   278A     -0.386477   279A     -0.386429
     280A     -0.385790   281A     -0.385789   282A     -0.383821
     283A     -0.354391   284A     -0.354375   285A     -0.350729
     286A     -0.338159   287A     -0.335658   288A     -0.335590
     289A     -0.332773   290A     -0.332767   291A     -0.307154
     292A     -0.302017   293A     -0.301955   294A     -0.300905
     295A     -0.286235   296A     -0.256521   297A     -0.253568
     298A     -0.253516   299A     -0.204327   300A     -0.204239

  @DF-RHF Final Energy: -3650.33784192018902

   => Energetics <=

    Nuclear Repulsion Energy =          15611.4211649754324753
    One-Electron Energy =              -36072.0844893582034274
    Two-Electron Energy =               16810.3254824625837500
    Total Energy =                      -3650.3378419201872020
 Dipole X            :         -0.0009015            0.0002112           -0.0006904
 Dipole Y            :          0.0041667           -0.0044281           -0.0002614
 Dipole Z            :        570.5394271         -570.5451349           -0.0057078
 Magnitude           :                                                    0.0057553

    SAPT Results
  --------------------------------------------------------------------------------------------------------
    Electrostatics                 -8.57918081 [mEh]      -5.38351724 [kcal/mol]     -22.52463612 [kJ/mol]
      Elst10,r                     -8.57918081 [mEh]      -5.38351724 [kcal/mol]     -22.52463612 [kJ/mol]

    Exchange                       -0.00051882 [mEh]      -0.00032557 [kcal/mol]      -0.00136217 [kJ/mol]
      Exch10                       -0.00051882 [mEh]      -0.00032557 [kcal/mol]      -0.00136217 [kJ/mol]
      Exch10(S^2)                  -0.00051882 [mEh]      -0.00032557 [kcal/mol]      -0.00136217 [kJ/mol]

    Induction                      -3.14342960 [mEh]      -1.97253186 [kcal/mol]      -8.25307328 [kJ/mol]
      Ind20,r                      -3.09865845 [mEh]      -1.94443753 [kcal/mol]      -8.13552664 [kJ/mol]
      Exch-Ind20,r                  0.00081952 [mEh]       0.00051426 [kcal/mol]       0.00215166 [kJ/mol]
      delta HF,r (2)               -0.04559068 [mEh]      -0.02860858 [kcal/mol]      -0.11969830 [kJ/mol]

    Dispersion                     -1.93595987 [mEh]      -1.21483316 [kcal/mol]      -5.08286194 [kJ/mol]
      Disp20                       -1.93627392 [mEh]      -1.21503023 [kcal/mol]      -5.08368647 [kJ/mol]
      Exch-Disp20                   0.00031405 [mEh]       0.00019707 [kcal/mol]       0.00082453 [kJ/mol]
      Disp20 (SS)                  -0.96813696 [mEh]      -0.60751511 [kcal/mol]      -2.54184323 [kJ/mol]
      Disp20 (OS)                  -0.96813696 [mEh]      -0.60751511 [kcal/mol]      -2.54184323 [kJ/mol]
      Exch-Disp20 (SS)              0.00024197 [mEh]       0.00015184 [kcal/mol]       0.00063531 [kJ/mol]
      Exch-Disp20 (OS)              0.00007207 [mEh]       0.00004522 [kcal/mol]       0.00018922 [kJ/mol]

  Total HF                        -11.72312924 [mEh]      -7.35637466 [kcal/mol]     -30.77907157 [kJ/mol]
  Total SAPT0                     -13.65908911 [mEh]      -8.57120782 [kcal/mol]     -35.86193352 [kJ/mol]

  Special recipe for scaled SAPT0 (see Manual):
    Electrostatics sSAPT0          -8.57918081 [mEh]      -5.38351724 [kcal/mol]     -22.52463612 [kJ/mol]
    Exchange sSAPT0                -0.00051882 [mEh]      -0.00032557 [kcal/mol]      -0.00136217 [kJ/mol]
    Induction sSAPT0               -3.14342960 [mEh]      -1.97253186 [kcal/mol]      -8.25307328 [kJ/mol]
    Dispersion sSAPT0              -1.93595987 [mEh]      -1.21483316 [kcal/mol]      -5.08286194 [kJ/mol]
  Total sSAPT0                    -13.65908911 [mEh]      -8.57120782 [kcal/mol]     -35.86193352 [kJ/mol]
  --------------------------------------------------------------------------------------------------------

*** Psi4 exiting successfully. Buy a developer a beer!
