                               Psi4 1.9 release

  ==> Input File <==

--------------------------------------------------------------------------
memory 48 GB # how much memory is available ! Depends on the nodes/cores !

molecule dimer {
# monomer A
-1 1    # Charge and multiplicity
B -1.977592e-04  2.742729e-04 2.900034
F  1.123153e-16  1.430594e-17 4.312819
F  1.147860e+00  6.757812e-01 2.428893
F  1.191806e-02 -1.332011e+00 2.429095
F -1.159666e+00  6.560735e-01 2.429174
--
# monomer B
0 1     # Charge and multiplicity
C   1.22531237526482      0.70753866091955      0.00613762728373
C   1.22532433589282     -0.70753852257020     -0.00619318228664
C   -0.00000567409046      1.41496628609039     -0.00672680580738
C   2.45644923379077      1.41832825917820      0.00902448468363
C   0.00001130712078     -1.41497612663474      0.00347275151708
C   -1.22530046906674      0.70754574598412      0.00838914760619
C   2.45643823516184     -1.41832293188077     -0.00843833914343
C   -0.00000085313587      2.83680140328112     -0.00913035594137
C   3.68182717731192      0.70931832800114     -0.00808954934571
C   2.45512052870677      2.83422403348893     -0.00819210630633
C   3.68182158506039     -0.70933346742900      0.00798293467272
C   -1.22531311884624     -0.70752714354401     -0.00512042085974
C   1.22670006104402      3.54346985599427      0.00816696660346
C   0.00000526469929     -2.83678176723568      0.00832091913869
C   -2.45643555300670      1.41831729028492      0.00842454345199
C   2.45512389762097     -2.83422965658853      0.00783102630520
C   -1.22671388474763      3.54346943575023      0.00827029982280
C   4.91451777504333      1.42717324448953     -0.00160886631602
C   3.69315067131765      3.54279566454522     -0.00155906667985
C   -2.45643712022637     -1.41831290883911     -0.00846337726810
C   1.22670532178455     -3.54347386990643     -0.00780316414624
C   -2.45512491866593      2.83421703463423     -0.00818572995999
C   4.91452486062398     -1.42718653794377      0.00136387641845
C   1.22142509354026      4.97013443726031      0.00150231067809
C   4.89300870916237      2.82518837202648     -0.00039219795739
C   -1.22669652864725     -3.54347062507680     -0.00753595973677
C   -3.68181849668397      0.70932533873199     -0.00807686886569
C   3.69314758099218     -3.54280096939050      0.00148176697923
C   -1.22143177215231      4.97012866986289      0.00168580605083
C   6.13477145276790      0.68054831910577     -0.00083909176631
C   3.65678936045204      4.97295361556775     -0.00065042889723
C   -2.45512642789169     -2.83421472106065      0.00758666850712
C   -3.68181869921921     -0.70932533146830      0.00810055625144
C   4.89301309775526     -2.82519973363176      0.00021895393805
C   -0.00000059327114      5.65044773803267      0.00045449734393
C   6.13477559217374     -0.68055448207492      0.00042622874941
C   2.47813196269732      5.65357712333155      0.00063835075260
C   1.22142288457925     -4.97012668293268     -0.00129718634452
C   -3.69316190412301      3.54279732619245     -0.00139355922051
C   -1.22142804110313     -4.97011793159564     -0.00140994817719
C   -4.91452132810043      1.42717581899491     -0.00153192130862
C   3.65678749952045     -4.97295485423912      0.00080007163680
C   -2.47813805026426      5.65357479452875      0.00092287576113
C   -3.69314125872231     -3.54278984697859      0.00136564082345
C   -4.91451200321153     -1.42718062802730      0.00139857359209
C   -0.00000552908399     -5.65043791501335      0.00005899322272
C   -4.89302000425900      2.82518897091939     -0.00040227981744
C   2.47812647313991     -5.65357317188818     -0.00029052915548
C   -3.65679823041642      4.97295655404175     -0.00047374852278
C   -4.89299899901461     -2.82519139505969      0.00006491824035
C   -2.47812801824129     -5.65356579800621     -0.00056571680280
C   -6.13477002348955      0.68054913825639     -0.00086464346868
C   -3.65678835334731     -4.97294365097028      0.00058578382008
C   -6.13476456307132     -0.68055354348201      0.00040575295444
H   5.83528897565761      3.36927626695423      0.00396712770529
H   7.07385965258860      1.22821762089947     -0.00037744837300
H   4.60066374401555      5.51238117445323     -0.00014522814529
H   5.83528386714679     -3.36930568472863     -0.00423551337640
H   -0.00001167146422      6.73853104613662     -0.00389474766392
H   7.07386165167227     -1.22822657074368     -0.00008250934481
H   2.47331421164041      6.74068466339473      0.00017162982210
H   4.60066897122302     -5.51237575717576      0.00039007446835
H   -2.47331820069565      6.74068209160650      0.00047297644710
H   -0.00000978838621     -6.73852780445195      0.00458867820736
H   -5.83530143450167      3.36927132229595      0.00410314985360
H   2.47330840367253     -6.74068500242887      0.00027980126949
H   -4.60067436136587      5.51237839860371      0.00002010017831
H   -5.83527902699321     -3.36928859177951     -0.00451481925734
H   -2.47329986759855     -6.74067870613986     -0.00016951527498
H   -7.07385728692578      1.22822084484047     -0.00046143985387
H   -4.60067330624313     -5.51236229778631      0.00021776644566
H   -7.07385645456741     -1.22822025997701     -0.00017736581114

    units angstrom      # Angstroms are the default
    no_reorient         # Geometry fixed, default
    symmetry c1         # C1 symmetry, default
}

set {
    scf_type DF         # Density fitting, faster than exact integrals
    freeze_core True    # Freeze core electrons
    basis jun-cc-pVDZ   # Jun-cc-pVDZ basis set, recommended for sSAPT0 in https://doi.org/10.1063/1.4867135
}

energy('ssapt0')        # Compute sSAPT0 energy, includes also SAPT0
--------------------------------------------------------------------------

  //              Dimer HF             //
    Molecular point group: c1
  Charge       = -1
  Multiplicity = 1
  Basis Set: JUN-CC-PVDZ
    Blend: JUN-CC-PVDZ
  Basis Set: (JUN-CC-PVDZ AUX)
    Blend: JUN-CC-PVDZ-JKFIT
  @DF-RHF Final Energy: -2478.63001187195323
    Total Energy =                      -2478.6300118719536840
 Dipole X            :         -0.0006856            0.0000481           -0.0006375
 Dipole Y            :          0.0014518           -0.0001453            0.0013065
 Dipole Z            :         14.6166936          -17.7778117           -3.1611182
 Magnitude           :                                                    3.1611185
  //            Monomer A HF           //
    Molecular point group: c1
  Multiplicity = 1
  Basis Set: JUN-CC-PVDZ
    Blend: JUN-CC-PVDZ
  Basis Set: (JUN-CC-PVDZ AUX)
    Blend: JUN-CC-PVDZ-JKFIT
  @DF-RHF Final Energy:  -422.77493285411612
    Total Energy =                       -422.7749328541161162
  //            Monomer B HF           //
    Molecular point group: c1

    Geometry (in Angstrom), charge = 0, multiplicity = 1:

       Center              X                  Y                   Z               Mass
    ------------   -----------------  -----------------  -----------------  -----------------
      Gh(B)          -0.000198161052     0.000273808717     2.565029174354    11.009305360000
      Gh(F)          -0.000000401852    -0.000000464183     3.977814174354    18.998403162730
      Gh(F)           1.147859598148     0.675780735817     2.093888174354    18.998403162730
      Gh(F)           0.011917658148    -1.332011464183     2.094090174354    18.998403162730
      Gh(F)          -1.159666401852     0.656073035817     2.094169174354    18.998403162730
         C            1.225311973413     0.707538196736    -0.328867198362    12.000000000000
         C            1.225323934041    -0.707538986754    -0.341198007933    12.000000000000
         C           -0.000006075942     1.414965821907    -0.341731631453    12.000000000000
         C            2.456448831939     1.418327794995    -0.325980340962    12.000000000000
         C            0.000010905269    -1.414976590818    -0.331532074129    12.000000000000
         C           -1.225300870919     0.707545281801    -0.326615678040    12.000000000000
         C            2.456437833310    -1.418323396064    -0.343443164789    12.000000000000
         C           -0.000001254988     2.836800939098    -0.344135181587    12.000000000000
         C            3.681826775460     0.709317863818    -0.343094374992    12.000000000000
         C            2.455120126855     2.834223569306    -0.343196931952    12.000000000000
         C            3.681821183209    -0.709333931612    -0.327021890973    12.000000000000
         C           -1.225313520698    -0.707527607727    -0.340125246506    12.000000000000
         C            1.226699659192     3.543469391811    -0.326837859042    12.000000000000
         C            0.000004862847    -2.836782231419    -0.326683906507    12.000000000000
         C           -2.456435954859     1.418316826102    -0.326580282194    12.000000000000
         C            2.455123495769    -2.834230120772    -0.327173799341    12.000000000000
         C           -1.226714286599     3.543468971567    -0.326734525823    12.000000000000
         C            4.914517373191     1.427172780306    -0.336613691962    12.000000000000
         C            3.693150269466     3.542795200362    -0.336563892326    12.000000000000
         C           -2.456437522078    -1.418313373022    -0.343468202914    12.000000000000
         C            1.226704919933    -3.543474334090    -0.342807989792    12.000000000000
         C           -2.455125320518     2.834216570451    -0.343190555606    12.000000000000
         C            4.914524458772    -1.427187002127    -0.333640949227    12.000000000000
         C            1.221424691688     4.970133973077    -0.333502514968    12.000000000000
         C            4.893008307311     2.825187907843    -0.335397023603    12.000000000000
         C           -1.226696930499    -3.543471089260    -0.342540785383    12.000000000000
         C           -3.681818898536     0.709324874549    -0.343081694512    12.000000000000
         C            3.693147179140    -3.542801433574    -0.333523058667    12.000000000000
         C           -1.221432174004     4.970128205680    -0.333319019595    12.000000000000
         C            6.134771050916     0.680547854922    -0.335843917412    12.000000000000
         C            3.656788958600     4.972953151384    -0.335655254543    12.000000000000
         C           -2.455126829744    -2.834215185244    -0.327418157139    12.000000000000
         C           -3.681819101071    -0.709325795652    -0.326904269394    12.000000000000
         C            4.893012695903    -2.825200197815    -0.334785871708    12.000000000000
         C           -0.000000995123     5.650447273849    -0.334550328302    12.000000000000
         C            6.134775190322    -0.680554946258    -0.334578596896    12.000000000000
         C            2.478131560845     5.653576659148    -0.334366474893    12.000000000000
         C            1.221422482727    -4.970127147116    -0.336302011990    12.000000000000
         C           -3.693162305975     3.542796862009    -0.336398384866    12.000000000000
         C           -1.221428442955    -4.970118395779    -0.336414773823    12.000000000000
         C           -4.914521729952     1.427175354812    -0.336536746955    12.000000000000
         C            3.656787097669    -4.972955318422    -0.334204754009    12.000000000000
         C           -2.478138452116     5.653574330345    -0.334081949885    12.000000000000
         C           -3.693141660574    -3.542790311162    -0.333639184822    12.000000000000
         C           -4.914512405063    -1.427181092211    -0.333606252054    12.000000000000
         C           -0.000005930936    -5.650438379197    -0.334945832423    12.000000000000
         C           -4.893020406111     2.825188506736    -0.335407105463    12.000000000000
         C            2.478126071288    -5.653573636072    -0.335295354801    12.000000000000
         C           -3.656798632268     4.972956089858    -0.335478574169    12.000000000000
         C           -4.892999400866    -2.825191859243    -0.334939907406    12.000000000000
         C           -2.478128420093    -5.653566262190    -0.335570542449    12.000000000000
         C           -6.134770425341     0.680548674073    -0.335869469115    12.000000000000
         C           -3.656788755199    -4.972944115154    -0.334419041826    12.000000000000
         C           -6.134764964923    -0.680554007665    -0.334599072691    12.000000000000
         H            5.835288573806     3.369275802771    -0.331037697941     1.007825032230
         H            7.073859250737     1.228217156716    -0.335382274019     1.007825032230
         H            4.600663342164     5.512380710270    -0.335150053791     1.007825032230
         H            5.835283465295    -3.369306148912    -0.339240339022     1.007825032230
         H           -0.000012073316     6.738530581953    -0.338899573310     1.007825032230
         H            7.073861249820    -1.228227034927    -0.335087334991     1.007825032230
         H            2.473313809789     6.740684199211    -0.334833195824     1.007825032230
         H            4.600668569371    -5.512376221359    -0.334614751178     1.007825032230
         H           -2.473318602548     6.740681627423    -0.334531849199     1.007825032230
         H           -0.000010190238    -6.738528268635    -0.330416147439     1.007825032230
         H           -5.835301836354     3.369270858113    -0.330901675792     1.007825032230
         H            2.473308001821    -6.740685466612    -0.334725024376     1.007825032230
         H           -4.600674763218     5.512377934420    -0.334984725468     1.007825032230
         H           -5.835279428845    -3.369289055963    -0.339519644903     1.007825032230
         H           -2.473300269450    -6.740679170323    -0.335174340921     1.007825032230
         H           -7.073857688778     1.228220380657    -0.335466265500     1.007825032230
         H           -4.600673708095    -5.512362761970    -0.334787059200     1.007825032230
         H           -7.073856856419    -1.228220724160    -0.335182191457     1.007825032230

  Charge       = 0
  Multiplicity = 1
  Basis Set: JUN-CC-PVDZ
    Blend: JUN-CC-PVDZ
  Basis Set: (JUN-CC-PVDZ AUX)
    Blend: JUN-CC-PVDZ-JKFIT

    Orbital Energies [Eh]
    ---------------------

    Doubly Occupied:

       1A    -11.260695     2A    -11.260244     3A    -11.260243
       4A    -11.259469     5A    -11.259469     6A    -11.259276
       7A    -11.259029     8A    -11.258960     9A    -11.258960
      10A    -11.258635    11A    -11.258632    12A    -11.258512
      13A    -11.258458    14A    -11.258457    15A    -11.258452
      16A    -11.258417    17A    -11.258410    18A    -11.258392
      19A    -11.258391    20A    -11.258390    21A    -11.258386
      22A    -11.258322    23A    -11.258316    24A    -11.258099
      25A    -11.257302    26A    -11.257243    27A    -11.257242
      28A    -11.257111    29A    -11.257111    30A    -11.257030
      31A    -11.256396    32A    -11.256327    33A    -11.256326
      34A    -11.256220    35A    -11.256219    36A    -11.256173
      37A    -11.252272    38A    -11.252272    39A    -11.252270
      40A    -11.252269    41A    -11.252267    42A    -11.252265
      43A    -11.251365    44A    -11.251363    45A    -11.251363
      46A    -11.251351    47A    -11.251350    48A    -11.251347
      49A    -11.250834    50A    -11.250833    51A    -11.250832
      52A    -11.250829    53A    -11.250828    54A    -11.250826
      55A     -1.243976    56A     -1.219761    57A     -1.219760
      58A     -1.189503    59A     -1.189496    60A     -1.180859
      61A     -1.157535    62A     -1.148939    63A     -1.135419
      64A     -1.135413    65A     -1.113165    66A     -1.113161
      67A     -1.082378    68A     -1.082371    69A     -1.078533
      70A     -1.065957    71A     -1.065953    72A     -1.039366
      73A     -1.024202    74A     -1.021681    75A     -1.021639
      76A     -1.017707    77A     -1.012774    78A     -0.986967
      79A     -0.986921    80A     -0.961846    81A     -0.961796
      82A     -0.894263    83A     -0.894236    84A     -0.887856
      85A     -0.886105    86A     -0.886047    87A     -0.881340
      88A     -0.881293    89A     -0.861868    90A     -0.837400
      91A     -0.818171    92A     -0.816541    93A     -0.812079
      94A     -0.812069    95A     -0.794662    96A     -0.794651
      97A     -0.746562    98A     -0.744800    99A     -0.733341
     100A     -0.733332   101A     -0.732151   102A     -0.732128
     103A     -0.716441   104A     -0.698944   105A     -0.698933
     106A     -0.693534   107A     -0.693519   108A     -0.661197
     109A     -0.653023   110A     -0.651081   111A     -0.650226
     112A     -0.650220   113A     -0.639332   114A     -0.639329
     115A     -0.629659   116A     -0.627464   117A     -0.627448
     118A     -0.606460   119A     -0.605802   120A     -0.601605
     121A     -0.599700   122A     -0.599669   123A     -0.593595
     124A     -0.591128   125A     -0.591118   126A     -0.585263
     127A     -0.576387   128A     -0.576381   129A     -0.567303
     130A     -0.567288   131A     -0.565886   132A     -0.565867
     133A     -0.558650   134A     -0.554807   135A     -0.554800
     136A     -0.538564   137A     -0.538562   138A     -0.538173
     139A     -0.538167   140A     -0.529682   141A     -0.528187
     142A     -0.522832   143A     -0.522826   144A     -0.500475
     145A     -0.495579   146A     -0.493203   147A     -0.487821
     148A     -0.485026   149A     -0.481708   150A     -0.481700
     151A     -0.470343   152A     -0.470325   153A     -0.450939
     154A     -0.450861   155A     -0.439057   156A     -0.439048
     157A     -0.404709   158A     -0.404686   159A     -0.403353
     160A     -0.375409   161A     -0.375406   162A     -0.349113
     163A     -0.337548   164A     -0.336517   165A     -0.336460
     166A     -0.311044   167A     -0.298104   168A     -0.284291
     169A     -0.284237   170A     -0.224870   171A     -0.224804

  @DF-RHF Final Energy: -2055.89438586487404

   => Energetics <=

    Nuclear Repulsion Energy =           6452.5568002797781446
    One-Electron Energy =              -15636.4949280717992224
    Two-Electron Energy =                7128.0437419271474937
    Total Energy =                      -2055.8943858648744936
 Dipole X            :          0.0000024            0.0000419            0.0000443
 Dipole Y            :          0.0000761           -0.0000426            0.0000335
 Dipole Z            :        216.5137136         -216.5104839            0.0032297
 Magnitude           :                                                    0.0032301

    SAPT Results
  --------------------------------------------------------------------------------------------------------
    Electrostatics                -26.35194645 [mEh]     -16.53609605 [kcal/mol]     -69.18702588 [kJ/mol]
      Elst10,r                    -26.35194645 [mEh]     -16.53609605 [kcal/mol]     -69.18702588 [kJ/mol]

    Exchange                       95.13086678 [mEh]      59.69552015 [kcal/mol]     249.76605631 [kJ/mol]
      Exch10                       95.13086678 [mEh]      59.69552015 [kcal/mol]     249.76605631 [kJ/mol]
      Exch10(S^2)                  94.06173018 [mEh]      59.02462681 [kcal/mol]     246.95903856 [kJ/mol]

    Induction                     -29.47207329 [mEh]     -18.49400520 [kcal/mol]     -77.37891776 [kJ/mol]
      Ind20,r                     -64.48484331 [mEh]     -40.46485009 [kcal/mol]    -169.30493279 [kJ/mol]
      Exch-Ind20,r                 41.81766662 [mEh]      26.24098197 [kcal/mol]     109.79226857 [kJ/mol]
      delta HF,r (2)               -6.80489659 [mEh]      -4.27013708 [kcal/mol]     -17.86625354 [kJ/mol]

    Dispersion                    -27.31037534 [mEh]     -17.13751926 [kcal/mol]     -71.70338058 [kJ/mol]
      Disp20                      -36.35180009 [mEh]     -22.81109894 [kcal/mol]     -95.44163798 [kJ/mol]
      Exch-Disp20                   9.04142474 [mEh]       5.67357968 [kcal/mol]      23.73825740 [kJ/mol]
      Disp20 (SS)                 -18.17590004 [mEh]     -11.40554947 [kcal/mol]     -47.72081899 [kJ/mol]
      Disp20 (OS)                 -18.17590004 [mEh]     -11.40554947 [kcal/mol]     -47.72081899 [kJ/mol]
      Exch-Disp20 (SS)              4.93470538 [mEh]       3.09657438 [kcal/mol]      12.95606720 [kJ/mol]
      Exch-Disp20 (OS)              4.10671936 [mEh]       2.57700531 [kcal/mol]      10.78219020 [kJ/mol]

  Total HF                         39.30684704 [mEh]      24.66541890 [kcal/mol]     103.20011268 [kJ/mol]
  Total SAPT0                      11.99647170 [mEh]       7.52789964 [kcal/mol]      31.49673210 [kJ/mol]

  Special recipe for scaled SAPT0 (see Manual):
    Electrostatics sSAPT0         -26.35194645 [mEh]     -16.53609605 [kcal/mol]     -69.18702588 [kJ/mol]
    Exchange sSAPT0                95.13086678 [mEh]      59.69552015 [kcal/mol]     249.76605631 [kJ/mol]
    Induction sSAPT0              -28.02986407 [mEh]     -17.58900525 [kcal/mol]     -73.59239797 [kJ/mol]
    Dispersion sSAPT0             -26.99855435 [mEh]     -16.94184864 [kcal/mol]     -70.88469469 [kJ/mol]
  Total sSAPT0                     13.75050190 [mEh]       8.62857021 [kcal/mol]      36.10193777 [kJ/mol]
  --------------------------------------------------------------------------------------------------------

*** Psi4 exiting successfully. Buy a developer a beer!
