                               Psi4 1.9 release

  ==> Input File <==

--------------------------------------------------------------------------
memory 64 GB # how much memory is available ! Depends on the nodes/cores !

molecule dimer {
# monomer A
+1 1    # Charge and multiplicity
C  0.680067 -1.215929 7.808042
C -0.680504 -1.215545 7.806014
N -1.085635  0.102779 7.805016
C  0.000108  0.884180 7.801740
C -2.477365  0.570758 7.755610
N  1.085222  0.102779 7.805016
H  1.385146 -2.033368 7.815870
H -1.385302 -2.033214 7.806204
H -0.000009  1.965269 7.799993
C  2.478117  0.567877 7.821908
H  2.490592  1.658130 7.794563
H  2.967028  0.220701 8.735354
H  3.001428  0.176405 6.946425
H -2.857359  0.490799 6.733539
H -3.082679 -0.042306 8.425694
H -2.518128  1.610706 8.082594
--
# monomer B
0 1     # Charge and multiplicity
C   -3.66844126402057      7.80375217008252      0.00190004133558
C   -4.84759871934653      7.13124183134024     -0.00046653359696
C   -4.89495929917518      5.69633040353158     -0.00103944469517
C   -3.65374067877320      4.98073034095895      0.00662099703436
C   -2.40942512149445      7.11398103667468      0.00209438359570
C   -2.42547734410473      5.68112195090346     -0.00491050527438
C   -1.19474401643570      7.78614419430947      0.00356656413763
C   0.03795902893699      7.09942164575698      0.00139585983271
C   0.03033258741920      5.66948955970466     -0.00408752508301
C   -1.20098450790502      4.96927034791531      0.00488220885047
C   1.27795782581485      7.77285944319479      0.00277170839332
C   2.48535808472416      7.08769688523756      0.00049722048857
C   2.48612868491717      5.65477081024076     -0.00644052849921
C   1.25408291964399      4.95607811366431      0.00518741308898
C   3.75171459140595      7.76391215098033      0.00062407186893
C   4.92356605618520      7.07878077698995     -0.00143240883900
C   4.95560727132542      5.64344746336949     -0.00159282164606
C   3.70680153420475      4.94121020833308      0.00349873852374
H   -3.65852113775815      8.89082741913536      0.00358502958574
H   -1.18921332975660      8.87412108735996      0.00753844057883
H   1.28429423888630      8.86083343548850      0.00693053253426
H   3.75354208679975      8.85103527897216      0.00214659618464
H   5.86995870320703      7.61379483465560     -0.00235777588134
H   -5.78823170750226      7.67630221293400     -0.00202638095293
C   -6.09197395869619      4.99326001364347     -0.00291168518608
C   -6.12866148031747      3.58258016879823     -0.00171050815740
C   -3.66457974004527      3.56418217974434     -0.00463560277484
C   -4.89429820469869      2.86108077590057      0.00453338221034
C   -2.43733499489796      2.84761165708481      0.00719617576166
C   -1.20922785759670      3.54788693497833     -0.00648285103018
C   1.24714157216223      3.53468075142962     -0.00729145743546
C   0.01517603956900      2.83311183930540      0.00439272578912
C   2.46764517244071      2.82128997725533      0.00449278391269
C   3.70254947457969      3.52466015442405     -0.00899517692985
C   6.14498038638375      4.92757236613191     -0.00282626685777
C   6.16658835886151      3.51658447594213     -0.00065971342101
C   4.92460995845939      2.80840792535402      0.00587903281610
H   7.08990550964105      5.46688776622306     -0.00658814770723
H   -7.03104175110130      5.54268795285765     -0.00714490013730
C   -7.33969804112295      2.85841153457957     -0.00333767559888
C   -7.36488195805880      1.47032337158330     -0.00157213747140
C   -4.90350460894690      1.44442681216000     -0.00628840166334
C   -6.13225715261081      0.73993935705394      0.00600164231964
C   -3.67687480051673      0.72669714267312      0.00433931473643
C   -2.44565658606518      1.42964113326212     -0.00597039546461
C   -1.22360068130162      0.71532450163492      0.00545886906656
C   0.00763786931376      1.41738314923765      0.00392452278437
C   1.23121980774686      0.70211669058719     -0.01490206287210
C   2.46082110053113      1.40329203612573      0.00460244601878
C   3.68443025419614      0.68719842821222      0.00377365974158
C   4.91870890153864      1.39173456118907     -0.00862816189375
C   7.36980207796101      2.77948220318441     -0.00242013321349
C   7.38016266612146      1.39121750785509     -0.00087345036788
C   6.13979953912259      0.67411862320065      0.00545489144369
H   -8.27919079934664      3.40711804112415     -0.00763522772059
H   8.31511347147953      3.31811809662368     -0.00663070901292
C   -8.59175593758115      0.72483255304480     -0.00123170985383
C   -8.59902460370342     -0.63263980622873      0.00089141472904
C   -6.13981313911873     -0.67413663715361     -0.00609792660607
C   -7.38018411213749     -1.39126618958160      0.00131813493501
C   -4.91868448025621     -1.39175501803000      0.00624257154343
C   -3.68443829568458     -0.68723731573599     -0.00478966852105
C   -2.46081704024768     -1.40334517882457      0.00575341766833
C   -1.23116201232071     -0.70217386488055     -0.00636696112346
C   -0.00756962538737     -1.41741884941102      0.00108956317991
C   1.22364771588843     -0.71527537726392      0.01109518512883
C   2.44567064933149     -1.42964328900682     -0.00065482763106
C   3.67686670284649     -0.72670743155550     -0.00479541202602
C   6.13224884641929     -0.73997883984993     -0.00632338623858
C   4.90351914550401     -1.44445752054090      0.00751768830159
C   8.59901484869081      0.63260386666793     -0.00101133422380
C   8.59174548810050     -0.72485086719319      0.00072504603735
C   7.36486276438985     -1.47033266560598      0.00049486934466
H   -9.52830597181814      1.27684744919284     -0.00270163681798
H   9.54141097460619      1.17457248844457     -0.00206336648518
C   -7.36983790976868     -2.77954514593389      0.00312634335708
C   -4.92459910905015     -2.80843725734101     -0.00460528907921
C   -6.16662249566744     -3.51665219282533      0.00169655107992
C   -3.70251035970491     -3.52468154912026      0.00571878010666
C   -2.46764698511392     -2.82132596280400     -0.00632585824990
C   -0.01513347410770     -2.83314164539971     -0.00604426974092
C   -1.24712184122656     -3.53473217556300      0.00551968366725
C   1.20924506964357     -3.54791467864352      0.00805871345849
C   2.43733602215464     -2.84764173817541     -0.00608104485234
C   4.89430234377080     -2.86112296828604     -0.00526030478103
C   3.66461525504104     -3.56421984553201      0.00761911515957
C   6.12863901474565     -3.58258405771778      0.00096495711699
C   7.33967266469532     -2.85841330737039      0.00248018319869
H   -9.54144911125902     -1.17456346666430      0.00226083090216
H   9.52826186807155     -1.27691907390448      0.00197485379837
H   -8.31516504384864     -3.31814985321231      0.00729857188773
H   8.27915514249207     -3.40714078989363      0.00681973918158
C   -6.14499418870218     -4.92764727278338      0.00302254913999
C   -3.70678334799751     -4.94126171411716     -0.00679841894792
C   -4.95559005800169     -5.64349397349412      0.00116871569699
C   -2.48612132622665     -5.65478557440947      0.00614125209662
C   -1.25405833548005     -4.95612205000132     -0.00503435388927
C   1.20101257386816     -4.96928038819302     -0.00385322963129
C   -0.03033667441341     -5.66952030313900      0.00398997003238
C   3.65375010132847     -4.98074377541453     -0.00309522988330
C   2.42549269587528     -5.68117463552727      0.00628170066869
C   6.09196561781097     -4.99325796338655      0.00325918379042
C   4.89497644461045     -5.69634842095790      0.00202298796027
H   -7.08989238804069     -5.46699984223871      0.00742531082125
H   7.03105520920009     -5.54265853633254      0.00683896355417
C   -4.92354532219813     -7.07882109967734      0.00061394679214
C   -2.48534208823777     -7.08772807792913     -0.00189594564379
C   -3.75168589177895     -7.76394715763627     -0.00170126671874
C   -0.03794895698805     -7.09946487446944     -0.00168022049625
C   -1.27795610040136     -7.77290438466689     -0.00366491325785
C   2.40944432072629     -7.11402201200282     -0.00081701968533
C   1.19474993715296     -7.78618536556242     -0.00296931056689
C   4.84762105249800     -7.13126211057943      0.00168979497423
C   3.66847160587561     -7.80378799294376     -0.00065863938960
H   -5.86994035041618     -7.61383059804164      0.00215798365757
H   5.78824962538815     -7.67633218931421      0.00281691445618
H   -3.75352693944918     -8.85107156923607     -0.00353718114765
H   -1.28430440589466     -8.86087539249706     -0.00809229711623
H   1.18922157469537     -8.87416062058945     -0.00706194725726
H   3.65854661482387     -8.89086063405326     -0.00231318081200

    units angstrom      # Angstroms are the default
    no_reorient         # Geometry fixed, default
    symmetry c1         # C1 symmetry, default
}

set {
    scf_type DF         # Density fitting, faster than exact integrals
    freeze_core True    # Freeze core electrons
    basis jun-cc-pVDZ   # Jun-cc-pVDZ basis set, recommended for sSAPT0 in https://doi.org/10.1063/1.4867135
}

energy('ssapt0')        # Compute sSAPT0 energy, includes also SAPT0
--------------------------------------------------------------------------

  //              Dimer HF             //
    Molecular point group: c1
  Charge       = 1
  Multiplicity = 1
  Basis Set: JUN-CC-PVDZ
    Blend: JUN-CC-PVDZ
  Basis Set: (JUN-CC-PVDZ AUX)
    Blend: JUN-CC-PVDZ-JKFIT
  @DF-RHF Final Energy: -3953.64405792417665
    Total Energy =                      -3953.6440579241752857
 Dipole X            :          0.0013167            0.0004804            0.0017971
 Dipole Y            :         -1.5240558            1.8866171            0.3625613
 Dipole Z            :        -34.6013681           47.3143976           12.7130295
 Magnitude           :                                                   12.7181985
  //            Monomer A HF           //
    Molecular point group: c1
  Multiplicity = 1
  Basis Set: JUN-CC-PVDZ
    Blend: JUN-CC-PVDZ
  Basis Set: (JUN-CC-PVDZ AUX)
    Blend: JUN-CC-PVDZ-JKFIT
  @DF-RHF Final Energy:  -303.29720373146711
    Total Energy =                       -303.2972037314671070
  //            Monomer B HF           //
    Molecular point group: c1

    Geometry (in Angstrom), charge = 0, multiplicity = 1:

       Center              X                  Y                   Z               Mass
    ------------   -----------------  -----------------  -----------------  -----------------
      Gh(C)           0.680062820275    -1.215917226251     7.213349139391    12.000000000000
      Gh(C)          -0.680508179725    -1.215533226251     7.211321139391    12.000000000000
      Gh(N)          -1.085639179725     0.102790773749     7.210323139391    14.003074004430
      Gh(C)           0.000103820275     0.884191773749     7.207047139391    12.000000000000
      Gh(C)          -2.477369179725     0.570769773749     7.160917139391    12.000000000000
      Gh(N)           1.085217820275     0.102790773749     7.210323139391    14.003074004430
      Gh(H)           1.385141820275    -2.033356226251     7.221177139391     1.007825032230
      Gh(H)          -1.385306179725    -2.033202226251     7.211511139391     1.007825032230
      Gh(H)          -0.000013179725     1.965280773749     7.205300139391     1.007825032230
      Gh(C)           2.478112820275     0.567888773749     7.227215139391    12.000000000000
      Gh(H)           2.490587820275     1.658141773750     7.199870139391     1.007825032230
      Gh(H)           2.967023820275     0.220712773749     8.140661139391     1.007825032230
      Gh(H)           3.001423820275     0.176416773749     6.351732139391     1.007825032230
      Gh(H)          -2.857363179725     0.490810773749     6.138846139391     1.007825032230
      Gh(H)          -3.082683179725    -0.042294226251     7.831001139391     1.007825032230
      Gh(H)          -2.518132179725     1.610717773749     7.487901139391     1.007825032230
         C           -3.668445443746     7.803763943832    -0.592792819273    12.000000000000
         C           -4.847602899072     7.131253605090    -0.595159394206    12.000000000000
         C           -4.894963478901     5.696342177281    -0.595732305304    12.000000000000
         C           -3.653744858499     4.980742114708    -0.588071863575    12.000000000000
         C           -2.409429301220     7.113992810424    -0.592598477013    12.000000000000
         C           -2.425481523830     5.681133724653    -0.599603365883    12.000000000000
         C           -1.194748196161     7.786155968059    -0.591126296471    12.000000000000
         C            0.037954849212     7.099433419506    -0.593297000776    12.000000000000
         C            0.030328407694     5.669501333454    -0.598780385692    12.000000000000
         C           -1.200988687630     4.969282121665    -0.589810651759    12.000000000000
         C            1.277953646089     7.772871216944    -0.591921152216    12.000000000000
         C            2.485353904999     7.087708658987    -0.594195640120    12.000000000000
         C            2.486124505192     5.654782583990    -0.601133389108    12.000000000000
         C            1.254078739919     4.956089887414    -0.589505447520    12.000000000000
         C            3.751710411681     7.763923924730    -0.594068788740    12.000000000000
         C            4.923561876460     7.078792550739    -0.596125269448    12.000000000000
         C            4.955603091600     5.643459237119    -0.596285682255    12.000000000000
         C            3.706797354479     4.941221982083    -0.591194122085    12.000000000000
         H           -3.658525317484     8.890839192885    -0.591107831023     1.007825032230
         H           -1.189217509482     8.874132861109    -0.587154420030     1.007825032230
         H            1.284290059161     8.860845209238    -0.587762328075     1.007825032230
         H            3.753537907074     8.851047052722    -0.592546264424     1.007825032230
         H            5.869954523482     7.613806608405    -0.597050636490     1.007825032230
         H           -5.788235887228     7.676313986684    -0.596719241562     1.007825032230
         C           -6.091978138422     4.993271787393    -0.597604545795    12.000000000000
         C           -6.128665660043     3.582591942548    -0.596403368766    12.000000000000
         C           -3.664583919771     3.564193953494    -0.599328463384    12.000000000000
         C           -4.894302384424     2.861092549650    -0.590159478399    12.000000000000
         C           -2.437339174623     2.847623430834    -0.587496684847    12.000000000000
         C           -1.209232037322     3.547898708728    -0.601175711639    12.000000000000
         C            1.247137392437     3.534692525179    -0.601984318045    12.000000000000
         C            0.015171859844     2.833123613055    -0.590300134820    12.000000000000
         C            2.467640992715     2.821301751005    -0.590200076696    12.000000000000
         C            3.702545294854     3.524671928174    -0.603688037539    12.000000000000
         C            6.144976206658     4.927584139881    -0.597519127467    12.000000000000
         C            6.166584179136     3.516596249692    -0.595352574030    12.000000000000
         C            4.924605778734     2.808419699104    -0.588813827793    12.000000000000
         H            7.089901329916     5.466899539973    -0.601281008316     1.007825032230
         H           -7.031045930827     5.542699726607    -0.601837760746     1.007825032230
         C           -7.339702220848     2.858423308329    -0.598030536208    12.000000000000
         C           -7.364886137784     1.470335145333    -0.596264998080    12.000000000000
         C           -4.903508788672     1.444438585909    -0.600981262272    12.000000000000
         C           -6.132261332336     0.739951130803    -0.588691218289    12.000000000000
         C           -3.676878980242     0.726708916423    -0.590353545873    12.000000000000
         C           -2.445660765791     1.429652907012    -0.600663256074    12.000000000000
         C           -1.223604861027     0.715336275384    -0.589233991542    12.000000000000
         C            0.007633689588     1.417394922987    -0.590768337825    12.000000000000
         C            1.231215628021     0.702128464337    -0.609594923481    12.000000000000
         C            2.460816920806     1.403303809875    -0.590090414590    12.000000000000
         C            3.684426074471     0.687210201962    -0.590919200867    12.000000000000
         C            4.918704721813     1.391746334939    -0.603321022503    12.000000000000
         C            7.369797898236     2.779493976934    -0.597112993823    12.000000000000
         C            7.380158486396     1.391229281605    -0.595566310977    12.000000000000
         C            6.139795359397     0.674130396950    -0.589237969165    12.000000000000
         H           -8.279194979072     3.407129814874    -0.602328088330     1.007825032230
         H            8.315109291754     3.318129870373    -0.601323569622     1.007825032230
         C           -8.591760117307     0.724844326794    -0.595924570463    12.000000000000
         C           -8.599028783429    -0.632628032479    -0.593801445880    12.000000000000
         C           -6.139817318844    -0.674124863404    -0.600790787215    12.000000000000
         C           -7.380188291863    -1.391254415832    -0.593374725674    12.000000000000
         C           -4.918688659982    -1.391743244281    -0.588450289066    12.000000000000
         C           -3.684442475410    -0.687225541986    -0.599482529130    12.000000000000
         C           -2.460821219973    -1.403333405075    -0.588939442941    12.000000000000
         C           -1.231166192046    -0.702162091131    -0.601059821733    12.000000000000
         C           -0.007573805113    -1.417407075662    -0.593603297429    12.000000000000
         C            1.223643536163    -0.715263603514    -0.583597675480    12.000000000000
         C            2.445666469606    -1.429631515257    -0.595347688240    12.000000000000
         C            3.676862523121    -0.726695657806    -0.599488272635    12.000000000000
         C            6.132244666694    -0.739967066100    -0.601016246848    12.000000000000
         C            4.903514965779    -1.444445746791    -0.587175172307    12.000000000000
         C            8.599010668965     0.632615640417    -0.595704194833    12.000000000000
         C            8.591741308375    -0.724839093444    -0.593967814572    12.000000000000
         C            7.364858584664    -1.470320891856    -0.594197991264    12.000000000000
         H           -9.528310151544     1.276859222942    -0.597394497427     1.007825032230
         H            9.541406794881     1.174584262194    -0.596756227094     1.007825032230
         C           -7.369842089494    -2.779533372184    -0.591566517252    12.000000000000
         C           -4.924603288776    -2.808425483592    -0.599298149688    12.000000000000
         C           -6.166626675393    -3.516640419076    -0.592996309529    12.000000000000
         C           -3.702514539430    -3.524669775371    -0.588974080502    12.000000000000
         C           -2.467651164839    -2.821314189055    -0.601018718859    12.000000000000
         C           -0.015137653833    -2.833129871650    -0.600737130350    12.000000000000
         C           -1.247126020952    -3.534720401814    -0.589173176942    12.000000000000
         C            1.209240889918    -3.547902904894    -0.586634147151    12.000000000000
         C            2.437331842429    -2.847629964426    -0.600773905461    12.000000000000
         C            4.894298164045    -2.861111194537    -0.599953165390    12.000000000000
         C            3.664611075316    -3.564208071783    -0.587073745449    12.000000000000
         C            6.128634835020    -3.582572283968    -0.593727903492    12.000000000000
         C            7.339668484970    -2.858401533621    -0.592212677410    12.000000000000
         H           -9.541453290984    -1.174551692915    -0.592432029707     1.007825032230
         H            9.528257688346    -1.276907300155    -0.592718006811     1.007825032230
         H           -8.315169223574    -3.318138079463    -0.587394288721     1.007825032230
         H            8.279150962767    -3.407129016144    -0.587873121427     1.007825032230
         C           -6.144998368428    -4.927635499034    -0.591670311469    12.000000000000
         C           -3.706787527723    -4.941249940368    -0.601491279557    12.000000000000
         C           -4.955594237727    -5.643482199745    -0.593524144912    12.000000000000
         C           -2.486125505952    -5.654773800660    -0.588551608512    12.000000000000
         C           -1.254062515205    -4.956110276252    -0.599727214498    12.000000000000
         C            1.201008394143    -4.969268614444    -0.598546090240    12.000000000000
         C           -0.030340854139    -5.669508529390    -0.590702890577    12.000000000000
         C            3.653745921603    -4.980732001665    -0.597788090492    12.000000000000
         C            2.425488516150    -5.681162861778    -0.588411159940    12.000000000000
         C            6.091961438086    -4.993246189637    -0.591433676819    12.000000000000
         C            4.894972264885    -5.696336647208    -0.592669872649    12.000000000000
         H           -7.089896567766    -5.466988068489    -0.587267549788     1.007825032230
         H            7.031051029475    -5.542646762583    -0.587853897055     1.007825032230
         C           -4.923549501924    -7.078809325928    -0.594078913817    12.000000000000
         C           -2.485346267963    -7.087716304180    -0.596588806253    12.000000000000
         C           -3.751690071504    -7.763935383887    -0.596394127328    12.000000000000
         C           -0.037953136713    -7.099453100720    -0.596373081105    12.000000000000
         C           -1.277960280127    -7.772892610917    -0.598357773867    12.000000000000
         C            2.409440141001    -7.114010238253    -0.595509880294    12.000000000000
         C            1.194745757428    -7.786173591813    -0.597662171176    12.000000000000
         C            4.847616872773    -7.131250336830    -0.593003065635    12.000000000000
         C            3.668467426150    -7.803776219194    -0.595351499999    12.000000000000
         H           -5.869944530142    -7.613818824292    -0.592534876951     1.007825032230
         H            5.788245445663    -7.676320415565    -0.591875946153     1.007825032230
         H           -3.753531119175    -8.851059795487    -0.598230041757     1.007825032230
         H           -1.284308585620    -8.860863618748    -0.602785157725     1.007825032230
         H            1.189217394970    -8.874148846840    -0.601754807866     1.007825032230
         H            3.658542435098    -8.890848860304    -0.597006041421     1.007825032230

  Charge       = 0
  Multiplicity = 1
  Basis Set: JUN-CC-PVDZ
    Blend: JUN-CC-PVDZ
  Basis Set: (JUN-CC-PVDZ AUX)
    Blend: JUN-CC-PVDZ-JKFIT

    Orbital Energies [Eh]
    ---------------------

    Doubly Occupied:

       1A    -11.264044     2A    -11.263730     3A    -11.263729
       4A    -11.263389     5A    -11.263386     6A    -11.263351
       7A    -11.263194     8A    -11.263167     9A    -11.263164
      10A    -11.263008    11A    -11.262848    12A    -11.262844
      13A    -11.262365    14A    -11.262363    15A    -11.262288
      16A    -11.262287    17A    -11.262237    18A    -11.262201
      19A    -11.262156    20A    -11.262118    21A    -11.262116
      22A    -11.261961    23A    -11.261958    24A    -11.261838
      25A    -11.261823    26A    -11.261809    27A    -11.261805
      28A    -11.261758    29A    -11.261751    30A    -11.261678
      31A    -11.261652    32A    -11.261649    33A    -11.261623
      34A    -11.261621    35A    -11.261601    36A    -11.261553
      37A    -11.261413    38A    -11.261402    39A    -11.261396
      40A    -11.261388    41A    -11.261383    42A    -11.261375
      43A    -11.261371    44A    -11.261357    45A    -11.261352
      46A    -11.261329    47A    -11.261325    48A    -11.261321
      49A    -11.261169    50A    -11.261138    51A    -11.261135
      52A    -11.261055    53A    -11.261054    54A    -11.260983
      55A    -11.260013    56A    -11.260000    57A    -11.259998
      58A    -11.259969    59A    -11.259967    60A    -11.259951
      61A    -11.259391    62A    -11.259366    63A    -11.259363
      64A    -11.259312    65A    -11.259309    66A    -11.259280
      67A    -11.259017    68A    -11.259000    69A    -11.258998
      70A    -11.258971    71A    -11.258968    72A    -11.258957
      73A    -11.254588    74A    -11.254586    75A    -11.254585
      76A    -11.254582    77A    -11.254576    78A    -11.254573
      79A    -11.253738    80A    -11.253736    81A    -11.253733
      82A    -11.253732    83A    -11.253729    84A    -11.253724
      85A    -11.253653    86A    -11.253651    87A    -11.253648
      88A    -11.253647    89A    -11.253645    90A    -11.253639
      91A    -11.253115    92A    -11.253114    93A    -11.253113
      94A    -11.253110    95A    -11.253104    96A    -11.253101
      97A     -1.254133    98A     -1.239136    99A     -1.239136
     100A     -1.220580   101A     -1.220575   102A     -1.215607
     103A     -1.201141   104A     -1.195710   105A     -1.188297
     106A     -1.188295   107A     -1.173861   108A     -1.173858
     109A     -1.155770   110A     -1.155766   111A     -1.152876
     112A     -1.144815   113A     -1.144812   114A     -1.128692
     115A     -1.114850   116A     -1.113257   117A     -1.112636
     118A     -1.112623   119A     -1.111705   120A     -1.088554
     121A     -1.088539   122A     -1.077053   123A     -1.077052
     124A     -1.067748   125A     -1.067718   126A     -1.065119
     127A     -1.046913   128A     -1.046906   129A     -1.040602
     130A     -1.038826   131A     -1.038825   132A     -1.025386
     133A     -1.021558   134A     -1.021508   135A     -1.007285
     136A     -1.006928   137A     -1.003904   138A     -1.000629
     139A     -1.000580   140A     -0.991161   141A     -0.971117
     142A     -0.971069   143A     -0.955986   144A     -0.955930
     145A     -0.905756   146A     -0.905714   147A     -0.905633
     148A     -0.905593   149A     -0.904512   150A     -0.892526
     151A     -0.892466   152A     -0.890512   153A     -0.890455
     154A     -0.889586   155A     -0.872315   156A     -0.869130
     157A     -0.851644   158A     -0.848007   159A     -0.847985
     160A     -0.845743   161A     -0.843147   162A     -0.834678
     163A     -0.834665   164A     -0.828208   165A     -0.828204
     166A     -0.784668   167A     -0.784657   168A     -0.783796
     169A     -0.783769   170A     -0.782414   171A     -0.782393
     172A     -0.782177   173A     -0.767101   174A     -0.760948
     175A     -0.750725   176A     -0.733581   177A     -0.727184
     178A     -0.727170   179A     -0.725209   180A     -0.724651
     181A     -0.724632   182A     -0.718654   183A     -0.713916
     184A     -0.713910   185A     -0.699688   186A     -0.699676
     187A     -0.686286   188A     -0.686053   189A     -0.686050
     190A     -0.682276   191A     -0.682265   192A     -0.678912
     193A     -0.653741   194A     -0.650989   195A     -0.650959
     196A     -0.649963   197A     -0.649947   198A     -0.649661
     199A     -0.641082   200A     -0.641055   201A     -0.640186
     202A     -0.639250   203A     -0.636155   204A     -0.636128
     205A     -0.629255   206A     -0.617828   207A     -0.615395
     208A     -0.615375   209A     -0.608907   210A     -0.608900
     211A     -0.599181   212A     -0.599142   213A     -0.598865
     214A     -0.598737   215A     -0.598711   216A     -0.598192
     217A     -0.595162   218A     -0.595150   219A     -0.594834
     220A     -0.594394   221A     -0.592082   222A     -0.592078
     223A     -0.587551   224A     -0.577870   225A     -0.577860
     226A     -0.575728   227A     -0.575725   228A     -0.573482
     229A     -0.569558   230A     -0.568290   231A     -0.568266
     232A     -0.566871   233A     -0.566861   234A     -0.560990
     235A     -0.558848   236A     -0.558830   237A     -0.558506
     238A     -0.554481   239A     -0.550624   240A     -0.547549
     241A     -0.544334   242A     -0.535029   243A     -0.534993
     244A     -0.533646   245A     -0.533623   246A     -0.528172
     247A     -0.528157   248A     -0.527948   249A     -0.517311
     250A     -0.517276   251A     -0.515418   252A     -0.515413
     253A     -0.509735   254A     -0.509719   255A     -0.498129
     256A     -0.496561   257A     -0.496535   258A     -0.493836
     259A     -0.493826   260A     -0.489470   261A     -0.481543
     262A     -0.477481   263A     -0.477478   264A     -0.474095
     265A     -0.469562   266A     -0.466640   267A     -0.466636
     268A     -0.458869   269A     -0.446851   270A     -0.446790
     271A     -0.441093   272A     -0.440818   273A     -0.440793
     274A     -0.434749   275A     -0.433966   276A     -0.407441
     277A     -0.407417   278A     -0.386477   279A     -0.386429
     280A     -0.385790   281A     -0.385789   282A     -0.383821
     283A     -0.354392   284A     -0.354375   285A     -0.350729
     286A     -0.338158   287A     -0.335658   288A     -0.335590
     289A     -0.332772   290A     -0.332766   291A     -0.307154
     292A     -0.302017   293A     -0.301955   294A     -0.300905
     295A     -0.286234   296A     -0.256520   297A     -0.253569
     298A     -0.253516   299A     -0.204327   300A     -0.204238

  @DF-RHF Final Energy: -3650.33788539411307

   => Energetics <=

    Nuclear Repulsion Energy =          15611.4211649754324753
    One-Electron Energy =              -36072.0834073126752628
    Two-Electron Energy =               16810.3243569431288051
    Total Energy =                      -3650.3378853941139823
 Dipole X            :         -0.0010653            0.0002112           -0.0008541
 Dipole Y            :          0.0041551           -0.0044281           -0.0002730
 Dipole Z            :        674.2803218         -674.2805893           -0.0002675
 Magnitude           :                                                    0.0009357

    SAPT Results
  --------------------------------------------------------------------------------------------------------
    Electrostatics                 -7.00617597 [mEh]      -4.39644180 [kcal/mol]     -18.39471249 [kJ/mol]
      Elst10,r                     -7.00617597 [mEh]      -4.39644180 [kcal/mol]     -18.39471249 [kJ/mol]

    Exchange                       -0.00012951 [mEh]      -0.00008127 [kcal/mol]      -0.00034004 [kJ/mol]
      Exch10                       -0.00012951 [mEh]      -0.00008127 [kcal/mol]      -0.00034004 [kJ/mol]
      Exch10(S^2)                  -0.00012951 [mEh]      -0.00008127 [kcal/mol]      -0.00034004 [kJ/mol]

    Induction                      -1.96249311 [mEh]      -1.23148302 [kcal/mol]      -5.15252495 [kJ/mol]
      Ind20,r                      -1.94422249 [mEh]      -1.22001803 [kcal/mol]      -5.10455544 [kJ/mol]
      Exch-Ind20,r                  0.00010409 [mEh]       0.00006532 [kcal/mol]       0.00027328 [kJ/mol]
      delta HF,r (2)               -0.01837471 [mEh]      -0.01153030 [kcal/mol]      -0.04824279 [kJ/mol]

    Dispersion                     -0.90096292 [mEh]      -0.56536277 [kcal/mol]      -2.36547782 [kJ/mol]
      Disp20                       -0.90099570 [mEh]      -0.56538334 [kcal/mol]      -2.36556388 [kJ/mol]
      Exch-Disp20                   0.00003278 [mEh]       0.00002057 [kcal/mol]       0.00008606 [kJ/mol]
      Disp20 (SS)                  -0.45049785 [mEh]      -0.28269167 [kcal/mol]      -1.18278194 [kJ/mol]
      Disp20 (OS)                  -0.45049785 [mEh]      -0.28269167 [kcal/mol]      -1.18278194 [kJ/mol]
      Exch-Disp20 (SS)              0.00002503 [mEh]       0.00001571 [kcal/mol]       0.00006571 [kJ/mol]
      Exch-Disp20 (OS)              0.00000775 [mEh]       0.00000486 [kcal/mol]       0.00002034 [kJ/mol]

  Total HF                         -8.96879860 [mEh]      -5.62800609 [kcal/mol]     -23.54757747 [kJ/mol]
  Total SAPT0                      -9.86976152 [mEh]      -6.19336886 [kcal/mol]     -25.91305529 [kJ/mol]

  Special recipe for scaled SAPT0 (see Manual):
    Electrostatics sSAPT0          -7.00617597 [mEh]      -4.39644180 [kcal/mol]     -18.39471249 [kJ/mol]
    Exchange sSAPT0                -0.00012951 [mEh]      -0.00008127 [kcal/mol]      -0.00034004 [kJ/mol]
    Induction sSAPT0               -1.96249311 [mEh]      -1.23148302 [kcal/mol]      -5.15252495 [kJ/mol]
    Dispersion sSAPT0              -0.90096292 [mEh]      -0.56536277 [kcal/mol]      -2.36547782 [kJ/mol]
  Total sSAPT0                     -9.86976152 [mEh]      -6.19336886 [kcal/mol]     -25.91305529 [kJ/mol]
  --------------------------------------------------------------------------------------------------------

*** Psi4 exiting successfully. Buy a developer a beer!
