                               Psi4 1.9 release

  ==> Input File <==

--------------------------------------------------------------------------
memory 48 GB # how much memory is available ! Depends on the nodes/cores !

molecule dimer {
# monomer A
+1 1    # Charge and multiplicity
C  0.680067 -0.008042 -4.915929
C -0.680504 -0.006014 -4.915545
N -1.085635 -0.005016 -3.597221
C  0.000108 -0.001740 -2.815820
C -2.477365  0.044390 -3.129242
N  1.085222 -0.005016 -3.597221
H  1.385146 -0.015870 -5.733368
H -1.385302 -0.006204 -5.733214
H -0.000009  0.000007 -1.734731
C  2.478117 -0.021908 -3.132123
H  2.490592  0.005437 -2.041870
H  2.967028 -0.935354 -3.479299
H  3.001428  0.853575 -3.523595
H -2.857359  1.066461 -3.209201
H -3.082679 -0.625694 -3.742306
H -2.518128 -0.282594 -2.089294
--
# monomer B
0 1     # Charge and multiplicity
C   1.22531237526482      0.70753866091955      0.00613762728373
C   1.22532433589282     -0.70753852257020     -0.00619318228664
C   -0.00000567409046      1.41496628609039     -0.00672680580738
C   2.45644923379077      1.41832825917820      0.00902448468363
C   0.00001130712078     -1.41497612663474      0.00347275151708
C   -1.22530046906674      0.70754574598412      0.00838914760619
C   2.45643823516184     -1.41832293188077     -0.00843833914343
C   -0.00000085313587      2.83680140328112     -0.00913035594137
C   3.68182717731192      0.70931832800114     -0.00808954934571
C   2.45512052870677      2.83422403348893     -0.00819210630633
C   3.68182158506039     -0.70933346742900      0.00798293467272
C   -1.22531311884624     -0.70752714354401     -0.00512042085974
C   1.22670006104402      3.54346985599427      0.00816696660346
C   0.00000526469929     -2.83678176723568      0.00832091913869
C   -2.45643555300670      1.41831729028492      0.00842454345199
C   2.45512389762097     -2.83422965658853      0.00783102630520
C   -1.22671388474763      3.54346943575023      0.00827029982280
C   4.91451777504333      1.42717324448953     -0.00160886631602
C   3.69315067131765      3.54279566454522     -0.00155906667985
C   -2.45643712022637     -1.41831290883911     -0.00846337726810
C   1.22670532178455     -3.54347386990643     -0.00780316414624
C   -2.45512491866593      2.83421703463423     -0.00818572995999
C   4.91452486062398     -1.42718653794377      0.00136387641845
C   1.22142509354026      4.97013443726031      0.00150231067809
C   4.89300870916237      2.82518837202648     -0.00039219795739
C   -1.22669652864725     -3.54347062507680     -0.00753595973677
C   -3.68181849668397      0.70932533873199     -0.00807686886569
C   3.69314758099218     -3.54280096939050      0.00148176697923
C   -1.22143177215231      4.97012866986289      0.00168580605083
C   6.13477145276790      0.68054831910577     -0.00083909176631
C   3.65678936045204      4.97295361556775     -0.00065042889723
C   -2.45512642789169     -2.83421472106065      0.00758666850712
C   -3.68181869921921     -0.70932533146830      0.00810055625144
C   4.89301309775526     -2.82519973363176      0.00021895393805
C   -0.00000059327114      5.65044773803267      0.00045449734393
C   6.13477559217374     -0.68055448207492      0.00042622874941
C   2.47813196269732      5.65357712333155      0.00063835075260
C   1.22142288457925     -4.97012668293268     -0.00129718634452
C   -3.69316190412301      3.54279732619245     -0.00139355922051
C   -1.22142804110313     -4.97011793159564     -0.00140994817719
C   -4.91452132810043      1.42717581899491     -0.00153192130862
C   3.65678749952045     -4.97295485423912      0.00080007163680
C   -2.47813805026426      5.65357479452875      0.00092287576113
C   -3.69314125872231     -3.54278984697859      0.00136564082345
C   -4.91451200321153     -1.42718062802730      0.00139857359209
C   -0.00000552908399     -5.65043791501335      0.00005899322272
C   -4.89302000425900      2.82518897091939     -0.00040227981744
C   2.47812647313991     -5.65357317188818     -0.00029052915548
C   -3.65679823041642      4.97295655404175     -0.00047374852278
C   -4.89299899901461     -2.82519139505969      0.00006491824035
C   -2.47812801824129     -5.65356579800621     -0.00056571680280
C   -6.13477002348955      0.68054913825639     -0.00086464346868
C   -3.65678835334731     -4.97294365097028      0.00058578382008
C   -6.13476456307132     -0.68055354348201      0.00040575295444
H   5.83528897565761      3.36927626695423      0.00396712770529
H   7.07385965258860      1.22821762089947     -0.00037744837300
H   4.60066374401555      5.51238117445323     -0.00014522814529
H   5.83528386714679     -3.36930568472863     -0.00423551337640
H   -0.00001167146422      6.73853104613662     -0.00389474766392
H   7.07386165167227     -1.22822657074368     -0.00008250934481
H   2.47331421164041      6.74068466339473      0.00017162982210
H   4.60066897122302     -5.51237575717576      0.00039007446835
H   -2.47331820069565      6.74068209160650      0.00047297644710
H   -0.00000978838621     -6.73852780445195      0.00458867820736
H   -5.83530143450167      3.36927132229595      0.00410314985360
H   2.47330840367253     -6.74068500242887      0.00027980126949
H   -4.60067436136587      5.51237839860371      0.00002010017831
H   -5.83527902699321     -3.36928859177951     -0.00451481925734
H   -2.47329986759855     -6.74067870613986     -0.00016951527498
H   -7.07385728692578      1.22822084484047     -0.00046143985387
H   -4.60067330624313     -5.51236229778631      0.00021776644566
H   -7.07385645456741     -1.22822025997701     -0.00017736581114

    units angstrom      # Angstroms are the default
    no_reorient         # Geometry fixed, default
    symmetry c1         # C1 symmetry, default
}

set {
    scf_type DF         # Density fitting, faster than exact integrals
    freeze_core True    # Freeze core electrons
    basis jun-cc-pVDZ   # Jun-cc-pVDZ basis set, recommended for sSAPT0 in https://doi.org/10.1063/1.4867135
}

energy('ssapt0')        # Compute sSAPT0 energy, includes also SAPT0
--------------------------------------------------------------------------

  //              Dimer HF             //
    Molecular point group: c1
  Charge       = 1
  Multiplicity = 1
  Basis Set: JUN-CC-PVDZ
    Blend: JUN-CC-PVDZ
  Basis Set: (JUN-CC-PVDZ AUX)
    Blend: JUN-CC-PVDZ-JKFIT
  @DF-RHF Final Energy: -2359.18349864996617
    Total Energy =                      -2359.1834986499652587
 Dipole X            :         -0.0033656            0.0006313           -0.0027343
 Dipole Y            :         -0.0587070            0.0560211           -0.0026859
 Dipole Z            :         13.6667786          -17.4001324           -3.7333538
 Magnitude           :                                                    3.7333558
  //            Monomer A HF           //
    Molecular point group: c1
  Multiplicity = 1
  Basis Set: JUN-CC-PVDZ
    Blend: JUN-CC-PVDZ
  Basis Set: (JUN-CC-PVDZ AUX)
    Blend: JUN-CC-PVDZ-JKFIT
  @DF-RHF Final Energy:  -303.29870292581234
    Total Energy =                       -303.2987029258123357
  //            Monomer B HF           //
    Molecular point group: c1

    Geometry (in Angstrom), charge = 0, multiplicity = 1:

       Center              X                  Y                   Z               Mass
    ------------   -----------------  -----------------  -----------------  -----------------
      Gh(C)           0.680066520158    -0.008042372515    -4.445313972050    12.000000000000
      Gh(C)          -0.680504479842    -0.006014372515    -4.444929972050    12.000000000000
      Gh(N)          -1.085635479842    -0.005016372515    -3.126605972050    14.003074004430
      Gh(C)           0.000107520158    -0.001740372515    -2.345204972050    12.000000000000
      Gh(C)          -2.477365479842     0.044389627485    -2.658626972050    12.000000000000
      Gh(N)           1.085221520158    -0.005016372515    -3.126605972050    14.003074004430
      Gh(H)           1.385145520158    -0.015870372515    -5.262752972050     1.007825032230
      Gh(H)          -1.385302479842    -0.006204372515    -5.262598972050     1.007825032230
      Gh(H)          -0.000009479842     0.000006627485    -1.264115972050     1.007825032230
      Gh(C)           2.478116520158    -0.021908372515    -2.661507972050    12.000000000000
      Gh(H)           2.490591520158     0.005436627485    -1.571254972050     1.007825032230
      Gh(H)           2.967027520158    -0.935354372515    -3.008683972050     1.007825032230
      Gh(H)           3.001427520158     0.853574627485    -3.052979972050     1.007825032230
      Gh(H)          -2.857359479842     1.066460627485    -2.738585972050     1.007825032230
      Gh(H)          -3.082679479842    -0.625694372515    -3.271690972050     1.007825032230
      Gh(H)          -2.518128479842    -0.282594372515    -1.618678972050     1.007825032230
         C            1.225311895423     0.707538288405     0.476752655233    12.000000000000
         C            1.225323856051    -0.707538895085     0.464421845663    12.000000000000
         C           -0.000006153932     1.414965913575     0.463888222142    12.000000000000
         C            2.456448753949     1.418327886663     0.479639512633    12.000000000000
         C            0.000010827279    -1.414976499150     0.474087779467    12.000000000000
         C           -1.225300948908     0.707545373469     0.479004175556    12.000000000000
         C            2.456437755320    -1.418323304396     0.462176688806    12.000000000000
         C           -0.000001332978     2.836801030766     0.461484672008    12.000000000000
         C            3.681826697470     0.709317955486     0.462525478604    12.000000000000
         C            2.455120048865     2.834223660974     0.462422921643    12.000000000000
         C            3.681821105219    -0.709333839944     0.478597962622    12.000000000000
         C           -1.225313598688    -0.707527516059     0.465494607090    12.000000000000
         C            1.226699581202     3.543469483479     0.478781994553    12.000000000000
         C            0.000004784858    -2.836782139751     0.478935947088    12.000000000000
         C           -2.456436032848     1.418316917770     0.479039571402    12.000000000000
         C            2.455123417779    -2.834230029103     0.478446054255    12.000000000000
         C           -1.226714364589     3.543469063235     0.478885327773    12.000000000000
         C            4.914517295202     1.427172871975     0.469006161634    12.000000000000
         C            3.693150191476     3.542795292030     0.469055961270    12.000000000000
         C           -2.456437600068    -1.418313281354     0.462151650682    12.000000000000
         C            1.226704841943    -3.543474242421     0.462811863803    12.000000000000
         C           -2.455125398508     2.834216662119     0.462429297990    12.000000000000
         C            4.914524380782    -1.427186910459     0.471978904368    12.000000000000
         C            1.221424613699     4.970134064745     0.472117338628    12.000000000000
         C            4.893008229321     2.825187999512     0.470222829992    12.000000000000
         C           -1.226697008489    -3.543470997592     0.463079068213    12.000000000000
         C           -3.681818976526     0.709324966217     0.462538159084    12.000000000000
         C            3.693147101150    -3.542801341905     0.472096794929    12.000000000000
         C           -1.221432251994     4.970128297348     0.472300834001    12.000000000000
         C            6.134770972926     0.680547946591     0.469775936183    12.000000000000
         C            3.656788880610     4.972953243053     0.469964599052    12.000000000000
         C           -2.455126907733    -2.834215093576     0.478201696457    12.000000000000
         C           -3.681819179061    -0.709325703983     0.478715584201    12.000000000000
         C            4.893012617914    -2.825200106147     0.470833981888    12.000000000000
         C           -0.000001073113     5.650447365518     0.471069525294    12.000000000000
         C            6.134775112332    -0.680554854590     0.471041256699    12.000000000000
         C            2.478131482856     5.653576750817     0.471253378702    12.000000000000
         C            1.221422404738    -4.970127055448     0.469317841605    12.000000000000
         C           -3.693162383965     3.542796953677     0.469221468729    12.000000000000
         C           -1.221428520945    -4.970118304111     0.469205079773    12.000000000000
         C           -4.914521807942     1.427175446480     0.469083106641    12.000000000000
         C            3.656787019679    -4.972955226754     0.471415099587    12.000000000000
         C           -2.478138530106     5.653574422014     0.471537903711    12.000000000000
         C           -3.693141738564    -3.542790219494     0.471980668773    12.000000000000
         C           -4.914512483053    -1.427181000542     0.472013601542    12.000000000000
         C           -0.000006008926    -5.650438287528     0.470674021172    12.000000000000
         C           -4.893020484101     2.825188598404     0.470212748132    12.000000000000
         C            2.478125993298    -5.653573544403     0.470324498794    12.000000000000
         C           -3.656798710258     4.972956181527     0.470141279427    12.000000000000
         C           -4.892999478856    -2.825191767575     0.470679946190    12.000000000000
         C           -2.478128498083    -5.653566170521     0.470049311147    12.000000000000
         C           -6.134770503331     0.680548765741     0.469750384481    12.000000000000
         C           -3.656788833189    -4.972944023485     0.471200811770    12.000000000000
         C           -6.134765042913    -0.680553915997     0.471020780904    12.000000000000
         H            5.835288495816     3.369275894439     0.474582155655     1.007825032230
         H            7.073859172747     1.228217248385     0.470237579577     1.007825032230
         H            4.600663264174     5.512380801938     0.470469799804     1.007825032230
         H            5.835283387305    -3.369306057244     0.466379514573     1.007825032230
         H           -0.000012151306     6.738530673622     0.466720280286     1.007825032230
         H            7.073861171831    -1.228226943259     0.470532518605     1.007825032230
         H            2.473313731799     6.740684290880     0.470786657772     1.007825032230
         H            4.600668491381    -5.512376129691     0.471005102418     1.007825032230
         H           -2.473318680537     6.740681719092     0.471088004397     1.007825032230
         H           -0.000010268228    -6.738528176967     0.475203706157     1.007825032230
         H           -5.835301914343     3.369270949781     0.474718177803     1.007825032230
         H            2.473307923831    -6.740685374944     0.470894829219     1.007825032230
         H           -4.600674841208     5.512378026089     0.470635128128     1.007825032230
         H           -5.835279506835    -3.369288964294     0.466100208692     1.007825032230
         H           -2.473300347440    -6.740679078655     0.470445512675     1.007825032230
         H           -7.073857766768     1.228220472326     0.470153588096     1.007825032230
         H           -4.600673786085    -5.512362670301     0.470832794395     1.007825032230
         H           -7.073856934409    -1.228220632492     0.470437662139     1.007825032230

  Charge       = 0
  Multiplicity = 1
  Basis Set: JUN-CC-PVDZ
    Blend: JUN-CC-PVDZ
  Basis Set: (JUN-CC-PVDZ AUX)
    Blend: JUN-CC-PVDZ-JKFIT

    Orbital Energies [Eh]
    ---------------------

    Doubly Occupied:

       1A    -11.260603     2A    -11.260194     3A    -11.260103
       4A    -11.259439     5A    -11.259353     6A    -11.259207
       7A    -11.258972     8A    -11.258931     9A    -11.258853
      10A    -11.258571    11A    -11.258545    12A    -11.258437
      13A    -11.258379    14A    -11.258377    15A    -11.258372
      16A    -11.258345    17A    -11.258324    18A    -11.258312
      19A    -11.258307    20A    -11.258295    21A    -11.258291
      22A    -11.258256    23A    -11.258220    24A    -11.258010
      25A    -11.257260    26A    -11.257231    27A    -11.257152
      28A    -11.257080    29A    -11.257016    30A    -11.256960
      31A    -11.256369    32A    -11.256335    33A    -11.256235
      34A    -11.256186    35A    -11.256128    36A    -11.256097
      37A    -11.252196    38A    -11.252189    39A    -11.252183
      40A    -11.252172    41A    -11.252138    42A    -11.252136
      43A    -11.251285    44A    -11.251272    45A    -11.251267
      46A    -11.251251    47A    -11.251244    48A    -11.251233
      49A    -11.250757    50A    -11.250749    51A    -11.250744
      52A    -11.250732    53A    -11.250699    54A    -11.250697
      55A     -1.243843    56A     -1.219628    57A     -1.219586
      58A     -1.189358    59A     -1.189333    60A     -1.180739
      61A     -1.157381    62A     -1.148792    63A     -1.135303
      64A     -1.135260    65A     -1.113018    66A     -1.113010
      67A     -1.082233    68A     -1.082215    69A     -1.078400
      70A     -1.065815    71A     -1.065802    72A     -1.039209
      73A     -1.024054    74A     -1.021560    75A     -1.021486
      76A     -1.017551    77A     -1.012638    78A     -0.986830
      79A     -0.986752    80A     -0.961709    81A     -0.961646
      82A     -0.894096    83A     -0.894086    84A     -0.887706
      85A     -0.885942    86A     -0.885916    87A     -0.881175
      88A     -0.881133    89A     -0.861717    90A     -0.837253
      91A     -0.818009    92A     -0.816391    93A     -0.811923
      94A     -0.811916    95A     -0.794513    96A     -0.794499
      97A     -0.746397    98A     -0.744647    99A     -0.733210
     100A     -0.733179   101A     -0.731993   102A     -0.731980
     103A     -0.716298   104A     -0.698804   105A     -0.698748
     106A     -0.693408   107A     -0.693335   108A     -0.661051
     109A     -0.652899   110A     -0.650930   111A     -0.650084
     112A     -0.650066   113A     -0.639189   114A     -0.639148
     115A     -0.629508   116A     -0.627307   117A     -0.627303
     118A     -0.606409   119A     -0.605670   120A     -0.601438
     121A     -0.599572   122A     -0.599471   123A     -0.593420
     124A     -0.591003   125A     -0.590945   126A     -0.585125
     127A     -0.576431   128A     -0.576304   129A     -0.567163
     130A     -0.567129   131A     -0.565743   132A     -0.565738
     133A     -0.558503   134A     -0.554678   135A     -0.554645
     136A     -0.538417   137A     -0.538409   138A     -0.538167
     139A     -0.538122   140A     -0.529523   141A     -0.528106
     142A     -0.522702   143A     -0.522642   144A     -0.500324
     145A     -0.495550   146A     -0.493047   147A     -0.487752
     148A     -0.484854   149A     -0.481552   150A     -0.481540
     151A     -0.470269   152A     -0.470226   153A     -0.450770
     154A     -0.450716   155A     -0.438972   156A     -0.438966
     157A     -0.404634   158A     -0.404613   159A     -0.403263
     160A     -0.375320   161A     -0.375311   162A     -0.349018
     163A     -0.337482   164A     -0.336416   165A     -0.336398
     166A     -0.310963   167A     -0.298025   168A     -0.284212
     169A     -0.284152   170A     -0.224770   171A     -0.224716

  @DF-RHF Final Energy: -2055.89587639880483

   => Energetics <=

    Nuclear Repulsion Energy =           6452.5568002797781446
    One-Electron Energy =              -15636.5375036197874579
    Two-Electron Energy =                7128.0848269412053924
    Total Energy =                      -2055.8958763988048304
 Dipole X            :         -0.0003034           -0.0000085           -0.0003119
 Dipole Y            :          0.0007607            0.0000167            0.0007774
 Dipole Z            :       -304.1508846          304.1506186           -0.0002660
 Magnitude           :                                                    0.0008789

    SAPT Results
  --------------------------------------------------------------------------------------------------------
    Electrostatics                -32.59214800 [mEh]     -20.45188164 [kcal/mol]     -85.57067280 [kJ/mol]
      Elst10,r                    -32.59214800 [mEh]     -20.45188164 [kcal/mol]     -85.57067280 [kJ/mol]

    Exchange                       74.20132803 [mEh]      46.56203631 [kcal/mol]     194.81555991 [kJ/mol]
      Exch10                       74.20132803 [mEh]      46.56203631 [kcal/mol]     194.81555991 [kJ/mol]
      Exch10(S^2)                  72.79034840 [mEh]      45.67663322 [kcal/mol]     191.11103339 [kJ/mol]

    Induction                     -30.52850538 [mEh]     -19.15692634 [kcal/mol]     -80.15257983 [kJ/mol]
      Ind20,r                     -41.79445679 [mEh]     -26.22641759 [kcal/mol]    -109.73133119 [kJ/mol]
      Exch-Ind20,r                 20.69507336 [mEh]      12.98635459 [kcal/mol]      54.33490762 [kJ/mol]
      delta HF,r (2)               -9.42912195 [mEh]      -5.91686335 [kcal/mol]     -24.75615626 [kJ/mol]

    Dispersion                    -45.81486926 [mEh]     -28.74926450 [kcal/mol]    -120.28692267 [kJ/mol]
      Disp20                      -51.45131031 [mEh]     -32.28618466 [kcal/mol]    -135.08539660 [kJ/mol]
      Exch-Disp20                   5.63644105 [mEh]       3.53692016 [kcal/mol]      14.79847394 [kJ/mol]
      Disp20 (SS)                 -25.72565515 [mEh]     -16.14309233 [kcal/mol]     -67.54269830 [kJ/mol]
      Disp20 (OS)                 -25.72565515 [mEh]     -16.14309233 [kcal/mol]     -67.54269830 [kJ/mol]
      Exch-Disp20 (SS)              3.31737765 [mEh]       2.08168590 [kcal/mol]       8.70977382 [kJ/mol]
      Exch-Disp20 (OS)              2.31906340 [mEh]       1.45523425 [kcal/mol]       6.08870012 [kJ/mol]

  Total HF                         11.08067465 [mEh]       6.95322832 [kcal/mol]      29.09230729 [kJ/mol]
  Total SAPT0                     -34.73419461 [mEh]     -21.79603618 [kcal/mol]     -91.19461538 [kJ/mol]

  Special recipe for scaled SAPT0 (see Manual):
    Electrostatics sSAPT0         -32.59214800 [mEh]     -20.45188164 [kcal/mol]     -85.57067280 [kJ/mol]
    Exchange sSAPT0                74.20132803 [mEh]      46.56203631 [kcal/mol]     194.81555991 [kJ/mol]
    Induction sSAPT0              -29.30155666 [mEh]     -18.38700440 [kcal/mol]     -76.93122642 [kJ/mol]
    Dispersion sSAPT0             -45.48070161 [mEh]     -28.53957113 [kcal/mol]    -119.40956561 [kJ/mol]
  Total sSAPT0                    -33.17307824 [mEh]     -20.81642087 [kcal/mol]     -87.09590492 [kJ/mol]
  --------------------------------------------------------------------------------------------------------

*** Psi4 exiting successfully. Buy a developer a beer!
