                               Psi4 1.9 release

  ==> Input File <==

--------------------------------------------------------------------------
memory 80 GB # how much memory is available ! Depends on the nodes/cores !

molecule dimer {
# monomer A
+1 1    # Charge and multiplicity
C  0.680067 -1.215929 2.108042
C -0.680504 -1.215545 2.106014
N -1.085635  0.102779 2.105016
C  0.000108  0.884180 2.101740
C -2.477365  0.570758 2.055610
N  1.085222  0.102779 2.105016
H  1.385146 -2.033368 2.115870
H -1.385302 -2.033214 2.106204
H -0.000009  1.965269 2.099993
C  2.478117  0.567877 2.121908
H  2.490592  1.658130 2.094563
H  2.967028  0.220701 3.035354
H  3.001428  0.176405 1.246425
H -2.857359  0.490799 1.033539
H -3.082679 -0.042306 2.725694
H -2.518128  1.610706 2.382594
--
# monomer B
0 1     # Charge and multiplicity
C   -3.66844126402057      7.80375217008252      0.00190004133558
C   -4.84759871934653      7.13124183134024     -0.00046653359696
C   -4.89495929917518      5.69633040353158     -0.00103944469517
C   -3.65374067877320      4.98073034095895      0.00662099703436
C   -2.40942512149445      7.11398103667468      0.00209438359570
C   -2.42547734410473      5.68112195090346     -0.00491050527438
C   -1.19474401643570      7.78614419430947      0.00356656413763
C   0.03795902893699      7.09942164575698      0.00139585983271
C   0.03033258741920      5.66948955970466     -0.00408752508301
C   -1.20098450790502      4.96927034791531      0.00488220885047
C   1.27795782581485      7.77285944319479      0.00277170839332
C   2.48535808472416      7.08769688523756      0.00049722048857
C   2.48612868491717      5.65477081024076     -0.00644052849921
C   1.25408291964399      4.95607811366431      0.00518741308898
C   3.75171459140595      7.76391215098033      0.00062407186893
C   4.92356605618520      7.07878077698995     -0.00143240883900
C   4.95560727132542      5.64344746336949     -0.00159282164606
C   3.70680153420475      4.94121020833308      0.00349873852374
H   -3.65852113775815      8.89082741913536      0.00358502958574
H   -1.18921332975660      8.87412108735996      0.00753844057883
H   1.28429423888630      8.86083343548850      0.00693053253426
H   3.75354208679975      8.85103527897216      0.00214659618464
H   5.86995870320703      7.61379483465560     -0.00235777588134
H   -5.78823170750226      7.67630221293400     -0.00202638095293
C   -6.09197395869619      4.99326001364347     -0.00291168518608
C   -6.12866148031747      3.58258016879823     -0.00171050815740
C   -3.66457974004527      3.56418217974434     -0.00463560277484
C   -4.89429820469869      2.86108077590057      0.00453338221034
C   -2.43733499489796      2.84761165708481      0.00719617576166
C   -1.20922785759670      3.54788693497833     -0.00648285103018
C   1.24714157216223      3.53468075142962     -0.00729145743546
C   0.01517603956900      2.83311183930540      0.00439272578912
C   2.46764517244071      2.82128997725533      0.00449278391269
C   3.70254947457969      3.52466015442405     -0.00899517692985
C   6.14498038638375      4.92757236613191     -0.00282626685777
C   6.16658835886151      3.51658447594213     -0.00065971342101
C   4.92460995845939      2.80840792535402      0.00587903281610
H   7.08990550964105      5.46688776622306     -0.00658814770723
H   -7.03104175110130      5.54268795285765     -0.00714490013730
C   -7.33969804112295      2.85841153457957     -0.00333767559888
C   -7.36488195805880      1.47032337158330     -0.00157213747140
C   -4.90350460894690      1.44442681216000     -0.00628840166334
C   -6.13225715261081      0.73993935705394      0.00600164231964
C   -3.67687480051673      0.72669714267312      0.00433931473643
C   -2.44565658606518      1.42964113326212     -0.00597039546461
C   -1.22360068130162      0.71532450163492      0.00545886906656
C   0.00763786931376      1.41738314923765      0.00392452278437
C   1.23121980774686      0.70211669058719     -0.01490206287210
C   2.46082110053113      1.40329203612573      0.00460244601878
C   3.68443025419614      0.68719842821222      0.00377365974158
C   4.91870890153864      1.39173456118907     -0.00862816189375
C   7.36980207796101      2.77948220318441     -0.00242013321349
C   7.38016266612146      1.39121750785509     -0.00087345036788
C   6.13979953912259      0.67411862320065      0.00545489144369
H   -8.27919079934664      3.40711804112415     -0.00763522772059
H   8.31511347147953      3.31811809662368     -0.00663070901292
C   -8.59175593758115      0.72483255304480     -0.00123170985383
C   -8.59902460370342     -0.63263980622873      0.00089141472904
C   -6.13981313911873     -0.67413663715361     -0.00609792660607
C   -7.38018411213749     -1.39126618958160      0.00131813493501
C   -4.91868448025621     -1.39175501803000      0.00624257154343
C   -3.68443829568458     -0.68723731573599     -0.00478966852105
C   -2.46081704024768     -1.40334517882457      0.00575341766833
C   -1.23116201232071     -0.70217386488055     -0.00636696112346
C   -0.00756962538737     -1.41741884941102      0.00108956317991
C   1.22364771588843     -0.71527537726392      0.01109518512883
C   2.44567064933149     -1.42964328900682     -0.00065482763106
C   3.67686670284649     -0.72670743155550     -0.00479541202602
C   6.13224884641929     -0.73997883984993     -0.00632338623858
C   4.90351914550401     -1.44445752054090      0.00751768830159
C   8.59901484869081      0.63260386666793     -0.00101133422380
C   8.59174548810050     -0.72485086719319      0.00072504603735
C   7.36486276438985     -1.47033266560598      0.00049486934466
H   -9.52830597181814      1.27684744919284     -0.00270163681798
H   9.54141097460619      1.17457248844457     -0.00206336648518
C   -7.36983790976868     -2.77954514593389      0.00312634335708
C   -4.92459910905015     -2.80843725734101     -0.00460528907921
C   -6.16662249566744     -3.51665219282533      0.00169655107992
C   -3.70251035970491     -3.52468154912026      0.00571878010666
C   -2.46764698511392     -2.82132596280400     -0.00632585824990
C   -0.01513347410770     -2.83314164539971     -0.00604426974092
C   -1.24712184122656     -3.53473217556300      0.00551968366725
C   1.20924506964357     -3.54791467864352      0.00805871345849
C   2.43733602215464     -2.84764173817541     -0.00608104485234
C   4.89430234377080     -2.86112296828604     -0.00526030478103
C   3.66461525504104     -3.56421984553201      0.00761911515957
C   6.12863901474565     -3.58258405771778      0.00096495711699
C   7.33967266469532     -2.85841330737039      0.00248018319869
H   -9.54144911125902     -1.17456346666430      0.00226083090216
H   9.52826186807155     -1.27691907390448      0.00197485379837
H   -8.31516504384864     -3.31814985321231      0.00729857188773
H   8.27915514249207     -3.40714078989363      0.00681973918158
C   -6.14499418870218     -4.92764727278338      0.00302254913999
C   -3.70678334799751     -4.94126171411716     -0.00679841894792
C   -4.95559005800169     -5.64349397349412      0.00116871569699
C   -2.48612132622665     -5.65478557440947      0.00614125209662
C   -1.25405833548005     -4.95612205000132     -0.00503435388927
C   1.20101257386816     -4.96928038819302     -0.00385322963129
C   -0.03033667441341     -5.66952030313900      0.00398997003238
C   3.65375010132847     -4.98074377541453     -0.00309522988330
C   2.42549269587528     -5.68117463552727      0.00628170066869
C   6.09196561781097     -4.99325796338655      0.00325918379042
C   4.89497644461045     -5.69634842095790      0.00202298796027
H   -7.08989238804069     -5.46699984223871      0.00742531082125
H   7.03105520920009     -5.54265853633254      0.00683896355417
C   -4.92354532219813     -7.07882109967734      0.00061394679214
C   -2.48534208823777     -7.08772807792913     -0.00189594564379
C   -3.75168589177895     -7.76394715763627     -0.00170126671874
C   -0.03794895698805     -7.09946487446944     -0.00168022049625
C   -1.27795610040136     -7.77290438466689     -0.00366491325785
C   2.40944432072629     -7.11402201200282     -0.00081701968533
C   1.19474993715296     -7.78618536556242     -0.00296931056689
C   4.84762105249800     -7.13126211057943      0.00168979497423
C   3.66847160587561     -7.80378799294376     -0.00065863938960
H   -5.86994035041618     -7.61383059804164      0.00215798365757
H   5.78824962538815     -7.67633218931421      0.00281691445618
H   -3.75352693944918     -8.85107156923607     -0.00353718114765
H   -1.28430440589466     -8.86087539249706     -0.00809229711623
H   1.18922157469537     -8.87416062058945     -0.00706194725726
H   3.65854661482387     -8.89086063405326     -0.00231318081200

    units angstrom      # Angstroms are the default
    no_reorient         # Geometry fixed, default
    symmetry c1         # C1 symmetry, default
}

set {
    scf_type DF         # Density fitting, faster than exact integrals
    freeze_core True    # Freeze core electrons
    basis jun-cc-pVDZ   # Jun-cc-pVDZ basis set, recommended for sSAPT0 in https://doi.org/10.1063/1.4867135
}

energy('ssapt0')        # Compute sSAPT0 energy, includes also SAPT0
--------------------------------------------------------------------------

  //              Dimer HF             //
    Molecular point group: c1
  Charge       = 1
  Multiplicity = 1
  Basis Set: JUN-CC-PVDZ
    Blend: JUN-CC-PVDZ
  Basis Set: (JUN-CC-PVDZ AUX)
    Blend: JUN-CC-PVDZ-JKFIT
  @DF-RHF Final Energy: -3953.03459222031779
    Total Energy =                      -3953.0345922203196096
 Dipole X            :         -0.0553025            0.0004804           -0.0548220
 Dipole Y            :         -1.6734906            1.8866171            0.2131265
 Dipole Z            :        -10.9726260           12.6972114            1.7245853
 Magnitude           :                                                    1.7385692
  //            Monomer A HF           //
    Molecular point group: c1
  Multiplicity = 1
  Basis Set: JUN-CC-PVDZ
    Blend: JUN-CC-PVDZ
  Basis Set: (JUN-CC-PVDZ AUX)
    Blend: JUN-CC-PVDZ-JKFIT
  @DF-RHF Final Energy:  -303.30228857086360
    Total Energy =                       -303.3022885708635954
  //            Monomer B HF           //
    Molecular point group: c1

    Geometry (in Angstrom), charge = 0, multiplicity = 1:

       Center              X                  Y                   Z               Mass
    ------------   -----------------  -----------------  -----------------  -----------------
      Gh(C)           0.680062820275    -1.215917226251     1.947930110218    12.000000000000
      Gh(C)          -0.680508179725    -1.215533226251     1.945902110218    12.000000000000
      Gh(N)          -1.085639179725     0.102790773749     1.944904110218    14.003074004430
      Gh(C)           0.000103820275     0.884191773749     1.941628110218    12.000000000000
      Gh(C)          -2.477369179725     0.570769773749     1.895498110218    12.000000000000
      Gh(N)           1.085217820275     0.102790773749     1.944904110218    14.003074004430
      Gh(H)           1.385141820275    -2.033356226251     1.955758110218     1.007825032230
      Gh(H)          -1.385306179725    -2.033202226251     1.946092110218     1.007825032230
      Gh(H)          -0.000013179725     1.965280773749     1.939881110218     1.007825032230
      Gh(C)           2.478112820275     0.567888773749     1.961796110218    12.000000000000
      Gh(H)           2.490587820275     1.658141773750     1.934451110218     1.007825032230
      Gh(H)           2.967023820275     0.220712773749     2.875242110218     1.007825032230
      Gh(H)           3.001423820275     0.176416773749     1.086313110218     1.007825032230
      Gh(H)          -2.857363179725     0.490810773749     0.873427110218     1.007825032230
      Gh(H)          -3.082683179725    -0.042294226251     2.565582110218     1.007825032230
      Gh(H)          -2.518132179725     1.610717773749     2.222482110218     1.007825032230
         C           -3.668445443746     7.803763943832    -0.158211848446    12.000000000000
         C           -4.847602899072     7.131253605090    -0.160578423379    12.000000000000
         C           -4.894963478901     5.696342177281    -0.161151334477    12.000000000000
         C           -3.653744858499     4.980742114708    -0.153490892748    12.000000000000
         C           -2.409429301220     7.113992810424    -0.158017506186    12.000000000000
         C           -2.425481523830     5.681133724653    -0.165022395056    12.000000000000
         C           -1.194748196161     7.786155968059    -0.156545325644    12.000000000000
         C            0.037954849212     7.099433419506    -0.158716029949    12.000000000000
         C            0.030328407694     5.669501333454    -0.164199414865    12.000000000000
         C           -1.200988687630     4.969282121665    -0.155229680932    12.000000000000
         C            1.277953646089     7.772871216944    -0.157340181389    12.000000000000
         C            2.485353904999     7.087708658987    -0.159614669293    12.000000000000
         C            2.486124505192     5.654782583990    -0.166552418281    12.000000000000
         C            1.254078739919     4.956089887414    -0.154924476693    12.000000000000
         C            3.751710411681     7.763923924730    -0.159487817913    12.000000000000
         C            4.923561876460     7.078792550739    -0.161544298621    12.000000000000
         C            4.955603091600     5.643459237119    -0.161704711428    12.000000000000
         C            3.706797354479     4.941221982083    -0.156613151258    12.000000000000
         H           -3.658525317484     8.890839192885    -0.156526860196     1.007825032230
         H           -1.189217509482     8.874132861109    -0.152573449203     1.007825032230
         H            1.284290059161     8.860845209238    -0.153181357248     1.007825032230
         H            3.753537907074     8.851047052722    -0.157965293597     1.007825032230
         H            5.869954523482     7.613806608405    -0.162469665663     1.007825032230
         H           -5.788235887228     7.676313986684    -0.162138270735     1.007825032230
         C           -6.091978138422     4.993271787393    -0.163023574968    12.000000000000
         C           -6.128665660043     3.582591942548    -0.161822397939    12.000000000000
         C           -3.664583919771     3.564193953494    -0.164747492557    12.000000000000
         C           -4.894302384424     2.861092549650    -0.155578507572    12.000000000000
         C           -2.437339174623     2.847623430834    -0.152915714020    12.000000000000
         C           -1.209232037322     3.547898708728    -0.166594740812    12.000000000000
         C            1.247137392437     3.534692525179    -0.167403347217    12.000000000000
         C            0.015171859844     2.833123613055    -0.155719163993    12.000000000000
         C            2.467640992715     2.821301751005    -0.155619105869    12.000000000000
         C            3.702545294854     3.524671928174    -0.169107066712    12.000000000000
         C            6.144976206658     4.927584139881    -0.162938156640    12.000000000000
         C            6.166584179136     3.516596249692    -0.160771603203    12.000000000000
         C            4.924605778734     2.808419699104    -0.154232856966    12.000000000000
         H            7.089901329916     5.466899539973    -0.166700037489     1.007825032230
         H           -7.031045930827     5.542699726607    -0.167256789919     1.007825032230
         C           -7.339702220848     2.858423308329    -0.163449565381    12.000000000000
         C           -7.364886137784     1.470335145333    -0.161684027253    12.000000000000
         C           -4.903508788672     1.444438585909    -0.166400291445    12.000000000000
         C           -6.132261332336     0.739951130803    -0.154110247462    12.000000000000
         C           -3.676878980242     0.726708916423    -0.155772575046    12.000000000000
         C           -2.445660765791     1.429652907012    -0.166082285247    12.000000000000
         C           -1.223604861027     0.715336275384    -0.154653020715    12.000000000000
         C            0.007633689588     1.417394922987    -0.156187366998    12.000000000000
         C            1.231215628021     0.702128464337    -0.175013952654    12.000000000000
         C            2.460816920806     1.403303809875    -0.155509443763    12.000000000000
         C            3.684426074471     0.687210201962    -0.156338230040    12.000000000000
         C            4.918704721813     1.391746334939    -0.168740051676    12.000000000000
         C            7.369797898236     2.779493976934    -0.162532022995    12.000000000000
         C            7.380158486396     1.391229281605    -0.160985340150    12.000000000000
         C            6.139795359397     0.674130396950    -0.154656998338    12.000000000000
         H           -8.279194979072     3.407129814874    -0.167747117503     1.007825032230
         H            8.315109291754     3.318129870373    -0.166742598795     1.007825032230
         C           -8.591760117307     0.724844326794    -0.161343599636    12.000000000000
         C           -8.599028783429    -0.632628032479    -0.159220475053    12.000000000000
         C           -6.139817318844    -0.674124863404    -0.166209816388    12.000000000000
         C           -7.380188291863    -1.391254415832    -0.158793754847    12.000000000000
         C           -4.918688659982    -1.391743244281    -0.153869318239    12.000000000000
         C           -3.684442475410    -0.687225541986    -0.164901558303    12.000000000000
         C           -2.460821219973    -1.403333405075    -0.154358472114    12.000000000000
         C           -1.231166192046    -0.702162091131    -0.166478850905    12.000000000000
         C           -0.007573805113    -1.417407075662    -0.159022326602    12.000000000000
         C            1.223643536163    -0.715263603514    -0.149016704653    12.000000000000
         C            2.445666469606    -1.429631515257    -0.160766717413    12.000000000000
         C            3.676862523121    -0.726695657806    -0.164907301808    12.000000000000
         C            6.132244666694    -0.739967066100    -0.166435276021    12.000000000000
         C            4.903514965779    -1.444445746791    -0.152594201480    12.000000000000
         C            8.599010668965     0.632615640417    -0.161123224006    12.000000000000
         C            8.591741308375    -0.724839093444    -0.159386843745    12.000000000000
         C            7.364858584664    -1.470320891856    -0.159617020437    12.000000000000
         H           -9.528310151544     1.276859222942    -0.162813526600     1.007825032230
         H            9.541406794881     1.174584262194    -0.162175256267     1.007825032230
         C           -7.369842089494    -2.779533372184    -0.156985546425    12.000000000000
         C           -4.924603288776    -2.808425483592    -0.164717178861    12.000000000000
         C           -6.166626675393    -3.516640419076    -0.158415338702    12.000000000000
         C           -3.702514539430    -3.524669775371    -0.154393109675    12.000000000000
         C           -2.467651164839    -2.821314189055    -0.166437748032    12.000000000000
         C           -0.015137653833    -2.833129871650    -0.166156159523    12.000000000000
         C           -1.247126020952    -3.534720401814    -0.154592206115    12.000000000000
         C            1.209240889918    -3.547902904894    -0.152053176324    12.000000000000
         C            2.437331842429    -2.847629964426    -0.166192934634    12.000000000000
         C            4.894298164045    -2.861111194537    -0.165372194563    12.000000000000
         C            3.664611075316    -3.564208071783    -0.152492774622    12.000000000000
         C            6.128634835020    -3.582572283968    -0.159146932665    12.000000000000
         C            7.339668484970    -2.858401533621    -0.157631706583    12.000000000000
         H           -9.541453290984    -1.174551692915    -0.157851058880     1.007825032230
         H            9.528257688346    -1.276907300155    -0.158137035984     1.007825032230
         H           -8.315169223574    -3.318138079463    -0.152813317894     1.007825032230
         H            8.279150962767    -3.407129016144    -0.153292150600     1.007825032230
         C           -6.144998368428    -4.927635499034    -0.157089340642    12.000000000000
         C           -3.706787527723    -4.941249940368    -0.166910308730    12.000000000000
         C           -4.955594237727    -5.643482199745    -0.158943174085    12.000000000000
         C           -2.486125505952    -5.654773800660    -0.153970637685    12.000000000000
         C           -1.254062515205    -4.956110276252    -0.165146243671    12.000000000000
         C            1.201008394143    -4.969268614444    -0.163965119413    12.000000000000
         C           -0.030340854139    -5.669508529390    -0.156121919750    12.000000000000
         C            3.653745921603    -4.980732001665    -0.163207119665    12.000000000000
         C            2.425488516150    -5.681162861778    -0.153830189113    12.000000000000
         C            6.091961438086    -4.993246189637    -0.156852705992    12.000000000000
         C            4.894972264885    -5.696336647208    -0.158088901822    12.000000000000
         H           -7.089896567766    -5.466988068489    -0.152686578961     1.007825032230
         H            7.031051029475    -5.542646762583    -0.153272926228     1.007825032230
         C           -4.923549501924    -7.078809325928    -0.159497942990    12.000000000000
         C           -2.485346267963    -7.087716304180    -0.162007835426    12.000000000000
         C           -3.751690071504    -7.763935383887    -0.161813156501    12.000000000000
         C           -0.037953136713    -7.099453100720    -0.161792110278    12.000000000000
         C           -1.277960280127    -7.772892610917    -0.163776803040    12.000000000000
         C            2.409440141001    -7.114010238253    -0.160928909467    12.000000000000
         C            1.194745757428    -7.786173591813    -0.163081200349    12.000000000000
         C            4.847616872773    -7.131250336830    -0.158422094808    12.000000000000
         C            3.668467426150    -7.803776219194    -0.160770529172    12.000000000000
         H           -5.869944530142    -7.613818824292    -0.157953906124     1.007825032230
         H            5.788245445663    -7.676320415565    -0.157294975326     1.007825032230
         H           -3.753531119175    -8.851059795487    -0.163649070930     1.007825032230
         H           -1.284308585620    -8.860863618748    -0.168204186898     1.007825032230
         H            1.189217394970    -8.874148846840    -0.167173837039     1.007825032230
         H            3.658542435098    -8.890848860304    -0.162425070594     1.007825032230

  Charge       = 0
  Multiplicity = 1
  Basis Set: JUN-CC-PVDZ
    Blend: JUN-CC-PVDZ
  Basis Set: (JUN-CC-PVDZ AUX)
    Blend: JUN-CC-PVDZ-JKFIT

    Orbital Energies [Eh]
    ---------------------

    Doubly Occupied:

       1A    -11.263948     2A    -11.263582     3A    -11.263581
       4A    -11.263171     5A    -11.263166     6A    -11.263129
       7A    -11.262983     8A    -11.262977     9A    -11.262946
      10A    -11.262740    11A    -11.262619    12A    -11.262593
      13A    -11.262127    14A    -11.262117    15A    -11.262085
      16A    -11.262059    17A    -11.261966    18A    -11.261959
      19A    -11.261912    20A    -11.261875    21A    -11.261867
      22A    -11.261770    23A    -11.261760    24A    -11.261628
      25A    -11.261611    26A    -11.261585    27A    -11.261578
      28A    -11.261543    29A    -11.261529    30A    -11.261443
      31A    -11.261420    32A    -11.261409    33A    -11.261399
      34A    -11.261384    35A    -11.261377    36A    -11.261350
      37A    -11.261217    38A    -11.261212    39A    -11.261190
      40A    -11.261182    41A    -11.261173    42A    -11.261167
      43A    -11.261156    44A    -11.261139    45A    -11.261127
      46A    -11.261115    47A    -11.261094    48A    -11.261080
      49A    -11.260919    50A    -11.260884    51A    -11.260856
      52A    -11.260799    53A    -11.260793    54A    -11.260725
      55A    -11.259776    56A    -11.259749    57A    -11.259733
      58A    -11.259716    59A    -11.259702    60A    -11.259680
      61A    -11.259139    62A    -11.259104    63A    -11.259096
      64A    -11.259051    65A    -11.259042    66A    -11.259012
      67A    -11.258773    68A    -11.258747    69A    -11.258729
      70A    -11.258713    71A    -11.258699    72A    -11.258680
      73A    -11.254447    74A    -11.254440    75A    -11.254416
      76A    -11.254415    77A    -11.254414    78A    -11.254408
      79A    -11.253554    80A    -11.253518    81A    -11.253518
      82A    -11.253511    83A    -11.253500    84A    -11.253497
      85A    -11.253469    86A    -11.253431    87A    -11.253431
      88A    -11.253426    89A    -11.253416    90A    -11.253412
      91A    -11.252975    92A    -11.252968    93A    -11.252944
      94A    -11.252943    95A    -11.252942    96A    -11.252936
      97A     -1.253630    98A     -1.238759    99A     -1.238716
     100A     -1.220248   101A     -1.220236   102A     -1.215168
     103A     -1.200853   104A     -1.195405   105A     -1.187890
     106A     -1.187851   107A     -1.173585   108A     -1.173583
     109A     -1.155374   110A     -1.155363   111A     -1.152448
     112A     -1.144555   113A     -1.144550   114A     -1.128330
     115A     -1.114461   116A     -1.112993   117A     -1.112235
     118A     -1.112195   119A     -1.111460   120A     -1.088198
     121A     -1.088182   122A     -1.076800   123A     -1.076797
     124A     -1.067375   125A     -1.067339   126A     -1.064709
     127A     -1.046591   128A     -1.046580   129A     -1.040252
     130A     -1.038576   131A     -1.038568   132A     -1.024973
     133A     -1.021091   134A     -1.021017   135A     -1.006984
     136A     -1.006574   137A     -1.003594   138A     -1.000235
     139A     -1.000183   140A     -0.990923   141A     -0.970756
     142A     -0.970703   143A     -0.955700   144A     -0.955641
     145A     -0.905400   146A     -0.905355   147A     -0.905298
     148A     -0.905264   149A     -0.904024   150A     -0.892066
     151A     -0.892013   152A     -0.890092   153A     -0.890043
     154A     -0.889206   155A     -0.872045   156A     -0.868928
     157A     -0.851345   158A     -0.847596   159A     -0.847593
     160A     -0.845328   161A     -0.842765   162A     -0.834345
     163A     -0.834336   164A     -0.827959   165A     -0.827947
     166A     -0.784349   167A     -0.784338   168A     -0.783419
     169A     -0.783409   170A     -0.782051   171A     -0.782030
     172A     -0.781771   173A     -0.766776   174A     -0.760515
     175A     -0.750320   176A     -0.733311   177A     -0.726863
     178A     -0.726823   179A     -0.724842   180A     -0.724331
     181A     -0.724295   182A     -0.718212   183A     -0.713513
     184A     -0.713504   185A     -0.699373   186A     -0.699344
     187A     -0.685851   188A     -0.685767   189A     -0.685758
     190A     -0.681965   191A     -0.681961   192A     -0.678554
     193A     -0.653422   194A     -0.650657   195A     -0.650621
     196A     -0.649542   197A     -0.649537   198A     -0.649382
     199A     -0.640670   200A     -0.640620   201A     -0.639888
     202A     -0.638982   203A     -0.635782   204A     -0.635749
     205A     -0.628912   206A     -0.617711   207A     -0.615127
     208A     -0.615100   209A     -0.608595   210A     -0.608588
     211A     -0.599075   212A     -0.599033   213A     -0.598519
     214A     -0.598347   215A     -0.598324   216A     -0.597772
     217A     -0.594879   218A     -0.594865   219A     -0.594505
     220A     -0.593931   221A     -0.591719   222A     -0.591715
     223A     -0.587101   224A     -0.577652   225A     -0.577633
     226A     -0.575612   227A     -0.575605   228A     -0.573173
     229A     -0.569523   230A     -0.567888   231A     -0.567861
     232A     -0.566526   233A     -0.566516   234A     -0.560763
     235A     -0.558482   236A     -0.558435   237A     -0.558270
     238A     -0.554143   239A     -0.550468   240A     -0.547325
     241A     -0.544159   242A     -0.534921   243A     -0.534906
     244A     -0.533333   245A     -0.533321   246A     -0.527889
     247A     -0.527872   248A     -0.527508   249A     -0.516919
     250A     -0.516895   251A     -0.515237   252A     -0.515234
     253A     -0.509450   254A     -0.509440   255A     -0.497812
     256A     -0.496241   257A     -0.496195   258A     -0.493693
     259A     -0.493661   260A     -0.489348   261A     -0.481258
     262A     -0.477297   263A     -0.477292   264A     -0.473787
     265A     -0.469184   266A     -0.466285   267A     -0.466283
     268A     -0.458683   269A     -0.446381   270A     -0.446335
     271A     -0.440901   272A     -0.440654   273A     -0.440619
     274A     -0.434563   275A     -0.433782   276A     -0.407251
     277A     -0.407214   278A     -0.386236   279A     -0.386178
     280A     -0.385611   281A     -0.385609   282A     -0.383586
     283A     -0.354176   284A     -0.354161   285A     -0.350497
     286A     -0.337884   287A     -0.335374   288A     -0.335331
     289A     -0.332584   290A     -0.332571   291A     -0.306859
     292A     -0.301745   293A     -0.301695   294A     -0.300693
     295A     -0.285992   296A     -0.256371   297A     -0.253282
     298A     -0.253223   299A     -0.204079   300A     -0.203994

  @DF-RHF Final Energy: -3650.34498170506095

   => Energetics <=

    Nuclear Repulsion Energy =          15611.4211649754324753
    One-Electron Energy =              -36072.2668964280601358
    Two-Electron Energy =               16810.5007497475671698
    Total Energy =                      -3650.3449817050604906
 Dipole X            :         -0.0003964            0.0002112           -0.0001852
 Dipole Y            :          0.0003139           -0.0044281           -0.0041142
 Dipole Z            :        181.5392458         -181.5371808            0.0020650
 Magnitude           :                                                    0.0046071

    SAPT Results
  --------------------------------------------------------------------------------------------------------
    Electrostatics               -435.14447050 [mEh]    -273.05727770 [kcal/mol]   -1142.47164990 [kJ/mol]
      Elst10,r                   -435.14447050 [mEh]    -273.05727770 [kcal/mol]   -1142.47164990 [kJ/mol]

    Exchange                     1176.26071028 [mEh]     738.11473934 [kcal/mol]    3088.27206938 [kJ/mol]
      Exch10                     1176.26071028 [mEh]     738.11473934 [kcal/mol]    3088.27206938 [kJ/mol]
      Exch10(S^2)                1061.60799178 [mEh]     666.16907228 [kcal/mol]    2787.25139843 [kJ/mol]

    Induction                    -128.43818418 [mEh]     -80.59617737 [kcal/mol]    -337.21440610 [kJ/mol]
      Ind20,r                    -700.19167525 [mEh]    -439.37690968 [kcal/mol]   -1838.35299011 [kJ/mol]
      Exch-Ind20,r                500.80847581 [mEh]     314.26206312 [kcal/mol]    1314.87247210 [kJ/mol]
      delta HF,r (2)               70.94501526 [mEh]      44.51866919 [kcal/mol]     186.26611191 [kJ/mol]

    Dispersion                   -241.24089368 [mEh]    -151.38094625 [kcal/mol]    -633.37787910 [kJ/mol]
      Disp20                     -306.95003058 [mEh]    -192.61405216 [kcal/mol]    -805.89719425 [kJ/mol]
      Exch-Disp20                  65.70913689 [mEh]      41.23310591 [kcal/mol]     172.51931514 [kJ/mol]
      Disp20 (SS)                -153.47501529 [mEh]     -96.30702608 [kcal/mol]    -402.94859712 [kJ/mol]
      Disp20 (OS)                -153.47501529 [mEh]     -96.30702608 [kcal/mol]    -402.94859712 [kJ/mol]
      Exch-Disp20 (SS)             38.09503838 [mEh]      23.90499749 [kcal/mol]     100.01850948 [kJ/mol]
      Exch-Disp20 (OS)             27.61409851 [mEh]      17.32810843 [kcal/mol]      72.50080566 [kJ/mol]

  Total HF                        612.67805561 [mEh]     384.46128427 [kcal/mol]    1608.58601338 [kJ/mol]
  Total SAPT0                     371.43716192 [mEh]     233.08033802 [kcal/mol]     975.20813428 [kJ/mol]

  Special recipe for scaled SAPT0 (see Manual):
    Electrostatics sSAPT0        -435.14447050 [mEh]    -273.05727770 [kcal/mol]   -1142.47164990 [kJ/mol]
    Exchange sSAPT0              1176.26071028 [mEh]     738.11473934 [kcal/mol]    3088.27206938 [kJ/mol]
    Induction sSAPT0               51.97728542 [mEh]      32.61623902 [kcal/mol]     136.46634407 [kJ/mol]
    Dispersion sSAPT0            -217.56927996 [mEh]    -136.52678438 [kcal/mol]    -571.22806583 [kJ/mol]
  Total sSAPT0                    575.52424525 [mEh]     361.14691628 [kcal/mol]    1511.03869772 [kJ/mol]
  --------------------------------------------------------------------------------------------------------

*** Psi4 exiting successfully. Buy a developer a beer!
