                               Psi4 1.9 release

  ==> Input File <==

--------------------------------------------------------------------------
memory 32 GB # how much memory is available ! Depends on the nodes/cores !

molecule dimer {
# monomer A
+1 1    # Charge and multiplicity
C  0.680067 1.417258 -7.615929
C -0.680504 1.419286 -7.615545
N -1.085635 1.420284 -6.297221
C  0.000108 1.423560 -5.515820
C -2.477365 1.469690 -5.829242
N  1.085222 1.420284 -6.297221
H  1.385146 1.409430 -8.433368
H -1.385302 1.419096 -8.433214
H -0.000009 1.425307 -4.434731
C  2.478117 1.403392 -5.832123
H  2.490592 1.430737 -4.741870
H  2.967028 0.489946 -6.179299
H  3.001428 2.278875 -6.223595
H -2.857359 2.491761 -5.909201
H -3.082679 0.799606 -6.442306
H -2.518128 1.142706 -4.789294
--
# monomer B
0 1     # Charge and multiplicity
C   1.22531237526482      0.70753866091955      0.00613762728373
C   1.22532433589282     -0.70753852257020     -0.00619318228664
C   -0.00000567409046      1.41496628609039     -0.00672680580738
C   2.45644923379077      1.41832825917820      0.00902448468363
C   0.00001130712078     -1.41497612663474      0.00347275151708
C   -1.22530046906674      0.70754574598412      0.00838914760619
C   2.45643823516184     -1.41832293188077     -0.00843833914343
C   -0.00000085313587      2.83680140328112     -0.00913035594137
C   3.68182717731192      0.70931832800114     -0.00808954934571
C   2.45512052870677      2.83422403348893     -0.00819210630633
C   3.68182158506039     -0.70933346742900      0.00798293467272
C   -1.22531311884624     -0.70752714354401     -0.00512042085974
C   1.22670006104402      3.54346985599427      0.00816696660346
C   0.00000526469929     -2.83678176723568      0.00832091913869
C   -2.45643555300670      1.41831729028492      0.00842454345199
C   2.45512389762097     -2.83422965658853      0.00783102630520
C   -1.22671388474763      3.54346943575023      0.00827029982280
C   4.91451777504333      1.42717324448953     -0.00160886631602
C   3.69315067131765      3.54279566454522     -0.00155906667985
C   -2.45643712022637     -1.41831290883911     -0.00846337726810
C   1.22670532178455     -3.54347386990643     -0.00780316414624
C   -2.45512491866593      2.83421703463423     -0.00818572995999
C   4.91452486062398     -1.42718653794377      0.00136387641845
C   1.22142509354026      4.97013443726031      0.00150231067809
C   4.89300870916237      2.82518837202648     -0.00039219795739
C   -1.22669652864725     -3.54347062507680     -0.00753595973677
C   -3.68181849668397      0.70932533873199     -0.00807686886569
C   3.69314758099218     -3.54280096939050      0.00148176697923
C   -1.22143177215231      4.97012866986289      0.00168580605083
C   6.13477145276790      0.68054831910577     -0.00083909176631
C   3.65678936045204      4.97295361556775     -0.00065042889723
C   -2.45512642789169     -2.83421472106065      0.00758666850712
C   -3.68181869921921     -0.70932533146830      0.00810055625144
C   4.89301309775526     -2.82519973363176      0.00021895393805
C   -0.00000059327114      5.65044773803267      0.00045449734393
C   6.13477559217374     -0.68055448207492      0.00042622874941
C   2.47813196269732      5.65357712333155      0.00063835075260
C   1.22142288457925     -4.97012668293268     -0.00129718634452
C   -3.69316190412301      3.54279732619245     -0.00139355922051
C   -1.22142804110313     -4.97011793159564     -0.00140994817719
C   -4.91452132810043      1.42717581899491     -0.00153192130862
C   3.65678749952045     -4.97295485423912      0.00080007163680
C   -2.47813805026426      5.65357479452875      0.00092287576113
C   -3.69314125872231     -3.54278984697859      0.00136564082345
C   -4.91451200321153     -1.42718062802730      0.00139857359209
C   -0.00000552908399     -5.65043791501335      0.00005899322272
C   -4.89302000425900      2.82518897091939     -0.00040227981744
C   2.47812647313991     -5.65357317188818     -0.00029052915548
C   -3.65679823041642      4.97295655404175     -0.00047374852278
C   -4.89299899901461     -2.82519139505969      0.00006491824035
C   -2.47812801824129     -5.65356579800621     -0.00056571680280
C   -6.13477002348955      0.68054913825639     -0.00086464346868
C   -3.65678835334731     -4.97294365097028      0.00058578382008
C   -6.13476456307132     -0.68055354348201      0.00040575295444
H   5.83528897565761      3.36927626695423      0.00396712770529
H   7.07385965258860      1.22821762089947     -0.00037744837300
H   4.60066374401555      5.51238117445323     -0.00014522814529
H   5.83528386714679     -3.36930568472863     -0.00423551337640
H   -0.00001167146422      6.73853104613662     -0.00389474766392
H   7.07386165167227     -1.22822657074368     -0.00008250934481
H   2.47331421164041      6.74068466339473      0.00017162982210
H   4.60066897122302     -5.51237575717576      0.00039007446835
H   -2.47331820069565      6.74068209160650      0.00047297644710
H   -0.00000978838621     -6.73852780445195      0.00458867820736
H   -5.83530143450167      3.36927132229595      0.00410314985360
H   2.47330840367253     -6.74068500242887      0.00027980126949
H   -4.60067436136587      5.51237839860371      0.00002010017831
H   -5.83527902699321     -3.36928859177951     -0.00451481925734
H   -2.47329986759855     -6.74067870613986     -0.00016951527498
H   -7.07385728692578      1.22822084484047     -0.00046143985387
H   -4.60067330624313     -5.51236229778631      0.00021776644566
H   -7.07385645456741     -1.22822025997701     -0.00017736581114

    units angstrom      # Angstroms are the default
    no_reorient         # Geometry fixed, default
    symmetry c1         # C1 symmetry, default
}

set {
    scf_type DF         # Density fitting, faster than exact integrals
    freeze_core True    # Freeze core electrons
    basis jun-cc-pVDZ   # Jun-cc-pVDZ basis set, recommended for sSAPT0 in https://doi.org/10.1063/1.4867135
}

energy('ssapt0')        # Compute sSAPT0 energy, includes also SAPT0
--------------------------------------------------------------------------

  //              Dimer HF             //
    Molecular point group: c1
  Charge       = 1
  Multiplicity = 1
  Basis Set: JUN-CC-PVDZ
    Blend: JUN-CC-PVDZ
  Basis Set: (JUN-CC-PVDZ AUX)
    Blend: JUN-CC-PVDZ-JKFIT
  @DF-RHF Final Energy: -2359.20231495108146
    Total Energy =                      -2359.2023149510805524
 Dipole X            :         -0.0018458            0.0006313           -0.0012145
 Dipole Y            :         -5.6972272            7.4856329            1.7884057
 Dipole Z            :         22.3852930          -31.4743287           -9.0890357
 Magnitude           :                                                    9.2633129
  //            Monomer A HF           //
    Molecular point group: c1
  Multiplicity = 1
  Basis Set: JUN-CC-PVDZ
    Blend: JUN-CC-PVDZ
  Basis Set: (JUN-CC-PVDZ AUX)
    Blend: JUN-CC-PVDZ-JKFIT
  @DF-RHF Final Energy:  -303.29734743050244
    Total Energy =                       -303.2973474305024411
  //            Monomer B HF           //
    Molecular point group: c1

    Geometry (in Angstrom), charge = 0, multiplicity = 1:

       Center              X                  Y                   Z               Mass
    ------------   -----------------  -----------------  -----------------  -----------------
      Gh(C)           0.680066520158     1.235968212970    -6.801890538954    12.000000000000
      Gh(C)          -0.680504479842     1.237996212970    -6.801506538954    12.000000000000
      Gh(N)          -1.085635479842     1.238994212970    -5.483182538954    14.003074004430
      Gh(C)           0.000107520158     1.242270212970    -4.701781538954    12.000000000000
      Gh(C)          -2.477365479842     1.288400212970    -5.015203538954    12.000000000000
      Gh(N)           1.085221520158     1.238994212970    -5.483182538954    14.003074004430
      Gh(H)           1.385145520158     1.228140212970    -7.619329538954     1.007825032230
      Gh(H)          -1.385302479842     1.237806212970    -7.619175538954     1.007825032230
      Gh(H)          -0.000009479842     1.244017212970    -3.620692538954     1.007825032230
      Gh(C)           2.478116520158     1.222102212970    -5.018084538954    12.000000000000
      Gh(H)           2.490591520158     1.249447212970    -3.927831538954     1.007825032230
      Gh(H)           2.967027520158     0.308656212970    -5.365260538954     1.007825032230
      Gh(H)           3.001427520158     2.097585212970    -5.409556538954     1.007825032230
      Gh(H)          -2.857359479842     2.310471212970    -5.095162538954     1.007825032230
      Gh(H)          -3.082679479842     0.618316212970    -5.628267538954     1.007825032230
      Gh(H)          -2.518128479842     0.961416212970    -3.975255538954     1.007825032230
         C            1.225311895423     0.526248873889     0.820176088329    12.000000000000
         C            1.225323856051    -0.888828309601     0.807845278759    12.000000000000
         C           -0.000006153932     1.233676499060     0.807311655238    12.000000000000
         C            2.456448753949     1.237038472148     0.823062945729    12.000000000000
         C            0.000010827279    -1.596265913665     0.817511212563    12.000000000000
         C           -1.225300948908     0.526255958954     0.822427608652    12.000000000000
         C            2.456437755320    -1.599612718911     0.805600121902    12.000000000000
         C           -0.000001332978     2.655511616251     0.804908105104    12.000000000000
         C            3.681826697470     0.528028540971     0.805948911700    12.000000000000
         C            2.455120048865     2.652934246459     0.805846354739    12.000000000000
         C            3.681821105219    -0.890623254459     0.822021395718    12.000000000000
         C           -1.225313598688    -0.888816930574     0.808918040186    12.000000000000
         C            1.226699581202     3.362180068964     0.822205427649    12.000000000000
         C            0.000004784858    -3.018071554266     0.822359380184    12.000000000000
         C           -2.456436032848     1.237027503255     0.822463004498    12.000000000000
         C            2.455123417779    -3.015519443619     0.821869487351    12.000000000000
         C           -1.226714364589     3.362179648720     0.822308760868    12.000000000000
         C            4.914517295202     1.245883457459     0.812429594730    12.000000000000
         C            3.693150191476     3.361505877515     0.812479394366    12.000000000000
         C           -2.456437600068    -1.599602695869     0.805575083777    12.000000000000
         C            1.226704841943    -3.724763656937     0.806235296899    12.000000000000
         C           -2.455125398508     2.652927247604     0.805852731086    12.000000000000
         C            4.914524380782    -1.608476324974     0.815402337464    12.000000000000
         C            1.221424613699     4.788844650230     0.815540771724    12.000000000000
         C            4.893008229321     2.643898584996     0.813646263088    12.000000000000
         C           -1.226697008489    -3.724760412107     0.806502501309    12.000000000000
         C           -3.681818976526     0.528035551702     0.805961592180    12.000000000000
         C            3.693147101150    -3.724090756421     0.815520228025    12.000000000000
         C           -1.221432251994     4.788838882833     0.815724267096    12.000000000000
         C            6.134770972926     0.499258532075     0.813199369279    12.000000000000
         C            3.656788880610     4.791663828537     0.813388032148    12.000000000000
         C           -2.455126907733    -3.015504508091     0.821625129553    12.000000000000
         C           -3.681819179061    -0.890615118499     0.822139017297    12.000000000000
         C            4.893012617914    -3.006489520662     0.814257414984    12.000000000000
         C           -0.000001073113     5.469157951002     0.814492958389    12.000000000000
         C            6.134775112332    -0.861844269105     0.814464689795    12.000000000000
         C            2.478131482856     5.472287336301     0.814676811798    12.000000000000
         C            1.221422404738    -5.151416469963     0.812741274701    12.000000000000
         C           -3.693162383965     3.361507539162     0.812644901825    12.000000000000
         C           -1.221428520945    -5.151407718626     0.812628512868    12.000000000000
         C           -4.914521807942     1.245886031965     0.812506539737    12.000000000000
         C            3.656787019679    -5.154244641269     0.814838532682    12.000000000000
         C           -2.478138530106     5.472285007498     0.814961336807    12.000000000000
         C           -3.693141738564    -3.724079634009     0.815404101869    12.000000000000
         C           -4.914512483053    -1.608470415058     0.815437034638    12.000000000000
         C           -0.000006008926    -5.831727702044     0.814097454268    12.000000000000
         C           -4.893020484101     2.643899183889     0.813636181228    12.000000000000
         C            2.478125993298    -5.834862958919     0.813747931890    12.000000000000
         C           -3.656798710258     4.791666767011     0.813564712523    12.000000000000
         C           -4.892999478856    -3.006481182090     0.814103379286    12.000000000000
         C           -2.478128498083    -5.834855585037     0.813472744243    12.000000000000
         C           -6.134770503331     0.499259351226     0.813173817577    12.000000000000
         C           -3.656788833189    -5.154233438001     0.814624244866    12.000000000000
         C           -6.134765042913    -0.861843330512     0.814444214000    12.000000000000
         H            5.835288495816     3.187986479924     0.818005588751     1.007825032230
         H            7.073859172747     1.046927833869     0.813661012673     1.007825032230
         H            4.600663264174     5.331091387423     0.813893232900     1.007825032230
         H            5.835283387305    -3.550595471759     0.809802947669     1.007825032230
         H           -0.000012151306     6.557241259106     0.810143713382     1.007825032230
         H            7.073861171831    -1.409516357774     0.813955951701     1.007825032230
         H            2.473313731799     6.559394876364     0.814210090868     1.007825032230
         H            4.600668491381    -5.693665544206     0.814428535514     1.007825032230
         H           -2.473318680537     6.559392304576     0.814511437493     1.007825032230
         H           -0.000010268228    -6.919817591482     0.818627139253     1.007825032230
         H           -5.835301914343     3.187981535266     0.818141610899     1.007825032230
         H            2.473307923831    -6.921974789459     0.814318262315     1.007825032230
         H           -4.600674841208     5.331088611573     0.814058561224     1.007825032230
         H           -5.835279506835    -3.550578378810     0.809523641788     1.007825032230
         H           -2.473300347440    -6.921968493170     0.813868945771     1.007825032230
         H           -7.073857766768     1.046931057810     0.813577021192     1.007825032230
         H           -4.600673786085    -5.693652084817     0.814256227491     1.007825032230
         H           -7.073856934409    -1.409510047007     0.813861095234     1.007825032230

  Charge       = 0
  Multiplicity = 1
  Basis Set: JUN-CC-PVDZ
    Blend: JUN-CC-PVDZ
  Basis Set: (JUN-CC-PVDZ AUX)
    Blend: JUN-CC-PVDZ-JKFIT

    Orbital Energies [Eh]
    ---------------------

    Doubly Occupied:

       1A    -11.260603     2A    -11.260165     3A    -11.260154
       4A    -11.259453     5A    -11.259446     6A    -11.259279
       7A    -11.259071     8A    -11.258996     9A    -11.258989
      10A    -11.258669    11A    -11.258665    12A    -11.258598
      13A    -11.258535    14A    -11.258533    15A    -11.258525
      16A    -11.258499    17A    -11.258493    18A    -11.258475
      19A    -11.258465    20A    -11.258455    21A    -11.258452
      22A    -11.258354    23A    -11.258347    24A    -11.258048
      25A    -11.257391    26A    -11.257331    27A    -11.257325
      28A    -11.257194    29A    -11.257191    30A    -11.257108
      31A    -11.256485    32A    -11.256416    33A    -11.256413
      34A    -11.256307    35A    -11.256301    36A    -11.256257
      37A    -11.252352    38A    -11.252349    39A    -11.252335
      40A    -11.252334    41A    -11.252332    42A    -11.252330
      43A    -11.251477    44A    -11.251466    45A    -11.251464
      46A    -11.251456    47A    -11.251453    48A    -11.251444
      49A    -11.250914    50A    -11.250910    51A    -11.250896
      52A    -11.250895    53A    -11.250893    54A    -11.250891
      55A     -1.244175    56A     -1.219914    57A     -1.219911
      58A     -1.189632    59A     -1.189623    60A     -1.181053
      61A     -1.157639    62A     -1.149065    63A     -1.135599
      64A     -1.135589    65A     -1.113273    66A     -1.113268
      67A     -1.082526    68A     -1.082520    69A     -1.078704
      70A     -1.066057    71A     -1.066054    72A     -1.039485
      73A     -1.024378    74A     -1.021877    75A     -1.021832
      76A     -1.017804    77A     -1.012869    78A     -0.987119
      79A     -0.987069    80A     -0.961961    81A     -0.961910
      82A     -0.894375    83A     -0.894350    84A     -0.888044
      85A     -0.886293    86A     -0.886238    87A     -0.881493
      88A     -0.881446    89A     -0.861982    90A     -0.837477
      91A     -0.818295    92A     -0.816718    93A     -0.812232
      94A     -0.812224    95A     -0.794769    96A     -0.794757
      97A     -0.746723    98A     -0.744956    99A     -0.733517
     100A     -0.733514   101A     -0.732263   102A     -0.732241
     103A     -0.716594   104A     -0.699059   105A     -0.699043
     106A     -0.693678   107A     -0.693657   108A     -0.661312
     109A     -0.653219   110A     -0.651263   111A     -0.650332
     112A     -0.650326   113A     -0.639441   114A     -0.639434
     115A     -0.629808   116A     -0.627619   117A     -0.627603
     118A     -0.606476   119A     -0.605870   120A     -0.601756
     121A     -0.599827   122A     -0.599789   123A     -0.593721
     124A     -0.591332   125A     -0.591318   126A     -0.585345
     127A     -0.576425   128A     -0.576397   129A     -0.567398
     130A     -0.567382   131A     -0.566055   132A     -0.566038
     133A     -0.558828   134A     -0.554931   135A     -0.554927
     136A     -0.538672   137A     -0.538669   138A     -0.538248
     139A     -0.538244   140A     -0.529799   141A     -0.528185
     142A     -0.522959   143A     -0.522946   144A     -0.500582
     145A     -0.495670   146A     -0.493316   147A     -0.487899
     148A     -0.485162   149A     -0.481844   150A     -0.481839
     151A     -0.470386   152A     -0.470370   153A     -0.451128
     154A     -0.451052   155A     -0.439134   156A     -0.439125
     157A     -0.404807   158A     -0.404786   159A     -0.403432
     160A     -0.375488   161A     -0.375482   162A     -0.349186
     163A     -0.337649   164A     -0.336621   165A     -0.336554
     166A     -0.311163   167A     -0.298156   168A     -0.284411
     169A     -0.284359   170A     -0.224984   171A     -0.224918

  @DF-RHF Final Energy: -2055.89251244033449

   => Energetics <=

    Nuclear Repulsion Energy =           6452.5568002797781446
    One-Electron Energy =              -15636.4557482423933834
    Two-Electron Energy =                7128.0064355222802988
    Total Energy =                      -2055.8925124403340305
 Dipole X            :          0.0001624           -0.0000085            0.0001539
 Dipole Y            :        117.1674732         -117.1648546            0.0026186
 Dipole Z            :       -526.0925547          526.1004905            0.0079358
 Magnitude           :                                                    0.0083581

    SAPT Results
  --------------------------------------------------------------------------------------------------------
    Electrostatics                 -8.71975566 [mEh]      -5.47172928 [kcal/mol]     -22.89371532 [kJ/mol]
      Elst10,r                     -8.71975566 [mEh]      -5.47172928 [kcal/mol]     -22.89371532 [kJ/mol]

    Exchange                        0.00909446 [mEh]       0.00570686 [kcal/mol]       0.02387750 [kJ/mol]
      Exch10                        0.00909446 [mEh]       0.00570686 [kcal/mol]       0.02387750 [kJ/mol]
      Exch10(S^2)                   0.00909441 [mEh]       0.00570683 [kcal/mol]       0.02387737 [kJ/mol]

    Induction                      -3.74441905 [mEh]      -2.34965843 [kcal/mol]      -9.83097086 [kJ/mol]
      Ind20,r                      -3.63052754 [mEh]      -2.27819043 [kcal/mol]      -9.53194874 [kJ/mol]
      Exch-Ind20,r                  0.00335005 [mEh]       0.00210219 [kcal/mol]       0.00879555 [kJ/mol]
      delta HF,r (2)               -0.11724156 [mEh]      -0.07357019 [kcal/mol]      -0.30781766 [kJ/mol]

    Dispersion                     -2.45289021 [mEh]      -1.53921184 [kcal/mol]      -6.44006235 [kJ/mol]
      Disp20                       -2.45473615 [mEh]      -1.54037019 [kcal/mol]      -6.44490887 [kJ/mol]
      Exch-Disp20                   0.00184594 [mEh]       0.00115835 [kcal/mol]       0.00484652 [kJ/mol]
      Disp20 (SS)                  -1.22736807 [mEh]      -0.77018509 [kcal/mol]      -3.22245444 [kJ/mol]
      Disp20 (OS)                  -1.22736807 [mEh]      -0.77018509 [kcal/mol]      -3.22245444 [kJ/mol]
      Exch-Disp20 (SS)              0.00128969 [mEh]       0.00080929 [kcal/mol]       0.00338608 [kJ/mol]
      Exch-Disp20 (OS)              0.00055625 [mEh]       0.00034905 [kcal/mol]       0.00146044 [kJ/mol]

  Total HF                        -12.45508024 [mEh]      -7.81568085 [kcal/mol]     -32.70080868 [kJ/mol]
  Total SAPT0                     -14.90797045 [mEh]      -9.35489269 [kcal/mol]     -39.14087103 [kJ/mol]

  Special recipe for scaled SAPT0 (see Manual):
    Electrostatics sSAPT0          -8.71975566 [mEh]      -5.47172928 [kcal/mol]     -22.89371532 [kJ/mol]
    Exchange sSAPT0                 0.00909446 [mEh]       0.00570686 [kcal/mol]       0.02387750 [kJ/mol]
    Induction sSAPT0               -3.74441905 [mEh]      -2.34965843 [kcal/mol]      -9.83097086 [kJ/mol]
    Dispersion sSAPT0              -2.45289021 [mEh]      -1.53921184 [kcal/mol]      -6.44006235 [kJ/mol]
  Total sSAPT0                    -14.90797045 [mEh]      -9.35489269 [kcal/mol]     -39.14087103 [kJ/mol]
  --------------------------------------------------------------------------------------------------------

*** Psi4 exiting successfully. Buy a developer a beer!
