                               Psi4 1.9 release

  ==> Input File <==

--------------------------------------------------------------------------
memory 32 GB # how much memory is available ! Depends on the nodes/cores !

molecule dimer {
# monomer A
-1 1    # Charge and multiplicity
B -0.000046  0.000337 7.399994
F -1.153597  0.000048 8.215641
F  1.153661 -0.000581 8.215641
F -0.000019 -1.153637 6.584360
F -0.000019  1.153978 6.584360
--
# monomer B
0 1     # Charge and multiplicity
C   1.22531237526482      0.70753866091955      0.00613762728373
C   1.22532433589282     -0.70753852257020     -0.00619318228664
C   -0.00000567409046      1.41496628609039     -0.00672680580738
C   2.45644923379077      1.41832825917820      0.00902448468363
C   0.00001130712078     -1.41497612663474      0.00347275151708
C   -1.22530046906674      0.70754574598412      0.00838914760619
C   2.45643823516184     -1.41832293188077     -0.00843833914343
C   -0.00000085313587      2.83680140328112     -0.00913035594137
C   3.68182717731192      0.70931832800114     -0.00808954934571
C   2.45512052870677      2.83422403348893     -0.00819210630633
C   3.68182158506039     -0.70933346742900      0.00798293467272
C   -1.22531311884624     -0.70752714354401     -0.00512042085974
C   1.22670006104402      3.54346985599427      0.00816696660346
C   0.00000526469929     -2.83678176723568      0.00832091913869
C   -2.45643555300670      1.41831729028492      0.00842454345199
C   2.45512389762097     -2.83422965658853      0.00783102630520
C   -1.22671388474763      3.54346943575023      0.00827029982280
C   4.91451777504333      1.42717324448953     -0.00160886631602
C   3.69315067131765      3.54279566454522     -0.00155906667985
C   -2.45643712022637     -1.41831290883911     -0.00846337726810
C   1.22670532178455     -3.54347386990643     -0.00780316414624
C   -2.45512491866593      2.83421703463423     -0.00818572995999
C   4.91452486062398     -1.42718653794377      0.00136387641845
C   1.22142509354026      4.97013443726031      0.00150231067809
C   4.89300870916237      2.82518837202648     -0.00039219795739
C   -1.22669652864725     -3.54347062507680     -0.00753595973677
C   -3.68181849668397      0.70932533873199     -0.00807686886569
C   3.69314758099218     -3.54280096939050      0.00148176697923
C   -1.22143177215231      4.97012866986289      0.00168580605083
C   6.13477145276790      0.68054831910577     -0.00083909176631
C   3.65678936045204      4.97295361556775     -0.00065042889723
C   -2.45512642789169     -2.83421472106065      0.00758666850712
C   -3.68181869921921     -0.70932533146830      0.00810055625144
C   4.89301309775526     -2.82519973363176      0.00021895393805
C   -0.00000059327114      5.65044773803267      0.00045449734393
C   6.13477559217374     -0.68055448207492      0.00042622874941
C   2.47813196269732      5.65357712333155      0.00063835075260
C   1.22142288457925     -4.97012668293268     -0.00129718634452
C   -3.69316190412301      3.54279732619245     -0.00139355922051
C   -1.22142804110313     -4.97011793159564     -0.00140994817719
C   -4.91452132810043      1.42717581899491     -0.00153192130862
C   3.65678749952045     -4.97295485423912      0.00080007163680
C   -2.47813805026426      5.65357479452875      0.00092287576113
C   -3.69314125872231     -3.54278984697859      0.00136564082345
C   -4.91451200321153     -1.42718062802730      0.00139857359209
C   -0.00000552908399     -5.65043791501335      0.00005899322272
C   -4.89302000425900      2.82518897091939     -0.00040227981744
C   2.47812647313991     -5.65357317188818     -0.00029052915548
C   -3.65679823041642      4.97295655404175     -0.00047374852278
C   -4.89299899901461     -2.82519139505969      0.00006491824035
C   -2.47812801824129     -5.65356579800621     -0.00056571680280
C   -6.13477002348955      0.68054913825639     -0.00086464346868
C   -3.65678835334731     -4.97294365097028      0.00058578382008
C   -6.13476456307132     -0.68055354348201      0.00040575295444
H   5.83528897565761      3.36927626695423      0.00396712770529
H   7.07385965258860      1.22821762089947     -0.00037744837300
H   4.60066374401555      5.51238117445323     -0.00014522814529
H   5.83528386714679     -3.36930568472863     -0.00423551337640
H   -0.00001167146422      6.73853104613662     -0.00389474766392
H   7.07386165167227     -1.22822657074368     -0.00008250934481
H   2.47331421164041      6.74068466339473      0.00017162982210
H   4.60066897122302     -5.51237575717576      0.00039007446835
H   -2.47331820069565      6.74068209160650      0.00047297644710
H   -0.00000978838621     -6.73852780445195      0.00458867820736
H   -5.83530143450167      3.36927132229595      0.00410314985360
H   2.47330840367253     -6.74068500242887      0.00027980126949
H   -4.60067436136587      5.51237839860371      0.00002010017831
H   -5.83527902699321     -3.36928859177951     -0.00451481925734
H   -2.47329986759855     -6.74067870613986     -0.00016951527498
H   -7.07385728692578      1.22822084484047     -0.00046143985387
H   -4.60067330624313     -5.51236229778631      0.00021776644566
H   -7.07385645456741     -1.22822025997701     -0.00017736581114

    units angstrom      # Angstroms are the default
    no_reorient         # Geometry fixed, default
    symmetry c1         # C1 symmetry, default
}

set {
    scf_type DF         # Density fitting, faster than exact integrals
    freeze_core True    # Freeze core electrons
    basis jun-cc-pVDZ   # Jun-cc-pVDZ basis set, recommended for sSAPT0 in https://doi.org/10.1063/1.4867135
}

energy('ssapt0')        # Compute sSAPT0 energy, includes also SAPT0
--------------------------------------------------------------------------

  //              Dimer HF             //
    Molecular point group: c1
  Charge       = -1
  Multiplicity = 1
  Basis Set: JUN-CC-PVDZ
    Blend: JUN-CC-PVDZ
  Basis Set: (JUN-CC-PVDZ AUX)
    Blend: JUN-CC-PVDZ-JKFIT
  @DF-RHF Final Energy: -2478.65814102465265
    Total Energy =                      -2478.6581410246526502
 Dipole X            :         -0.0001790           -0.0000160           -0.0001950
 Dipole Y            :          0.0012882           -0.0001716            0.0011166
 Dipole Z            :         33.7117869          -45.3642936          -11.6525067
 Magnitude           :                                                   11.6525068
  //            Monomer A HF           //
    Molecular point group: c1
  Multiplicity = 1
  Basis Set: JUN-CC-PVDZ
    Blend: JUN-CC-PVDZ
  Basis Set: (JUN-CC-PVDZ AUX)
    Blend: JUN-CC-PVDZ-JKFIT
  @DF-RHF Final Energy:  -422.77143068415558
    Total Energy =                       -422.7714306841555754
  //            Monomer B HF           //
    Molecular point group: c1

    Geometry (in Angstrom), charge = 0, multiplicity = 1:

       Center              X                  Y                   Z               Mass
    ------------   -----------------  -----------------  -----------------  -----------------
      Gh(B)          -0.000046449334     0.000336519434     6.545150723887    11.009305360000
      Gh(F)          -1.153597449334     0.000047519434     7.360797723887    18.998403162730
      Gh(F)           1.153660550666    -0.000581480566     7.360797723887    18.998403162730
      Gh(F)          -0.000019449334    -1.153637480566     5.729516723887    18.998403162730
      Gh(F)          -0.000019449334     1.153977519434     5.729516723887    18.998403162730
         C            1.225311925931     0.707538180353    -0.848705648829    12.000000000000
         C            1.225323886559    -0.707539003137    -0.861036458400    12.000000000000
         C           -0.000006123424     1.414965805524    -0.861570081920    12.000000000000
         C            2.456448784457     1.418327778612    -0.845818791429    12.000000000000
         C            0.000010857787    -1.414976607201    -0.851370524596    12.000000000000
         C           -1.225300918401     0.707545265418    -0.846454128507    12.000000000000
         C            2.456437785828    -1.418323412447    -0.863281615257    12.000000000000
         C           -0.000001302470     2.836800922715    -0.863973632054    12.000000000000
         C            3.681826727978     0.709317847435    -0.862932825459    12.000000000000
         C            2.455120079373     2.834223552923    -0.863035382419    12.000000000000
         C            3.681821135726    -0.709333947995    -0.846860341440    12.000000000000
         C           -1.225313568180    -0.707527624110    -0.859963696973    12.000000000000
         C            1.226699611710     3.543469375428    -0.846676309510    12.000000000000
         C            0.000004815365    -2.836782247802    -0.846522356974    12.000000000000
         C           -2.456436002341     1.418316809719    -0.846418732661    12.000000000000
         C            2.455123448287    -2.834230137155    -0.847012249808    12.000000000000
         C           -1.226714334082     3.543468955184    -0.846572976290    12.000000000000
         C            4.914517325709     1.427172763923    -0.856452142429    12.000000000000
         C            3.693150221984     3.542795183979    -0.856402342793    12.000000000000
         C           -2.456437569560    -1.418313389406    -0.863306653381    12.000000000000
         C            1.226704872451    -3.543474350473    -0.862646440259    12.000000000000
         C           -2.455125368000     2.834216554068    -0.863029006073    12.000000000000
         C            4.914524411290    -1.427187018510    -0.853479399695    12.000000000000
         C            1.221424644206     4.970133956694    -0.853340965435    12.000000000000
         C            4.893008259828     2.825187891460    -0.855235474070    12.000000000000
         C           -1.226696977981    -3.543471105643    -0.862379235850    12.000000000000
         C           -3.681818946018     0.709324858166    -0.862920144979    12.000000000000
         C            3.693147131658    -3.542801449957    -0.853361509134    12.000000000000
         C           -1.221432221486     4.970128189296    -0.853157470062    12.000000000000
         C            6.134771003434     0.680547838539    -0.855682367879    12.000000000000
         C            3.656788911118     4.972953135001    -0.855493705010    12.000000000000
         C           -2.455126877226    -2.834215201627    -0.847256607606    12.000000000000
         C           -3.681819148553    -0.709325812035    -0.846742719862    12.000000000000
         C            4.893012648421    -2.825200214198    -0.854624322175    12.000000000000
         C           -0.000001042605     5.650447257466    -0.854388778769    12.000000000000
         C            6.134775142840    -0.680554962641    -0.854417047364    12.000000000000
         C            2.478131513363     5.653576642765    -0.854204925360    12.000000000000
         C            1.221422435245    -4.970127163499    -0.856140462458    12.000000000000
         C           -3.693162353457     3.542796845626    -0.856236835334    12.000000000000
         C           -1.221428490437    -4.970118412162    -0.856253224290    12.000000000000
         C           -4.914521777434     1.427175338429    -0.856375197422    12.000000000000
         C            3.656787050187    -4.972955334806    -0.854043204476    12.000000000000
         C           -2.478138499598     5.653574313962    -0.853920400352    12.000000000000
         C           -3.693141708056    -3.542790327545    -0.853477635290    12.000000000000
         C           -4.914512452545    -1.427181108594    -0.853444702521    12.000000000000
         C           -0.000005978418    -5.650438395580    -0.854784282890    12.000000000000
         C           -4.893020453593     2.825188490353    -0.855245555931    12.000000000000
         C            2.478126023806    -5.653573652455    -0.855133805269    12.000000000000
         C           -3.656798679750     4.972956073475    -0.855317024636    12.000000000000
         C           -4.892999448349    -2.825191875626    -0.854778357873    12.000000000000
         C           -2.478128467575    -5.653566278573    -0.855408992916    12.000000000000
         C           -6.134770472823     0.680548657690    -0.855707919582    12.000000000000
         C           -3.656788802681    -4.972944131537    -0.854257492293    12.000000000000
         C           -6.134765012405    -0.680554024048    -0.854437523159    12.000000000000
         H            5.835288526324     3.369275786388    -0.850876148408     1.007825032230
         H            7.073859203255     1.228217140333    -0.855220724486     1.007825032230
         H            4.600663294682     5.512380693887    -0.854988504258     1.007825032230
         H            5.835283417813    -3.369306165295    -0.859078789489     1.007825032230
         H           -0.000012120798     6.738530565570    -0.858738023777     1.007825032230
         H            7.073861202338    -1.228227051310    -0.854925785458     1.007825032230
         H            2.473313762307     6.740684182828    -0.854671646291     1.007825032230
         H            4.600668521889    -5.512376237742    -0.854453201645     1.007825032230
         H           -2.473318650030     6.740681611040    -0.854370299666     1.007825032230
         H           -0.000010237720    -6.738528285018    -0.850254597906     1.007825032230
         H           -5.835301883836     3.369270841730    -0.850740126259     1.007825032230
         H            2.473307954339    -6.740685482995    -0.854563474844     1.007825032230
         H           -4.600674810700     5.512377918037    -0.854823175935     1.007825032230
         H           -5.835279476327    -3.369289072346    -0.859358095370     1.007825032230
         H           -2.473300316932    -6.740679186706    -0.855012791388     1.007825032230
         H           -7.073857736260     1.228220364274    -0.855304715967     1.007825032230
         H           -4.600673755577    -5.512362778353    -0.854625509667     1.007825032230
         H           -7.073856903901    -1.228220740543    -0.855020641924     1.007825032230

  Charge       = 0
  Multiplicity = 1
  Basis Set: JUN-CC-PVDZ
    Blend: JUN-CC-PVDZ
  Basis Set: (JUN-CC-PVDZ AUX)
    Blend: JUN-CC-PVDZ-JKFIT

    Orbital Energies [Eh]
    ---------------------

    Doubly Occupied:

       1A    -11.260678     2A    -11.260235     3A    -11.260233
       4A    -11.259523     5A    -11.259522     6A    -11.259353
       7A    -11.259143     8A    -11.259066     9A    -11.259064
      10A    -11.258740    11A    -11.258736    12A    -11.258667
      13A    -11.258605    14A    -11.258599    15A    -11.258597
      16A    -11.258568    17A    -11.258562    18A    -11.258545
      19A    -11.258533    20A    -11.258527    21A    -11.258522
      22A    -11.258424    23A    -11.258421    24A    -11.258123
      25A    -11.257462    26A    -11.257400    27A    -11.257399
      28A    -11.257265    29A    -11.257264    30A    -11.257180
      31A    -11.256557    32A    -11.256487    33A    -11.256486
      34A    -11.256377    35A    -11.256376    36A    -11.256329
      37A    -11.252402    38A    -11.252402    39A    -11.252400
      40A    -11.252399    41A    -11.252397    42A    -11.252395
      43A    -11.251537    44A    -11.251534    45A    -11.251533
      46A    -11.251528    47A    -11.251527    48A    -11.251523
      49A    -11.250964    50A    -11.250963    51A    -11.250962
      52A    -11.250960    53A    -11.250958    54A    -11.250957
      55A     -1.244301    56A     -1.220018    57A     -1.220018
      58A     -1.189726    59A     -1.189719    60A     -1.181170
      61A     -1.157726    62A     -1.149158    63A     -1.135710
      64A     -1.135702    65A     -1.113359    66A     -1.113355
      67A     -1.082633    68A     -1.082626    69A     -1.078816
      70A     -1.066143    71A     -1.066139    72A     -1.039583
      73A     -1.024494    74A     -1.021998    75A     -1.021955
      76A     -1.017892    77A     -1.012953    78A     -0.987225
      79A     -0.987179    80A     -0.962053    81A     -0.962004
      82A     -0.894472    83A     -0.894446    84A     -0.888170
      85A     -0.886417    86A     -0.886359    87A     -0.881605
      88A     -0.881557    89A     -0.862078    90A     -0.837555
      91A     -0.818395    92A     -0.816836    93A     -0.812344
      94A     -0.812335    95A     -0.794859    96A     -0.794848
      97A     -0.746843    98A     -0.745070    99A     -0.733637
     100A     -0.733628   101A     -0.732357   102A     -0.732334
     103A     -0.716705   104A     -0.699154   105A     -0.699143
     106A     -0.693780   107A     -0.693765   108A     -0.661404
     109A     -0.653338   110A     -0.651384   111A     -0.650421
     112A     -0.650416   113A     -0.639533   114A     -0.639531
     115A     -0.629918   116A     -0.627730   117A     -0.627714
     118A     -0.606462   119A     -0.605938   120A     -0.601871
     121A     -0.599924   122A     -0.599893   123A     -0.593828
     124A     -0.591459   125A     -0.591448   126A     -0.585423
     127A     -0.576420   128A     -0.576415   129A     -0.567482
     130A     -0.567468   131A     -0.566170   132A     -0.566151
     133A     -0.558946   134A     -0.555027   135A     -0.555021
     136A     -0.538764   137A     -0.538762   138A     -0.538292
     139A     -0.538285   140A     -0.529900   141A     -0.528208
     142A     -0.523055   143A     -0.523049   144A     -0.500673
     145A     -0.495722   146A     -0.493411   147A     -0.487951
     148A     -0.485271   149A     -0.481952   150A     -0.481944
     151A     -0.470441   152A     -0.470422   153A     -0.451257
     154A     -0.451178   155A     -0.439192   156A     -0.439183
     157A     -0.404872   158A     -0.404850   159A     -0.403494
     160A     -0.375546   161A     -0.375544   162A     -0.349251
     163A     -0.337719   164A     -0.336687   165A     -0.336629
     166A     -0.311227   167A     -0.298214   168A     -0.284484
     169A     -0.284430   170A     -0.225052   171A     -0.224986

  @DF-RHF Final Energy: -2055.89163966403885

   => Energetics <=

    Nuclear Repulsion Energy =           6452.5568002797781446
    One-Electron Energy =              -15636.4250526563428139
    Two-Electron Energy =                7127.9766127125249113
    Total Energy =                      -2055.8916396640388484
 Dipole X            :          0.0000818            0.0000112            0.0000930
 Dipole Y            :          0.0000276           -0.0000531           -0.0000256
 Dipole Z            :        552.4741642         -552.4749708           -0.0008066
 Magnitude           :                                                    0.0008123

    SAPT Results
  --------------------------------------------------------------------------------------------------------
    Electrostatics                  6.87887873 [mEh]       4.31656157 [kcal/mol]      18.06049361 [kJ/mol]
      Elst10,r                      6.87887873 [mEh]       4.31656157 [kcal/mol]      18.06049361 [kJ/mol]

    Exchange                       -0.00014379 [mEh]      -0.00009023 [kcal/mol]      -0.00037753 [kJ/mol]
      Exch10                       -0.00014379 [mEh]      -0.00009023 [kcal/mol]      -0.00037753 [kJ/mol]
      Exch10(S^2)                  -0.00014379 [mEh]      -0.00009023 [kcal/mol]      -0.00037753 [kJ/mol]

    Induction                      -1.94941139 [mEh]      -1.22327412 [kcal/mol]      -5.11817891 [kJ/mol]
      Ind20,r                      -1.96101778 [mEh]      -1.23055724 [kcal/mol]      -5.14865148 [kJ/mol]
      Exch-Ind20,r                  0.00006005 [mEh]       0.00003768 [kcal/mol]       0.00015766 [kJ/mol]
      delta HF,r (2)                0.01154634 [mEh]       0.00724544 [kcal/mol]       0.03031492 [kJ/mol]

    Dispersion                     -0.29786178 [mEh]      -0.18691109 [kcal/mol]      -0.78203600 [kJ/mol]
      Disp20                       -0.29790441 [mEh]      -0.18693784 [kcal/mol]      -0.78214793 [kJ/mol]
      Exch-Disp20                   0.00004263 [mEh]       0.00002675 [kcal/mol]       0.00011193 [kJ/mol]
      Disp20 (SS)                  -0.14895221 [mEh]      -0.09346892 [kcal/mol]      -0.39107396 [kJ/mol]
      Disp20 (OS)                  -0.14895221 [mEh]      -0.09346892 [kcal/mol]      -0.39107396 [kJ/mol]
      Exch-Disp20 (SS)              0.00003305 [mEh]       0.00002074 [kcal/mol]       0.00008678 [kJ/mol]
      Exch-Disp20 (OS)              0.00000958 [mEh]       0.00000601 [kcal/mol]       0.00002515 [kJ/mol]

  Total HF                          4.92932354 [mEh]       3.09319722 [kcal/mol]      12.94193718 [kJ/mol]
  Total SAPT0                       4.63146176 [mEh]       2.90628613 [kcal/mol]      12.15990118 [kJ/mol]

  Special recipe for scaled SAPT0 (see Manual):
    Electrostatics sSAPT0           6.87887873 [mEh]       4.31656157 [kcal/mol]      18.06049361 [kJ/mol]
    Exchange sSAPT0                -0.00014379 [mEh]      -0.00009023 [kcal/mol]      -0.00037753 [kJ/mol]
    Induction sSAPT0               -1.94941139 [mEh]      -1.22327412 [kcal/mol]      -5.11817891 [kJ/mol]
    Dispersion sSAPT0              -0.29786178 [mEh]      -0.18691109 [kcal/mol]      -0.78203600 [kJ/mol]
  Total sSAPT0                      4.63146176 [mEh]       2.90628613 [kcal/mol]      12.15990118 [kJ/mol]
  --------------------------------------------------------------------------------------------------------

*** Psi4 exiting successfully. Buy a developer a beer!
