                               Psi4 1.9 release

  ==> Input File <==

--------------------------------------------------------------------------
memory 64 GB # how much memory is available ! Depends on the nodes/cores !

molecule dimer {
# monomer A
+1 1    # Charge and multiplicity
C  0.680067 1.417258 -5.215929
C -0.680504 1.419286 -5.215545
N -1.085635 1.420284 -3.897221
C  0.000108 1.423560 -3.115820
C -2.477365 1.469690 -3.429242
N  1.085222 1.420284 -3.897221
H  1.385146 1.409430 -6.033368
H -1.385302 1.419096 -6.033214
H -0.000009 1.425307 -2.034731
C  2.478117 1.403392 -3.432123
H  2.490592 1.430737 -2.341870
H  2.967028 0.489946 -3.779299
H  3.001428 2.278875 -3.823595
H -2.857359 2.491761 -3.509201
H -3.082679 0.799606 -4.042306
H -2.518128 1.142706 -2.389294
--
# monomer B
0 1     # Charge and multiplicity
C   -3.66844126402057      7.80375217008252      0.00190004133558
C   -4.84759871934653      7.13124183134024     -0.00046653359696
C   -4.89495929917518      5.69633040353158     -0.00103944469517
C   -3.65374067877320      4.98073034095895      0.00662099703436
C   -2.40942512149445      7.11398103667468      0.00209438359570
C   -2.42547734410473      5.68112195090346     -0.00491050527438
C   -1.19474401643570      7.78614419430947      0.00356656413763
C   0.03795902893699      7.09942164575698      0.00139585983271
C   0.03033258741920      5.66948955970466     -0.00408752508301
C   -1.20098450790502      4.96927034791531      0.00488220885047
C   1.27795782581485      7.77285944319479      0.00277170839332
C   2.48535808472416      7.08769688523756      0.00049722048857
C   2.48612868491717      5.65477081024076     -0.00644052849921
C   1.25408291964399      4.95607811366431      0.00518741308898
C   3.75171459140595      7.76391215098033      0.00062407186893
C   4.92356605618520      7.07878077698995     -0.00143240883900
C   4.95560727132542      5.64344746336949     -0.00159282164606
C   3.70680153420475      4.94121020833308      0.00349873852374
H   -3.65852113775815      8.89082741913536      0.00358502958574
H   -1.18921332975660      8.87412108735996      0.00753844057883
H   1.28429423888630      8.86083343548850      0.00693053253426
H   3.75354208679975      8.85103527897216      0.00214659618464
H   5.86995870320703      7.61379483465560     -0.00235777588134
H   -5.78823170750226      7.67630221293400     -0.00202638095293
C   -6.09197395869619      4.99326001364347     -0.00291168518608
C   -6.12866148031747      3.58258016879823     -0.00171050815740
C   -3.66457974004527      3.56418217974434     -0.00463560277484
C   -4.89429820469869      2.86108077590057      0.00453338221034
C   -2.43733499489796      2.84761165708481      0.00719617576166
C   -1.20922785759670      3.54788693497833     -0.00648285103018
C   1.24714157216223      3.53468075142962     -0.00729145743546
C   0.01517603956900      2.83311183930540      0.00439272578912
C   2.46764517244071      2.82128997725533      0.00449278391269
C   3.70254947457969      3.52466015442405     -0.00899517692985
C   6.14498038638375      4.92757236613191     -0.00282626685777
C   6.16658835886151      3.51658447594213     -0.00065971342101
C   4.92460995845939      2.80840792535402      0.00587903281610
H   7.08990550964105      5.46688776622306     -0.00658814770723
H   -7.03104175110130      5.54268795285765     -0.00714490013730
C   -7.33969804112295      2.85841153457957     -0.00333767559888
C   -7.36488195805880      1.47032337158330     -0.00157213747140
C   -4.90350460894690      1.44442681216000     -0.00628840166334
C   -6.13225715261081      0.73993935705394      0.00600164231964
C   -3.67687480051673      0.72669714267312      0.00433931473643
C   -2.44565658606518      1.42964113326212     -0.00597039546461
C   -1.22360068130162      0.71532450163492      0.00545886906656
C   0.00763786931376      1.41738314923765      0.00392452278437
C   1.23121980774686      0.70211669058719     -0.01490206287210
C   2.46082110053113      1.40329203612573      0.00460244601878
C   3.68443025419614      0.68719842821222      0.00377365974158
C   4.91870890153864      1.39173456118907     -0.00862816189375
C   7.36980207796101      2.77948220318441     -0.00242013321349
C   7.38016266612146      1.39121750785509     -0.00087345036788
C   6.13979953912259      0.67411862320065      0.00545489144369
H   -8.27919079934664      3.40711804112415     -0.00763522772059
H   8.31511347147953      3.31811809662368     -0.00663070901292
C   -8.59175593758115      0.72483255304480     -0.00123170985383
C   -8.59902460370342     -0.63263980622873      0.00089141472904
C   -6.13981313911873     -0.67413663715361     -0.00609792660607
C   -7.38018411213749     -1.39126618958160      0.00131813493501
C   -4.91868448025621     -1.39175501803000      0.00624257154343
C   -3.68443829568458     -0.68723731573599     -0.00478966852105
C   -2.46081704024768     -1.40334517882457      0.00575341766833
C   -1.23116201232071     -0.70217386488055     -0.00636696112346
C   -0.00756962538737     -1.41741884941102      0.00108956317991
C   1.22364771588843     -0.71527537726392      0.01109518512883
C   2.44567064933149     -1.42964328900682     -0.00065482763106
C   3.67686670284649     -0.72670743155550     -0.00479541202602
C   6.13224884641929     -0.73997883984993     -0.00632338623858
C   4.90351914550401     -1.44445752054090      0.00751768830159
C   8.59901484869081      0.63260386666793     -0.00101133422380
C   8.59174548810050     -0.72485086719319      0.00072504603735
C   7.36486276438985     -1.47033266560598      0.00049486934466
H   -9.52830597181814      1.27684744919284     -0.00270163681798
H   9.54141097460619      1.17457248844457     -0.00206336648518
C   -7.36983790976868     -2.77954514593389      0.00312634335708
C   -4.92459910905015     -2.80843725734101     -0.00460528907921
C   -6.16662249566744     -3.51665219282533      0.00169655107992
C   -3.70251035970491     -3.52468154912026      0.00571878010666
C   -2.46764698511392     -2.82132596280400     -0.00632585824990
C   -0.01513347410770     -2.83314164539971     -0.00604426974092
C   -1.24712184122656     -3.53473217556300      0.00551968366725
C   1.20924506964357     -3.54791467864352      0.00805871345849
C   2.43733602215464     -2.84764173817541     -0.00608104485234
C   4.89430234377080     -2.86112296828604     -0.00526030478103
C   3.66461525504104     -3.56421984553201      0.00761911515957
C   6.12863901474565     -3.58258405771778      0.00096495711699
C   7.33967266469532     -2.85841330737039      0.00248018319869
H   -9.54144911125902     -1.17456346666430      0.00226083090216
H   9.52826186807155     -1.27691907390448      0.00197485379837
H   -8.31516504384864     -3.31814985321231      0.00729857188773
H   8.27915514249207     -3.40714078989363      0.00681973918158
C   -6.14499418870218     -4.92764727278338      0.00302254913999
C   -3.70678334799751     -4.94126171411716     -0.00679841894792
C   -4.95559005800169     -5.64349397349412      0.00116871569699
C   -2.48612132622665     -5.65478557440947      0.00614125209662
C   -1.25405833548005     -4.95612205000132     -0.00503435388927
C   1.20101257386816     -4.96928038819302     -0.00385322963129
C   -0.03033667441341     -5.66952030313900      0.00398997003238
C   3.65375010132847     -4.98074377541453     -0.00309522988330
C   2.42549269587528     -5.68117463552727      0.00628170066869
C   6.09196561781097     -4.99325796338655      0.00325918379042
C   4.89497644461045     -5.69634842095790      0.00202298796027
H   -7.08989238804069     -5.46699984223871      0.00742531082125
H   7.03105520920009     -5.54265853633254      0.00683896355417
C   -4.92354532219813     -7.07882109967734      0.00061394679214
C   -2.48534208823777     -7.08772807792913     -0.00189594564379
C   -3.75168589177895     -7.76394715763627     -0.00170126671874
C   -0.03794895698805     -7.09946487446944     -0.00168022049625
C   -1.27795610040136     -7.77290438466689     -0.00366491325785
C   2.40944432072629     -7.11402201200282     -0.00081701968533
C   1.19474993715296     -7.78618536556242     -0.00296931056689
C   4.84762105249800     -7.13126211057943      0.00168979497423
C   3.66847160587561     -7.80378799294376     -0.00065863938960
H   -5.86994035041618     -7.61383059804164      0.00215798365757
H   5.78824962538815     -7.67633218931421      0.00281691445618
H   -3.75352693944918     -8.85107156923607     -0.00353718114765
H   -1.28430440589466     -8.86087539249706     -0.00809229711623
H   1.18922157469537     -8.87416062058945     -0.00706194725726
H   3.65854661482387     -8.89086063405326     -0.00231318081200

    units angstrom      # Angstroms are the default
    no_reorient         # Geometry fixed, default
    symmetry c1         # C1 symmetry, default
}

set {
    scf_type DF         # Density fitting, faster than exact integrals
    freeze_core True    # Freeze core electrons
    basis jun-cc-pVDZ   # Jun-cc-pVDZ basis set, recommended for sSAPT0 in https://doi.org/10.1063/1.4867135
}

energy('ssapt0')        # Compute sSAPT0 energy, includes also SAPT0
--------------------------------------------------------------------------

  //              Dimer HF             //
    Molecular point group: c1
  Charge       = 1
  Multiplicity = 1
  Basis Set: JUN-CC-PVDZ
    Blend: JUN-CC-PVDZ
  Basis Set: (JUN-CC-PVDZ AUX)
    Blend: JUN-CC-PVDZ-JKFIT
  @DF-RHF Final Energy: -3953.64861195917820
    Total Energy =                      -3953.6486119591791066
 Dipole X            :         -0.0075658            0.0004804           -0.0070854
 Dipole Y            :         -7.3818741            8.7122315            1.3303574
 Dipole Z            :         17.8548551          -22.4066341           -4.5517790
 Magnitude           :                                                    4.7422140
  //            Monomer A HF           //
    Molecular point group: c1
  Multiplicity = 1
  Basis Set: JUN-CC-PVDZ
    Blend: JUN-CC-PVDZ
  Basis Set: (JUN-CC-PVDZ AUX)
    Blend: JUN-CC-PVDZ-JKFIT
  @DF-RHF Final Energy:  -303.29865581912662
    Total Energy =                       -303.2986558191266226
  //            Monomer B HF           //
    Molecular point group: c1

    Geometry (in Angstrom), charge = 0, multiplicity = 1:

       Center              X                  Y                   Z               Mass
    ------------   -----------------  -----------------  -----------------  -----------------
      Gh(C)           0.680062820275     1.308604348936    -4.910965675448    12.000000000000
      Gh(C)          -0.680508179725     1.310632348936    -4.910581675448    12.000000000000
      Gh(N)          -1.085639179725     1.311630348936    -3.592257675448    14.003074004430
      Gh(C)           0.000103820275     1.314906348936    -2.810856675448    12.000000000000
      Gh(C)          -2.477369179725     1.361036348936    -3.124278675448    12.000000000000
      Gh(N)           1.085217820275     1.311630348936    -3.592257675448    14.003074004430
      Gh(H)           1.385141820275     1.300776348936    -5.728404675448     1.007825032230
      Gh(H)          -1.385306179725     1.310442348936    -5.728250675448     1.007825032230
      Gh(H)          -0.000013179725     1.316653348936    -1.729767675448     1.007825032230
      Gh(C)           2.478112820275     1.294738348936    -3.127159675448    12.000000000000
      Gh(H)           2.490587820275     1.322083348936    -2.036906675448     1.007825032230
      Gh(H)           2.967023820275     0.381292348936    -3.474335675448     1.007825032230
      Gh(H)           3.001423820275     2.170221348936    -3.518631675448     1.007825032230
      Gh(H)          -2.857363179725     2.383107348936    -3.204237675448     1.007825032230
      Gh(H)          -3.082683179725     0.690952348936    -3.737342675448     1.007825032230
      Gh(H)          -2.518132179725     1.034052348936    -2.084330675448     1.007825032230
         C           -3.668445443746     7.695098519018     0.306863365888    12.000000000000
         C           -4.847602899072     7.022588180276     0.304496790955    12.000000000000
         C           -4.894963478901     5.587676752467     0.303923879857    12.000000000000
         C           -3.653744858499     4.872076689895     0.311584321587    12.000000000000
         C           -2.409429301220     7.005327385610     0.307057708148    12.000000000000
         C           -2.425481523830     5.572468299839     0.300052819278    12.000000000000
         C           -1.194748196161     7.677490543245     0.308529888690    12.000000000000
         C            0.037954849212     6.990767994693     0.306359184385    12.000000000000
         C            0.030328407694     5.560835908640     0.300875799469    12.000000000000
         C           -1.200988687630     4.860616696851     0.309845533403    12.000000000000
         C            1.277953646089     7.664205792130     0.307735032946    12.000000000000
         C            2.485353904999     6.979043234173     0.305460545041    12.000000000000
         C            2.486124505192     5.546117159176     0.298522796053    12.000000000000
         C            1.254078739919     4.847424462600     0.310150737641    12.000000000000
         C            3.751710411681     7.655258499916     0.305587396421    12.000000000000
         C            4.923561876460     6.970127125926     0.303530915713    12.000000000000
         C            4.955603091600     5.534793812305     0.303370502906    12.000000000000
         C            3.706797354479     4.832556557269     0.308462063076    12.000000000000
         H           -3.658525317484     8.782173768071     0.308548354138     1.007825032230
         H           -1.189217509482     8.765467436296     0.312501765131     1.007825032230
         H            1.284290059161     8.752179784424     0.311893857087     1.007825032230
         H            3.753537907074     8.742381627908     0.307109920737     1.007825032230
         H            5.869954523482     7.505141183591     0.302605548671     1.007825032230
         H           -5.788235887228     7.567648561870     0.302936943599     1.007825032230
         C           -6.091978138422     4.884606362579     0.302051639366    12.000000000000
         C           -6.128665660043     3.473926517734     0.303252816395    12.000000000000
         C           -3.664583919771     3.455528528680     0.300327721777    12.000000000000
         C           -4.894302384424     2.752427124836     0.309496706763    12.000000000000
         C           -2.437339174623     2.738958006020     0.312159500314    12.000000000000
         C           -1.209232037322     3.439233283914     0.298480473522    12.000000000000
         C            1.247137392437     3.426027100365     0.297671867117    12.000000000000
         C            0.015171859844     2.724458188241     0.309356050341    12.000000000000
         C            2.467640992715     2.712636326191     0.309456108465    12.000000000000
         C            3.702545294854     3.416006503360     0.295968147622    12.000000000000
         C            6.144976206658     4.818918715067     0.302137057694    12.000000000000
         C            6.166584179136     3.407930824878     0.304303611131    12.000000000000
         C            4.924605778734     2.699754274290     0.310842357368    12.000000000000
         H            7.089901329916     5.358234115159     0.298375176845     1.007825032230
         H           -7.031045930827     5.434034301793     0.297818424415     1.007825032230
         C           -7.339702220848     2.749757883515     0.301625648953    12.000000000000
         C           -7.364886137784     1.361669720519     0.303391187081    12.000000000000
         C           -4.903508788672     1.335773161096     0.298674922889    12.000000000000
         C           -6.132261332336     0.631285705989     0.310964966872    12.000000000000
         C           -3.676878980242     0.618043491609     0.309302639289    12.000000000000
         C           -2.445660765791     1.320987482198     0.298992929088    12.000000000000
         C           -1.223604861027     0.606670850570     0.310422193619    12.000000000000
         C            0.007633689588     1.308729498173     0.308887847337    12.000000000000
         C            1.231215628021     0.593463039523     0.290061261680    12.000000000000
         C            2.460816920806     1.294638385061     0.309565770571    12.000000000000
         C            3.684426074471     0.578544777148     0.308736984294    12.000000000000
         C            4.918704721813     1.283080910125     0.296335162659    12.000000000000
         C            7.369797898236     2.670828552120     0.302543191339    12.000000000000
         C            7.380158486396     1.282563856791     0.304089874184    12.000000000000
         C            6.139795359397     0.565464972136     0.310418215996    12.000000000000
         H           -8.279194979072     3.298464390060     0.297328096832     1.007825032230
         H            8.315109291754     3.209464445559     0.298332615539     1.007825032230
         C           -8.591760117307     0.616178901980     0.303731614698    12.000000000000
         C           -8.599028783429    -0.741293457293     0.305854739281    12.000000000000
         C           -6.139817318844    -0.782790288218     0.298865397946    12.000000000000
         C           -7.380188291863    -1.499919840646     0.306281459487    12.000000000000
         C           -4.918688659982    -1.500408669094     0.311205896096    12.000000000000
         C           -3.684442475410    -0.795890966800     0.300173656031    12.000000000000
         C           -2.460821219973    -1.511998829889     0.310716742221    12.000000000000
         C           -1.231166192046    -0.810827515945     0.298596363429    12.000000000000
         C           -0.007573805113    -1.526072500475     0.306052887732    12.000000000000
         C            1.223643536163    -0.823929028328     0.316058509681    12.000000000000
         C            2.445666469606    -1.538296940071     0.304308496921    12.000000000000
         C            3.676862523121    -0.835361082620     0.300167912526    12.000000000000
         C            6.132244666694    -0.848632490914     0.298639938314    12.000000000000
         C            4.903514965779    -1.553111171605     0.312481012854    12.000000000000
         C            8.599010668965     0.523950215603     0.303951990328    12.000000000000
         C            8.591741308375    -0.833504518258     0.305688370590    12.000000000000
         C            7.364858584664    -1.578986316670     0.305458193897    12.000000000000
         H           -9.528310151544     1.168193798128     0.302261687734     1.007825032230
         H            9.541406794881     1.065918837380     0.302899958067     1.007825032230
         C           -7.369842089494    -2.888198796998     0.308089667909    12.000000000000
         C           -4.924603288776    -2.917090908405     0.300358035473    12.000000000000
         C           -6.166626675393    -3.625305843890     0.306659875632    12.000000000000
         C           -3.702514539430    -3.633335200185     0.310682104659    12.000000000000
         C           -2.467651164839    -2.929979613868     0.298637466302    12.000000000000
         C           -0.015137653833    -2.941795296464     0.298919054811    12.000000000000
         C           -1.247126020952    -3.643385826627     0.310483008220    12.000000000000
         C            1.209240889918    -3.656568329708     0.313022038011    12.000000000000
         C            2.437331842429    -2.956295389240     0.298882279700    12.000000000000
         C            4.894298164045    -2.969776619350     0.299703019771    12.000000000000
         C            3.664611075316    -3.672873496596     0.312582439712    12.000000000000
         C            6.128634835020    -3.691237708782     0.305928281669    12.000000000000
         C            7.339668484970    -2.967066958435     0.307443507751    12.000000000000
         H           -9.541453290984    -1.283217117729     0.307224155454     1.007825032230
         H            9.528257688346    -1.385572724969     0.306938178351     1.007825032230
         H           -8.315169223574    -3.426803504277     0.312261896440     1.007825032230
         H            8.279150962767    -3.515794440958     0.311783063734     1.007825032230
         C           -6.144998368428    -5.036300923848     0.307985873692    12.000000000000
         C           -3.706787527723    -5.049915365182     0.298164905604    12.000000000000
         C           -4.955594237727    -5.752147624559     0.306132040249    12.000000000000
         C           -2.486125505952    -5.763439225474     0.311104576649    12.000000000000
         C           -1.254062515205    -5.064775701066     0.299928970663    12.000000000000
         C            1.201008394143    -5.077934039257     0.301110094921    12.000000000000
         C           -0.030340854139    -5.778173954203     0.308953294585    12.000000000000
         C            3.653745921603    -5.089397426479     0.301868094669    12.000000000000
         C            2.425488516150    -5.789828286592     0.311245025221    12.000000000000
         C            6.091961438086    -5.101911614451     0.308222508343    12.000000000000
         C            4.894972264885    -5.805002072022     0.306986312513    12.000000000000
         H           -7.089896567766    -5.575653493303     0.312388635374     1.007825032230
         H            7.031051029475    -5.651312187397     0.311802288106     1.007825032230
         C           -4.923549501924    -7.187474750742     0.305577271344    12.000000000000
         C           -2.485346267963    -7.196381728994     0.303067378908    12.000000000000
         C           -3.751690071504    -7.872600808701     0.303262057834    12.000000000000
         C           -0.037953136713    -7.208118525534     0.303283104056    12.000000000000
         C           -1.277960280127    -7.881558035731     0.301298411294    12.000000000000
         C            2.409440141001    -7.222675663067     0.304146304867    12.000000000000
         C            1.194745757428    -7.894839016627     0.301994013985    12.000000000000
         C            4.847616872773    -7.239915761644     0.306653119526    12.000000000000
         C            3.668467426150    -7.912441644008     0.304304685163    12.000000000000
         H           -5.869944530142    -7.722484249106     0.307121308210     1.007825032230
         H            5.788245445663    -7.784985840379     0.307780239008     1.007825032230
         H           -3.753531119175    -8.959725220301     0.301426143405     1.007825032230
         H           -1.284308585620    -8.969529043562     0.296871027436     1.007825032230
         H            1.189217394970    -8.982814271654     0.297901377295     1.007825032230
         H            3.658542435098    -8.999514285118     0.302650143740     1.007825032230

  Charge       = 0
  Multiplicity = 1
  Basis Set: JUN-CC-PVDZ
    Blend: JUN-CC-PVDZ
  Basis Set: (JUN-CC-PVDZ AUX)
    Blend: JUN-CC-PVDZ-JKFIT

    Orbital Energies [Eh]
    ---------------------

    Doubly Occupied:

       1A    -11.264063     2A    -11.263676     3A    -11.263645
       4A    -11.263343     5A    -11.263276     6A    -11.263241
       7A    -11.263081     8A    -11.263069     9A    -11.263050
      10A    -11.262867    11A    -11.262736    12A    -11.262706
      13A    -11.262258    14A    -11.262232    15A    -11.262187
      16A    -11.262165    17A    -11.262084    18A    -11.262073
      19A    -11.262033    20A    -11.261990    21A    -11.261970
      22A    -11.261875    23A    -11.261836    24A    -11.261699
      25A    -11.261692    26A    -11.261669    27A    -11.261662
      28A    -11.261616    29A    -11.261612    30A    -11.261531
      31A    -11.261516    32A    -11.261500    33A    -11.261480
      34A    -11.261470    35A    -11.261459    36A    -11.261449
      37A    -11.261283    38A    -11.261275    39A    -11.261257
      40A    -11.261251    41A    -11.261234    42A    -11.261230
      43A    -11.261222    44A    -11.261214    45A    -11.261207
      46A    -11.261195    47A    -11.261177    48A    -11.261163
      49A    -11.261020    50A    -11.260998    51A    -11.260989
      52A    -11.260926    53A    -11.260919    54A    -11.260836
      55A    -11.259867    56A    -11.259844    57A    -11.259827
      58A    -11.259814    59A    -11.259794    60A    -11.259765
      61A    -11.259239    62A    -11.259209    63A    -11.259203
      64A    -11.259155    65A    -11.259148    66A    -11.259115
      67A    -11.258867    68A    -11.258844    69A    -11.258825
      70A    -11.258814    71A    -11.258795    72A    -11.258767
      73A    -11.254488    74A    -11.254484    75A    -11.254460
      76A    -11.254455    77A    -11.254454    78A    -11.254448
      79A    -11.253617    80A    -11.253594    81A    -11.253592
      82A    -11.253569    83A    -11.253562    84A    -11.253553
      85A    -11.253533    86A    -11.253507    87A    -11.253506
      88A    -11.253484    89A    -11.253477    90A    -11.253469
      91A    -11.253016    92A    -11.253012    93A    -11.252988
      94A    -11.252982    95A    -11.252981    96A    -11.252976
      97A     -1.253815    98A     -1.238887    99A     -1.238867
     100A     -1.220357   101A     -1.220350   102A     -1.215319
     103A     -1.200944   104A     -1.195501   105A     -1.188031
     106A     -1.188015   107A     -1.173669   108A     -1.173668
     109A     -1.155513   110A     -1.155507   111A     -1.152596
     112A     -1.144631   113A     -1.144628   114A     -1.128456
     115A     -1.114598   116A     -1.113071   117A     -1.112371
     118A     -1.112345   119A     -1.111530   120A     -1.088321
     121A     -1.088304   122A     -1.076873   123A     -1.076871
     124A     -1.067505   125A     -1.067466   126A     -1.064851
     127A     -1.046695   128A     -1.046687   129A     -1.040372
     130A     -1.038648   131A     -1.038643   132A     -1.025121
     133A     -1.021255   134A     -1.021197   135A     -1.007078
     136A     -1.006693   137A     -1.003693   138A     -1.000376
     139A     -1.000322   140A     -0.990992   141A     -0.970877
     142A     -0.970825   143A     -0.955790   144A     -0.955732
     145A     -0.905468   146A     -0.905453   147A     -0.905420
     148A     -0.905419   149A     -0.904192   150A     -0.892230
     151A     -0.892172   152A     -0.890234   153A     -0.890184
     154A     -0.889330   155A     -0.872126   156A     -0.868981
     157A     -0.851437   158A     -0.847738   159A     -0.847724
     160A     -0.845471   161A     -0.842895   162A     -0.834454
     163A     -0.834438   164A     -0.828031   165A     -0.828024
     166A     -0.784447   167A     -0.784439   168A     -0.783542
     169A     -0.783532   170A     -0.782176   171A     -0.782152
     172A     -0.781903   173A     -0.766874   174A     -0.760662
     175A     -0.750453   176A     -0.733392   177A     -0.726965
     178A     -0.726934   179A     -0.724964   180A     -0.724431
     181A     -0.724401   182A     -0.718365   183A     -0.713646
     184A     -0.713641   185A     -0.699473   186A     -0.699454
     187A     -0.685997   188A     -0.685853   189A     -0.685847
     190A     -0.682061   191A     -0.682054   192A     -0.678668
     193A     -0.653523   194A     -0.650764   195A     -0.650732
     196A     -0.649681   197A     -0.649678   198A     -0.649463
     199A     -0.640810   200A     -0.640768   201A     -0.639977
     202A     -0.639059   203A     -0.635906   204A     -0.635872
     205A     -0.629024   206A     -0.617727   207A     -0.615205
     208A     -0.615182   209A     -0.608690   210A     -0.608683
     211A     -0.599145   212A     -0.599081   213A     -0.598629
     214A     -0.598473   215A     -0.598459   216A     -0.597911
     217A     -0.594964   218A     -0.594949   219A     -0.594611
     220A     -0.594090   221A     -0.591838   222A     -0.591836
     223A     -0.587257   224A     -0.577711   225A     -0.577694
     226A     -0.575669   227A     -0.575652   228A     -0.573268
     229A     -0.569545   230A     -0.568018   231A     -0.567992
     232A     -0.566636   233A     -0.566629   234A     -0.560826
     235A     -0.558603   236A     -0.558566   237A     -0.558336
     238A     -0.554252   239A     -0.550525   240A     -0.547387
     241A     -0.544227   242A     -0.534956   243A     -0.534955
     244A     -0.533427   245A     -0.533412   246A     -0.527974
     247A     -0.527956   248A     -0.527658   249A     -0.517045
     250A     -0.517017   251A     -0.515302   252A     -0.515292
     253A     -0.509536   254A     -0.509524   255A     -0.497908
     256A     -0.496339   257A     -0.496299   258A     -0.493738
     259A     -0.493716   260A     -0.489377   261A     -0.481345
     262A     -0.477353   263A     -0.477350   264A     -0.473882
     265A     -0.469305   266A     -0.466397   267A     -0.466396
     268A     -0.458741   269A     -0.446536   270A     -0.446482
     271A     -0.440960   272A     -0.440701   273A     -0.440675
     274A     -0.434619   275A     -0.433834   276A     -0.407320
     277A     -0.407274   278A     -0.386328   279A     -0.386281
     280A     -0.385658   281A     -0.385656   282A     -0.383675
     283A     -0.354242   284A     -0.354230   285A     -0.350579
     286A     -0.338005   287A     -0.335488   288A     -0.335430
     289A     -0.332636   290A     -0.332633   291A     -0.306985
     292A     -0.301855   293A     -0.301790   294A     -0.300762
     295A     -0.286078   296A     -0.256403   297A     -0.253389
     298A     -0.253347   299A     -0.204171   300A     -0.204081

  @DF-RHF Final Energy: -3650.34195179901508

   => Energetics <=

    Nuclear Repulsion Energy =          15611.4211649754306563
    One-Electron Energy =              -36072.2025604840600863
    Two-Electron Energy =               16810.4394437096161710
    Total Energy =                      -3650.3419517990150780
 Dipole X            :         -0.0004804            0.0002112           -0.0002692
 Dipole Y            :        123.2196218         -123.2131634            0.0064584
 Dipole Z            :       -345.7768867          345.7816889            0.0048022
 Magnitude           :                                                    0.0080526

    SAPT Results
  --------------------------------------------------------------------------------------------------------
    Electrostatics                -23.83629739 [mEh]     -14.95750243 [kcal/mol]     -62.58219019 [kJ/mol]
      Elst10,r                    -23.83629739 [mEh]     -14.95750243 [kcal/mol]     -62.58219019 [kJ/mol]

    Exchange                       43.55973400 [mEh]      27.33414576 [kcal/mol]     114.36606585 [kJ/mol]
      Exch10                       43.55973400 [mEh]      27.33414576 [kcal/mol]     114.36606585 [kJ/mol]
      Exch10(S^2)                  43.03777385 [mEh]      27.00661082 [kcal/mol]     112.99565969 [kJ/mol]

    Induction                     -27.72777764 [mEh]     -17.39944315 [kcal/mol]     -72.79927016 [kJ/mol]
      Ind20,r                     -32.60354308 [mEh]     -20.45903216 [kcal/mol]     -85.60059056 [kJ/mol]
      Exch-Ind20,r                 12.38470333 [mEh]       7.77151867 [kcal/mol]      32.51603410 [kJ/mol]
      delta HF,r (2)               -7.50893789 [mEh]      -4.71192966 [kcal/mol]     -19.71471371 [kJ/mol]

    Dispersion                    -33.24280508 [mEh]     -20.86017512 [kcal/mol]     -87.27897271 [kJ/mol]
      Disp20                      -36.26917362 [mEh]     -22.75925005 [kcal/mol]     -95.22470221 [kJ/mol]
      Exch-Disp20                   3.02636854 [mEh]       1.89907493 [kcal/mol]       7.94572950 [kJ/mol]
      Disp20 (SS)                 -18.13458681 [mEh]     -11.37962502 [kcal/mol]     -47.61235110 [kJ/mol]
      Disp20 (OS)                 -18.13458681 [mEh]     -11.37962502 [kcal/mol]     -47.61235110 [kJ/mol]
      Exch-Disp20 (SS)              1.86157417 [mEh]       1.16815543 [kcal/mol]       4.88756232 [kJ/mol]
      Exch-Disp20 (OS)              1.16479436 [mEh]       0.73091950 [kcal/mol]       3.05816718 [kJ/mol]

  Total HF                         -8.00434104 [mEh]      -5.02279983 [kcal/mol]     -21.01539450 [kJ/mol]
  Total SAPT0                     -41.24714612 [mEh]     -25.88297495 [kcal/mol]    -108.29436721 [kJ/mol]

  Special recipe for scaled SAPT0 (see Manual):
    Electrostatics sSAPT0         -23.83629739 [mEh]     -14.95750243 [kcal/mol]     -62.58219019 [kJ/mol]
    Exchange sSAPT0                43.55973400 [mEh]      27.33414576 [kcal/mol]     114.36606585 [kJ/mol]
    Induction sSAPT0              -27.27168731 [mEh]     -17.11324215 [kcal/mol]     -71.60180518 [kJ/mol]
    Dispersion sSAPT0             -33.13135329 [mEh]     -20.79023807 [kcal/mol]     -86.98635607 [kJ/mol]
  Total sSAPT0                    -40.67960400 [mEh]     -25.52683690 [kcal/mol]    -106.80428558 [kJ/mol]
  --------------------------------------------------------------------------------------------------------

*** Psi4 exiting successfully. Buy a developer a beer!
