                               Psi4 1.9 release

  ==> Input File <==

--------------------------------------------------------------------------
memory 64 GB # how much memory is available ! Depends on the nodes/cores !

molecule dimer {
# monomer A
+1 1    # Charge and multiplicity
C  0.680067 -1.215929 3.608042
C -0.680504 -1.215545 3.606014
N -1.085635  0.102779 3.605016
C  0.000108  0.884180 3.601740
C -2.477365  0.570758 3.555610
N  1.085222  0.102779 3.605016
H  1.385146 -2.033368 3.615870
H -1.385302 -2.033214 3.606204
H -0.000009  1.965269 3.599993
C  2.478117  0.567877 3.621908
H  2.490592  1.658130 3.594563
H  2.967028  0.220701 4.535354
H  3.001428  0.176405 2.746425
H -2.857359  0.490799 2.533539
H -3.082679 -0.042306 4.225694
H -2.518128  1.610706 3.882594
--
# monomer B
0 1     # Charge and multiplicity
C   -3.66844126402057      7.80375217008252      0.00190004133558
C   -4.84759871934653      7.13124183134024     -0.00046653359696
C   -4.89495929917518      5.69633040353158     -0.00103944469517
C   -3.65374067877320      4.98073034095895      0.00662099703436
C   -2.40942512149445      7.11398103667468      0.00209438359570
C   -2.42547734410473      5.68112195090346     -0.00491050527438
C   -1.19474401643570      7.78614419430947      0.00356656413763
C   0.03795902893699      7.09942164575698      0.00139585983271
C   0.03033258741920      5.66948955970466     -0.00408752508301
C   -1.20098450790502      4.96927034791531      0.00488220885047
C   1.27795782581485      7.77285944319479      0.00277170839332
C   2.48535808472416      7.08769688523756      0.00049722048857
C   2.48612868491717      5.65477081024076     -0.00644052849921
C   1.25408291964399      4.95607811366431      0.00518741308898
C   3.75171459140595      7.76391215098033      0.00062407186893
C   4.92356605618520      7.07878077698995     -0.00143240883900
C   4.95560727132542      5.64344746336949     -0.00159282164606
C   3.70680153420475      4.94121020833308      0.00349873852374
H   -3.65852113775815      8.89082741913536      0.00358502958574
H   -1.18921332975660      8.87412108735996      0.00753844057883
H   1.28429423888630      8.86083343548850      0.00693053253426
H   3.75354208679975      8.85103527897216      0.00214659618464
H   5.86995870320703      7.61379483465560     -0.00235777588134
H   -5.78823170750226      7.67630221293400     -0.00202638095293
C   -6.09197395869619      4.99326001364347     -0.00291168518608
C   -6.12866148031747      3.58258016879823     -0.00171050815740
C   -3.66457974004527      3.56418217974434     -0.00463560277484
C   -4.89429820469869      2.86108077590057      0.00453338221034
C   -2.43733499489796      2.84761165708481      0.00719617576166
C   -1.20922785759670      3.54788693497833     -0.00648285103018
C   1.24714157216223      3.53468075142962     -0.00729145743546
C   0.01517603956900      2.83311183930540      0.00439272578912
C   2.46764517244071      2.82128997725533      0.00449278391269
C   3.70254947457969      3.52466015442405     -0.00899517692985
C   6.14498038638375      4.92757236613191     -0.00282626685777
C   6.16658835886151      3.51658447594213     -0.00065971342101
C   4.92460995845939      2.80840792535402      0.00587903281610
H   7.08990550964105      5.46688776622306     -0.00658814770723
H   -7.03104175110130      5.54268795285765     -0.00714490013730
C   -7.33969804112295      2.85841153457957     -0.00333767559888
C   -7.36488195805880      1.47032337158330     -0.00157213747140
C   -4.90350460894690      1.44442681216000     -0.00628840166334
C   -6.13225715261081      0.73993935705394      0.00600164231964
C   -3.67687480051673      0.72669714267312      0.00433931473643
C   -2.44565658606518      1.42964113326212     -0.00597039546461
C   -1.22360068130162      0.71532450163492      0.00545886906656
C   0.00763786931376      1.41738314923765      0.00392452278437
C   1.23121980774686      0.70211669058719     -0.01490206287210
C   2.46082110053113      1.40329203612573      0.00460244601878
C   3.68443025419614      0.68719842821222      0.00377365974158
C   4.91870890153864      1.39173456118907     -0.00862816189375
C   7.36980207796101      2.77948220318441     -0.00242013321349
C   7.38016266612146      1.39121750785509     -0.00087345036788
C   6.13979953912259      0.67411862320065      0.00545489144369
H   -8.27919079934664      3.40711804112415     -0.00763522772059
H   8.31511347147953      3.31811809662368     -0.00663070901292
C   -8.59175593758115      0.72483255304480     -0.00123170985383
C   -8.59902460370342     -0.63263980622873      0.00089141472904
C   -6.13981313911873     -0.67413663715361     -0.00609792660607
C   -7.38018411213749     -1.39126618958160      0.00131813493501
C   -4.91868448025621     -1.39175501803000      0.00624257154343
C   -3.68443829568458     -0.68723731573599     -0.00478966852105
C   -2.46081704024768     -1.40334517882457      0.00575341766833
C   -1.23116201232071     -0.70217386488055     -0.00636696112346
C   -0.00756962538737     -1.41741884941102      0.00108956317991
C   1.22364771588843     -0.71527537726392      0.01109518512883
C   2.44567064933149     -1.42964328900682     -0.00065482763106
C   3.67686670284649     -0.72670743155550     -0.00479541202602
C   6.13224884641929     -0.73997883984993     -0.00632338623858
C   4.90351914550401     -1.44445752054090      0.00751768830159
C   8.59901484869081      0.63260386666793     -0.00101133422380
C   8.59174548810050     -0.72485086719319      0.00072504603735
C   7.36486276438985     -1.47033266560598      0.00049486934466
H   -9.52830597181814      1.27684744919284     -0.00270163681798
H   9.54141097460619      1.17457248844457     -0.00206336648518
C   -7.36983790976868     -2.77954514593389      0.00312634335708
C   -4.92459910905015     -2.80843725734101     -0.00460528907921
C   -6.16662249566744     -3.51665219282533      0.00169655107992
C   -3.70251035970491     -3.52468154912026      0.00571878010666
C   -2.46764698511392     -2.82132596280400     -0.00632585824990
C   -0.01513347410770     -2.83314164539971     -0.00604426974092
C   -1.24712184122656     -3.53473217556300      0.00551968366725
C   1.20924506964357     -3.54791467864352      0.00805871345849
C   2.43733602215464     -2.84764173817541     -0.00608104485234
C   4.89430234377080     -2.86112296828604     -0.00526030478103
C   3.66461525504104     -3.56421984553201      0.00761911515957
C   6.12863901474565     -3.58258405771778      0.00096495711699
C   7.33967266469532     -2.85841330737039      0.00248018319869
H   -9.54144911125902     -1.17456346666430      0.00226083090216
H   9.52826186807155     -1.27691907390448      0.00197485379837
H   -8.31516504384864     -3.31814985321231      0.00729857188773
H   8.27915514249207     -3.40714078989363      0.00681973918158
C   -6.14499418870218     -4.92764727278338      0.00302254913999
C   -3.70678334799751     -4.94126171411716     -0.00679841894792
C   -4.95559005800169     -5.64349397349412      0.00116871569699
C   -2.48612132622665     -5.65478557440947      0.00614125209662
C   -1.25405833548005     -4.95612205000132     -0.00503435388927
C   1.20101257386816     -4.96928038819302     -0.00385322963129
C   -0.03033667441341     -5.66952030313900      0.00398997003238
C   3.65375010132847     -4.98074377541453     -0.00309522988330
C   2.42549269587528     -5.68117463552727      0.00628170066869
C   6.09196561781097     -4.99325796338655      0.00325918379042
C   4.89497644461045     -5.69634842095790      0.00202298796027
H   -7.08989238804069     -5.46699984223871      0.00742531082125
H   7.03105520920009     -5.54265853633254      0.00683896355417
C   -4.92354532219813     -7.07882109967734      0.00061394679214
C   -2.48534208823777     -7.08772807792913     -0.00189594564379
C   -3.75168589177895     -7.76394715763627     -0.00170126671874
C   -0.03794895698805     -7.09946487446944     -0.00168022049625
C   -1.27795610040136     -7.77290438466689     -0.00366491325785
C   2.40944432072629     -7.11402201200282     -0.00081701968533
C   1.19474993715296     -7.78618536556242     -0.00296931056689
C   4.84762105249800     -7.13126211057943      0.00168979497423
C   3.66847160587561     -7.80378799294376     -0.00065863938960
H   -5.86994035041618     -7.61383059804164      0.00215798365757
H   5.78824962538815     -7.67633218931421      0.00281691445618
H   -3.75352693944918     -8.85107156923607     -0.00353718114765
H   -1.28430440589466     -8.86087539249706     -0.00809229711623
H   1.18922157469537     -8.87416062058945     -0.00706194725726
H   3.65854661482387     -8.89086063405326     -0.00231318081200

    units angstrom      # Angstroms are the default
    no_reorient         # Geometry fixed, default
    symmetry c1         # C1 symmetry, default
}

set {
    scf_type DF         # Density fitting, faster than exact integrals
    freeze_core True    # Freeze core electrons
    basis jun-cc-pVDZ   # Jun-cc-pVDZ basis set, recommended for sSAPT0 in https://doi.org/10.1063/1.4867135
}

energy('ssapt0')        # Compute sSAPT0 energy, includes also SAPT0
--------------------------------------------------------------------------

  //              Dimer HF             //
    Molecular point group: c1
  Charge       = 1
  Multiplicity = 1
  Basis Set: JUN-CC-PVDZ
    Blend: JUN-CC-PVDZ
  Basis Set: (JUN-CC-PVDZ AUX)
    Blend: JUN-CC-PVDZ-JKFIT
  @DF-RHF Final Energy: -3953.65939785225328
    Total Energy =                      -3953.6593978522541875
 Dipole X            :          0.0015711            0.0004804            0.0020515
 Dipole Y            :         -1.6242428            1.8866171            0.2623743
 Dipole Z            :        -17.2637729           21.8069972            4.5432243
 Magnitude           :                                                    4.5507946
  //            Monomer A HF           //
    Molecular point group: c1
  Multiplicity = 1
  Basis Set: JUN-CC-PVDZ
    Blend: JUN-CC-PVDZ
  Basis Set: (JUN-CC-PVDZ AUX)
    Blend: JUN-CC-PVDZ-JKFIT
  @DF-RHF Final Energy:  -303.29903361200547
    Total Energy =                       -303.2990336120054735
  //            Monomer B HF           //
    Molecular point group: c1

    Geometry (in Angstrom), charge = 0, multiplicity = 1:

       Center              X                  Y                   Z               Mass
    ------------   -----------------  -----------------  -----------------  -----------------
      Gh(C)           0.680062820275    -1.215917226251     3.333566696842    12.000000000000
      Gh(C)          -0.680508179725    -1.215533226251     3.331538696842    12.000000000000
      Gh(N)          -1.085639179725     0.102790773749     3.330540696842    14.003074004430
      Gh(C)           0.000103820275     0.884191773749     3.327264696842    12.000000000000
      Gh(C)          -2.477369179725     0.570769773749     3.281134696842    12.000000000000
      Gh(N)           1.085217820275     0.102790773749     3.330540696842    14.003074004430
      Gh(H)           1.385141820275    -2.033356226251     3.341394696842     1.007825032230
      Gh(H)          -1.385306179725    -2.033202226251     3.331728696842     1.007825032230
      Gh(H)          -0.000013179725     1.965280773749     3.325517696842     1.007825032230
      Gh(C)           2.478112820275     0.567888773749     3.347432696842    12.000000000000
      Gh(H)           2.490587820275     1.658141773750     3.320087696842     1.007825032230
      Gh(H)           2.967023820275     0.220712773749     4.260878696842     1.007825032230
      Gh(H)           3.001423820275     0.176416773749     2.471949696842     1.007825032230
      Gh(H)          -2.857363179725     0.490810773749     2.259063696842     1.007825032230
      Gh(H)          -3.082683179725    -0.042294226251     3.951218696842     1.007825032230
      Gh(H)          -2.518132179725     1.610717773749     3.608118696842     1.007825032230
         C           -3.668445443746     7.803763943832    -0.272575261822    12.000000000000
         C           -4.847602899072     7.131253605090    -0.274941836755    12.000000000000
         C           -4.894963478901     5.696342177281    -0.275514747853    12.000000000000
         C           -3.653744858499     4.980742114708    -0.267854306123    12.000000000000
         C           -2.409429301220     7.113992810424    -0.272380919562    12.000000000000
         C           -2.425481523830     5.681133724653    -0.279385808432    12.000000000000
         C           -1.194748196161     7.786155968059    -0.270908739020    12.000000000000
         C            0.037954849212     7.099433419506    -0.273079443325    12.000000000000
         C            0.030328407694     5.669501333454    -0.278562828241    12.000000000000
         C           -1.200988687630     4.969282121665    -0.269593094307    12.000000000000
         C            1.277953646089     7.772871216944    -0.271703594764    12.000000000000
         C            2.485353904999     7.087708658987    -0.273978082669    12.000000000000
         C            2.486124505192     5.654782583990    -0.280915831657    12.000000000000
         C            1.254078739919     4.956089887414    -0.269287890069    12.000000000000
         C            3.751710411681     7.763923924730    -0.273851231289    12.000000000000
         C            4.923561876460     7.078792550739    -0.275907711997    12.000000000000
         C            4.955603091600     5.643459237119    -0.276068124804    12.000000000000
         C            3.706797354479     4.941221982083    -0.270976564634    12.000000000000
         H           -3.658525317484     8.890839192885    -0.270890273572     1.007825032230
         H           -1.189217509482     8.874132861109    -0.266936862579     1.007825032230
         H            1.284290059161     8.860845209238    -0.267544770623     1.007825032230
         H            3.753537907074     8.851047052722    -0.272328706973     1.007825032230
         H            5.869954523482     7.613806608405    -0.276833079039     1.007825032230
         H           -5.788235887228     7.676313986684    -0.276501684110     1.007825032230
         C           -6.091978138422     4.993271787393    -0.277386988344    12.000000000000
         C           -6.128665660043     3.582591942548    -0.276185811315    12.000000000000
         C           -3.664583919771     3.564193953494    -0.279110905932    12.000000000000
         C           -4.894302384424     2.861092549650    -0.269941920947    12.000000000000
         C           -2.437339174623     2.847623430834    -0.267279127396    12.000000000000
         C           -1.209232037322     3.547898708728    -0.280958154188    12.000000000000
         C            1.247137392437     3.534692525179    -0.281766760593    12.000000000000
         C            0.015171859844     2.833123613055    -0.270082577368    12.000000000000
         C            2.467640992715     2.821301751005    -0.269982519245    12.000000000000
         C            3.702545294854     3.524671928174    -0.283470480087    12.000000000000
         C            6.144976206658     4.927584139881    -0.277301570015    12.000000000000
         C            6.166584179136     3.516596249692    -0.275135016579    12.000000000000
         C            4.924605778734     2.808419699104    -0.268596270341    12.000000000000
         H            7.089901329916     5.466899539973    -0.281063450865     1.007825032230
         H           -7.031045930827     5.542699726607    -0.281620203295     1.007825032230
         C           -7.339702220848     2.858423308329    -0.277812978756    12.000000000000
         C           -7.364886137784     1.470335145333    -0.276047440629    12.000000000000
         C           -4.903508788672     1.444438585909    -0.280763704821    12.000000000000
         C           -6.132261332336     0.739951130803    -0.268473660838    12.000000000000
         C           -3.676878980242     0.726708916423    -0.270135988421    12.000000000000
         C           -2.445660765791     1.429652907012    -0.280445698622    12.000000000000
         C           -1.223604861027     0.715336275384    -0.269016434091    12.000000000000
         C            0.007633689588     1.417394922987    -0.270550780373    12.000000000000
         C            1.231215628021     0.702128464337    -0.289377366030    12.000000000000
         C            2.460816920806     1.403303809875    -0.269872857139    12.000000000000
         C            3.684426074471     0.687210201962    -0.270701643416    12.000000000000
         C            4.918704721813     1.391746334939    -0.283103465051    12.000000000000
         C            7.369797898236     2.779493976934    -0.276895436371    12.000000000000
         C            7.380158486396     1.391229281605    -0.275348753525    12.000000000000
         C            6.139795359397     0.674130396950    -0.269020411714    12.000000000000
         H           -8.279194979072     3.407129814874    -0.282110530878     1.007825032230
         H            8.315109291754     3.318129870373    -0.281106012170     1.007825032230
         C           -8.591760117307     0.724844326794    -0.275707013011    12.000000000000
         C           -8.599028783429    -0.632628032479    -0.273583888429    12.000000000000
         C           -6.139817318844    -0.674124863404    -0.280573229764    12.000000000000
         C           -7.380188291863    -1.391254415832    -0.273157168223    12.000000000000
         C           -4.918688659982    -1.391743244281    -0.268232731614    12.000000000000
         C           -3.684442475410    -0.687225541986    -0.279264971679    12.000000000000
         C           -2.460821219973    -1.403333405075    -0.268721885489    12.000000000000
         C           -1.231166192046    -0.702162091131    -0.280842264281    12.000000000000
         C           -0.007573805113    -1.417407075662    -0.273385739978    12.000000000000
         C            1.223643536163    -0.715263603514    -0.263380118029    12.000000000000
         C            2.445666469606    -1.429631515257    -0.275130130789    12.000000000000
         C            3.676862523121    -0.726695657806    -0.279270715184    12.000000000000
         C            6.132244666694    -0.739967066100    -0.280798689396    12.000000000000
         C            4.903514965779    -1.444445746791    -0.266957614856    12.000000000000
         C            8.599010668965     0.632615640417    -0.275486637381    12.000000000000
         C            8.591741308375    -0.724839093444    -0.273750257120    12.000000000000
         C            7.364858584664    -1.470320891856    -0.273980433813    12.000000000000
         H           -9.528310151544     1.276859222942    -0.277176939976     1.007825032230
         H            9.541406794881     1.174584262194    -0.276538669643     1.007825032230
         C           -7.369842089494    -2.779533372184    -0.271348959800    12.000000000000
         C           -4.924603288776    -2.808425483592    -0.279080592237    12.000000000000
         C           -6.166626675393    -3.516640419076    -0.272778752078    12.000000000000
         C           -3.702514539430    -3.524669775371    -0.268756523051    12.000000000000
         C           -2.467651164839    -2.821314189055    -0.280801161407    12.000000000000
         C           -0.015137653833    -2.833129871650    -0.280519572898    12.000000000000
         C           -1.247126020952    -3.534720401814    -0.268955619490    12.000000000000
         C            1.209240889918    -3.547902904894    -0.266416589699    12.000000000000
         C            2.437331842429    -2.847629964426    -0.280556348010    12.000000000000
         C            4.894298164045    -2.861111194537    -0.279735607939    12.000000000000
         C            3.664611075316    -3.564208071783    -0.266856187998    12.000000000000
         C            6.128634835020    -3.582572283968    -0.273510346041    12.000000000000
         C            7.339668484970    -2.858401533621    -0.271995119959    12.000000000000
         H           -9.541453290984    -1.174551692915    -0.272214472255     1.007825032230
         H            9.528257688346    -1.276907300155    -0.272500449359     1.007825032230
         H           -8.315169223574    -3.318138079463    -0.267176731270     1.007825032230
         H            8.279150962767    -3.407129016144    -0.267655563976     1.007825032230
         C           -6.144998368428    -4.927635499034    -0.271452754018    12.000000000000
         C           -3.706787527723    -4.941249940368    -0.281273722105    12.000000000000
         C           -4.955594237727    -5.643482199745    -0.273306587461    12.000000000000
         C           -2.486125505952    -5.654773800660    -0.268334051061    12.000000000000
         C           -1.254062515205    -4.956110276252    -0.279509657047    12.000000000000
         C            1.201008394143    -4.969268614444    -0.278328532789    12.000000000000
         C           -0.030340854139    -5.669508529390    -0.270485333125    12.000000000000
         C            3.653745921603    -4.980732001665    -0.277570533041    12.000000000000
         C            2.425488516150    -5.681162861778    -0.268193602489    12.000000000000
         C            6.091961438086    -4.993246189637    -0.271216119367    12.000000000000
         C            4.894972264885    -5.696336647208    -0.272452315197    12.000000000000
         H           -7.089896567766    -5.466988068489    -0.267049992336     1.007825032230
         H            7.031051029475    -5.542646762583    -0.267636339603     1.007825032230
         C           -4.923549501924    -7.078809325928    -0.273861356365    12.000000000000
         C           -2.485346267963    -7.087716304180    -0.276371248801    12.000000000000
         C           -3.751690071504    -7.763935383887    -0.276176569876    12.000000000000
         C           -0.037953136713    -7.099453100720    -0.276155523654    12.000000000000
         C           -1.277960280127    -7.772892610917    -0.278140216415    12.000000000000
         C            2.409440141001    -7.114010238253    -0.275292322843    12.000000000000
         C            1.194745757428    -7.786173591813    -0.277444613724    12.000000000000
         C            4.847616872773    -7.131250336830    -0.272785508183    12.000000000000
         C            3.668467426150    -7.803776219194    -0.275133942547    12.000000000000
         H           -5.869944530142    -7.613818824292    -0.272317319500     1.007825032230
         H            5.788245445663    -7.676320415565    -0.271658388701     1.007825032230
         H           -3.753531119175    -8.851059795487    -0.278012484305     1.007825032230
         H           -1.284308585620    -8.860863618748    -0.282567600274     1.007825032230
         H            1.189217394970    -8.874148846840    -0.281537250415     1.007825032230
         H            3.658542435098    -8.890848860304    -0.276788483970     1.007825032230

  Charge       = 0
  Multiplicity = 1
  Basis Set: JUN-CC-PVDZ
    Blend: JUN-CC-PVDZ
  Basis Set: (JUN-CC-PVDZ AUX)
    Blend: JUN-CC-PVDZ-JKFIT

    Orbital Energies [Eh]
    ---------------------

    Doubly Occupied:

       1A    -11.264058     2A    -11.263721     3A    -11.263688
       4A    -11.263316     5A    -11.263306     6A    -11.263228
       7A    -11.263118     8A    -11.263113     9A    -11.263065
      10A    -11.262856    11A    -11.262744    12A    -11.262716
      13A    -11.262238    14A    -11.262232    15A    -11.262202
      16A    -11.262178    17A    -11.262074    18A    -11.262063
      19A    -11.262030    20A    -11.261975    21A    -11.261972
      22A    -11.261867    23A    -11.261862    24A    -11.261702
      25A    -11.261695    26A    -11.261671    27A    -11.261665
      28A    -11.261626    29A    -11.261618    30A    -11.261520
      31A    -11.261512    32A    -11.261500    33A    -11.261498
      34A    -11.261480    35A    -11.261465    36A    -11.261455
      37A    -11.261275    38A    -11.261264    39A    -11.261260
      40A    -11.261255    41A    -11.261244    42A    -11.261238
      43A    -11.261228    44A    -11.261212    45A    -11.261208
      46A    -11.261183    47A    -11.261180    48A    -11.261170
      49A    -11.261024    50A    -11.260997    51A    -11.260971
      52A    -11.260935    53A    -11.260892    54A    -11.260856
      55A    -11.259845    56A    -11.259834    57A    -11.259824
      58A    -11.259801    59A    -11.259794    60A    -11.259778
      61A    -11.259216    62A    -11.259193    63A    -11.259184
      64A    -11.259136    65A    -11.259131    66A    -11.259102
      67A    -11.258847    68A    -11.258830    69A    -11.258823
      70A    -11.258800    71A    -11.258794    72A    -11.258780
      73A    -11.254480    74A    -11.254476    75A    -11.254473
      76A    -11.254471    77A    -11.254463    78A    -11.254460
      79A    -11.253600    80A    -11.253593    81A    -11.253582
      82A    -11.253579    83A    -11.253579    84A    -11.253576
      85A    -11.253515    86A    -11.253508    87A    -11.253497
      88A    -11.253494    89A    -11.253493    90A    -11.253489
      91A    -11.253008    92A    -11.253003    93A    -11.253001
      94A    -11.252999    95A    -11.252991    96A    -11.252988
      97A     -1.253808    98A     -1.238893    99A     -1.238865
     100A     -1.220364   101A     -1.220355   102A     -1.215319
     103A     -1.200953   104A     -1.195507   105A     -1.188031
     106A     -1.188011   107A     -1.173678   108A     -1.173674
     109A     -1.155512   110A     -1.155510   111A     -1.152594
     112A     -1.144639   113A     -1.144638   114A     -1.128461
     115A     -1.114596   116A     -1.113079   117A     -1.112374
     118A     -1.112345   119A     -1.111540   120A     -1.088322
     121A     -1.088306   122A     -1.076882   123A     -1.076879
     124A     -1.067508   125A     -1.067469   126A     -1.064852
     127A     -1.046702   128A     -1.046690   129A     -1.040378
     130A     -1.038657   131A     -1.038652   132A     -1.025119
     133A     -1.021258   134A     -1.021196   135A     -1.007084
     136A     -1.006698   137A     -1.003699   138A     -1.000377
     139A     -1.000322   140A     -0.991001   141A     -0.970881
     142A     -0.970827   143A     -0.955797   144A     -0.955738
     145A     -0.905475   146A     -0.905449   147A     -0.905432
     148A     -0.905416   149A     -0.904188   150A     -0.892227
     151A     -0.892170   152A     -0.890237   153A     -0.890185
     154A     -0.889336   155A     -0.872132   156A     -0.868990
     157A     -0.851444   158A     -0.847740   159A     -0.847728
     160A     -0.845472   161A     -0.842896   162A     -0.834457
     163A     -0.834445   164A     -0.828039   165A     -0.828030
     166A     -0.784451   167A     -0.784442   168A     -0.783545
     169A     -0.783531   170A     -0.782174   171A     -0.782156
     172A     -0.781912   173A     -0.766885   174A     -0.760659
     175A     -0.750453   176A     -0.733399   177A     -0.726973
     178A     -0.726938   179A     -0.724966   180A     -0.724442
     181A     -0.724409   182A     -0.718360   183A     -0.713647
     184A     -0.713642   185A     -0.699480   186A     -0.699458
     187A     -0.685991   188A     -0.685862   189A     -0.685853
     190A     -0.682070   191A     -0.682064   192A     -0.678669
     193A     -0.653526   194A     -0.650768   195A     -0.650736
     196A     -0.649679   197A     -0.649675   198A     -0.649473
     199A     -0.640807   200A     -0.640762   201A     -0.639987
     202A     -0.639070   203A     -0.635907   204A     -0.635874
     205A     -0.629030   206A     -0.617705   207A     -0.615215
     208A     -0.615188   209A     -0.608697   210A     -0.608691
     211A     -0.599098   212A     -0.599070   213A     -0.598632
     214A     -0.598473   215A     -0.598460   216A     -0.597909
     217A     -0.594973   218A     -0.594958   219A     -0.594615
     220A     -0.594090   221A     -0.591840   222A     -0.591837
     223A     -0.587250   224A     -0.577721   225A     -0.577703
     226A     -0.575654   227A     -0.575647   228A     -0.573276
     229A     -0.569538   230A     -0.568018   231A     -0.567991
     232A     -0.566640   233A     -0.566632   234A     -0.560835
     235A     -0.558605   236A     -0.558565   237A     -0.558346
     238A     -0.554257   239A     -0.550517   240A     -0.547396
     241A     -0.544211   242A     -0.534975   243A     -0.534958
     244A     -0.533432   245A     -0.533417   246A     -0.527982
     247A     -0.527964   248A     -0.527653   249A     -0.517041
     250A     -0.517013   251A     -0.515294   252A     -0.515289
     253A     -0.509544   254A     -0.509532   255A     -0.497918
     256A     -0.496346   257A     -0.496304   258A     -0.493749
     259A     -0.493723   260A     -0.489383   261A     -0.481353
     262A     -0.477352   263A     -0.477351   264A     -0.473888
     265A     -0.469310   266A     -0.466403   267A     -0.466402
     268A     -0.458741   269A     -0.446532   270A     -0.446480
     271A     -0.440971   272A     -0.440711   273A     -0.440681
     274A     -0.434622   275A     -0.433836   276A     -0.407305
     277A     -0.407284   278A     -0.386331   279A     -0.386275
     280A     -0.385662   281A     -0.385661   282A     -0.383680
     283A     -0.354247   284A     -0.354219   285A     -0.350587
     286A     -0.338034   287A     -0.335528   288A     -0.335470
     289A     -0.332640   290A     -0.332634   291A     -0.306977
     292A     -0.301860   293A     -0.301797   294A     -0.300759
     295A     -0.286091   296A     -0.256411   297A     -0.253410
     298A     -0.253362   299A     -0.204183   300A     -0.204098

  @DF-RHF Final Energy: -3650.34181438004271

   => Energetics <=

    Nuclear Repulsion Energy =          15611.4211649754324753
    One-Electron Energy =              -36072.2005475611076690
    Two-Electron Energy =               16810.4375682056306687
    Total Energy =                      -3650.3418143800445250
 Dipole X            :          0.0004325            0.0002112            0.0006437
 Dipole Y            :          0.0038074           -0.0044281           -0.0006206
 Dipole Z            :        311.1992099         -311.2064988           -0.0072889
 Magnitude           :                                                    0.0073436

    SAPT Results
  --------------------------------------------------------------------------------------------------------
    Electrostatics                -17.59663316 [mEh]     -11.04205401 [kcal/mol]     -46.19995400 [kJ/mol]
      Elst10,r                    -17.59663316 [mEh]     -11.04205401 [kcal/mol]     -46.19995400 [kJ/mol]

    Exchange                       14.00775097 [mEh]       8.78999644 [kcal/mol]      36.77734511 [kJ/mol]
      Exch10                       14.00775097 [mEh]       8.78999644 [kcal/mol]      36.77734511 [kJ/mol]
      Exch10(S^2)                  13.98584779 [mEh]       8.77625198 [kcal/mol]      36.71983830 [kJ/mol]

    Induction                     -14.96097802 [mEh]      -9.38815544 [kcal/mol]     -39.28004237 [kJ/mol]
      Ind20,r                     -17.32602155 [mEh]     -10.87224266 [kcal/mol]     -45.48946331 [kJ/mol]
      Exch-Ind20,r                  4.13482666 [mEh]       2.59464290 [kcal/mol]      10.85598590 [kJ/mol]
      delta HF,r (2)               -1.76978313 [mEh]      -1.11055568 [kcal/mol]      -4.64656496 [kJ/mol]

    Dispersion                    -29.64821638 [mEh]     -18.60453666 [kcal/mol]     -77.84138137 [kJ/mol]
      Disp20                      -31.37557015 [mEh]     -19.68846752 [kcal/mol]     -82.37654808 [kJ/mol]
      Exch-Disp20                   1.72735378 [mEh]       1.08393086 [kcal/mol]       4.53516671 [kJ/mol]
      Disp20 (SS)                 -15.68778508 [mEh]      -9.84423376 [kcal/mol]     -41.18827404 [kJ/mol]
      Disp20 (OS)                 -15.68778508 [mEh]      -9.84423376 [kcal/mol]     -41.18827404 [kJ/mol]
      Exch-Disp20 (SS)              1.06397194 [mEh]       0.66765247 [kcal/mol]       2.79345793 [kJ/mol]
      Exch-Disp20 (OS)              0.66338184 [mEh]       0.41627839 [kcal/mol]       1.74170878 [kJ/mol]

  Total HF                        -18.54986020 [mEh]     -11.64021302 [kcal/mol]     -48.70265126 [kJ/mol]
  Total SAPT0                     -48.19807658 [mEh]     -30.24474967 [kcal/mol]    -126.54403263 [kJ/mol]

  Special recipe for scaled SAPT0 (see Manual):
    Electrostatics sSAPT0         -17.59663316 [mEh]     -11.04205401 [kcal/mol]     -46.19995400 [kJ/mol]
    Exchange sSAPT0                14.00775097 [mEh]       8.78999644 [kcal/mol]      36.77734511 [kJ/mol]
    Induction sSAPT0              -14.94152097 [mEh]      -9.37594596 [kcal/mol]     -39.22895789 [kJ/mol]
    Dispersion sSAPT0             -29.64008805 [mEh]     -18.59943606 [kcal/mol]     -77.82004046 [kJ/mol]
  Total sSAPT0                    -48.17049121 [mEh]     -30.22743959 [kcal/mol]    -126.47160724 [kJ/mol]
  --------------------------------------------------------------------------------------------------------

*** Psi4 exiting successfully. Buy a developer a beer!
