                               Psi4 1.9 release

  ==> Input File <==

--------------------------------------------------------------------------
memory 80 GB # how much memory is available ! Depends on the nodes/cores !

molecule dimer {
# monomer A
-1 1    # Charge and multiplicity
B -1.977592e-04  2.742729e-04 -3.499966
F  1.123153e-16  1.430594e-17 -2.087181
F  1.147860e+00  6.757812e-01 -3.971107
F  1.191806e-02 -1.332011e+00 -3.970905
F -1.159666e+00  6.560735e-01 -3.970826
--
# monomer B
0 1     # Charge and multiplicity
C   -3.66844126402057      7.80375217008252      0.00190004133558
C   -4.84759871934653      7.13124183134024     -0.00046653359696
C   -4.89495929917518      5.69633040353158     -0.00103944469517
C   -3.65374067877320      4.98073034095895      0.00662099703436
C   -2.40942512149445      7.11398103667468      0.00209438359570
C   -2.42547734410473      5.68112195090346     -0.00491050527438
C   -1.19474401643570      7.78614419430947      0.00356656413763
C   0.03795902893699      7.09942164575698      0.00139585983271
C   0.03033258741920      5.66948955970466     -0.00408752508301
C   -1.20098450790502      4.96927034791531      0.00488220885047
C   1.27795782581485      7.77285944319479      0.00277170839332
C   2.48535808472416      7.08769688523756      0.00049722048857
C   2.48612868491717      5.65477081024076     -0.00644052849921
C   1.25408291964399      4.95607811366431      0.00518741308898
C   3.75171459140595      7.76391215098033      0.00062407186893
C   4.92356605618520      7.07878077698995     -0.00143240883900
C   4.95560727132542      5.64344746336949     -0.00159282164606
C   3.70680153420475      4.94121020833308      0.00349873852374
H   -3.65852113775815      8.89082741913536      0.00358502958574
H   -1.18921332975660      8.87412108735996      0.00753844057883
H   1.28429423888630      8.86083343548850      0.00693053253426
H   3.75354208679975      8.85103527897216      0.00214659618464
H   5.86995870320703      7.61379483465560     -0.00235777588134
H   -5.78823170750226      7.67630221293400     -0.00202638095293
C   -6.09197395869619      4.99326001364347     -0.00291168518608
C   -6.12866148031747      3.58258016879823     -0.00171050815740
C   -3.66457974004527      3.56418217974434     -0.00463560277484
C   -4.89429820469869      2.86108077590057      0.00453338221034
C   -2.43733499489796      2.84761165708481      0.00719617576166
C   -1.20922785759670      3.54788693497833     -0.00648285103018
C   1.24714157216223      3.53468075142962     -0.00729145743546
C   0.01517603956900      2.83311183930540      0.00439272578912
C   2.46764517244071      2.82128997725533      0.00449278391269
C   3.70254947457969      3.52466015442405     -0.00899517692985
C   6.14498038638375      4.92757236613191     -0.00282626685777
C   6.16658835886151      3.51658447594213     -0.00065971342101
C   4.92460995845939      2.80840792535402      0.00587903281610
H   7.08990550964105      5.46688776622306     -0.00658814770723
H   -7.03104175110130      5.54268795285765     -0.00714490013730
C   -7.33969804112295      2.85841153457957     -0.00333767559888
C   -7.36488195805880      1.47032337158330     -0.00157213747140
C   -4.90350460894690      1.44442681216000     -0.00628840166334
C   -6.13225715261081      0.73993935705394      0.00600164231964
C   -3.67687480051673      0.72669714267312      0.00433931473643
C   -2.44565658606518      1.42964113326212     -0.00597039546461
C   -1.22360068130162      0.71532450163492      0.00545886906656
C   0.00763786931376      1.41738314923765      0.00392452278437
C   1.23121980774686      0.70211669058719     -0.01490206287210
C   2.46082110053113      1.40329203612573      0.00460244601878
C   3.68443025419614      0.68719842821222      0.00377365974158
C   4.91870890153864      1.39173456118907     -0.00862816189375
C   7.36980207796101      2.77948220318441     -0.00242013321349
C   7.38016266612146      1.39121750785509     -0.00087345036788
C   6.13979953912259      0.67411862320065      0.00545489144369
H   -8.27919079934664      3.40711804112415     -0.00763522772059
H   8.31511347147953      3.31811809662368     -0.00663070901292
C   -8.59175593758115      0.72483255304480     -0.00123170985383
C   -8.59902460370342     -0.63263980622873      0.00089141472904
C   -6.13981313911873     -0.67413663715361     -0.00609792660607
C   -7.38018411213749     -1.39126618958160      0.00131813493501
C   -4.91868448025621     -1.39175501803000      0.00624257154343
C   -3.68443829568458     -0.68723731573599     -0.00478966852105
C   -2.46081704024768     -1.40334517882457      0.00575341766833
C   -1.23116201232071     -0.70217386488055     -0.00636696112346
C   -0.00756962538737     -1.41741884941102      0.00108956317991
C   1.22364771588843     -0.71527537726392      0.01109518512883
C   2.44567064933149     -1.42964328900682     -0.00065482763106
C   3.67686670284649     -0.72670743155550     -0.00479541202602
C   6.13224884641929     -0.73997883984993     -0.00632338623858
C   4.90351914550401     -1.44445752054090      0.00751768830159
C   8.59901484869081      0.63260386666793     -0.00101133422380
C   8.59174548810050     -0.72485086719319      0.00072504603735
C   7.36486276438985     -1.47033266560598      0.00049486934466
H   -9.52830597181814      1.27684744919284     -0.00270163681798
H   9.54141097460619      1.17457248844457     -0.00206336648518
C   -7.36983790976868     -2.77954514593389      0.00312634335708
C   -4.92459910905015     -2.80843725734101     -0.00460528907921
C   -6.16662249566744     -3.51665219282533      0.00169655107992
C   -3.70251035970491     -3.52468154912026      0.00571878010666
C   -2.46764698511392     -2.82132596280400     -0.00632585824990
C   -0.01513347410770     -2.83314164539971     -0.00604426974092
C   -1.24712184122656     -3.53473217556300      0.00551968366725
C   1.20924506964357     -3.54791467864352      0.00805871345849
C   2.43733602215464     -2.84764173817541     -0.00608104485234
C   4.89430234377080     -2.86112296828604     -0.00526030478103
C   3.66461525504104     -3.56421984553201      0.00761911515957
C   6.12863901474565     -3.58258405771778      0.00096495711699
C   7.33967266469532     -2.85841330737039      0.00248018319869
H   -9.54144911125902     -1.17456346666430      0.00226083090216
H   9.52826186807155     -1.27691907390448      0.00197485379837
H   -8.31516504384864     -3.31814985321231      0.00729857188773
H   8.27915514249207     -3.40714078989363      0.00681973918158
C   -6.14499418870218     -4.92764727278338      0.00302254913999
C   -3.70678334799751     -4.94126171411716     -0.00679841894792
C   -4.95559005800169     -5.64349397349412      0.00116871569699
C   -2.48612132622665     -5.65478557440947      0.00614125209662
C   -1.25405833548005     -4.95612205000132     -0.00503435388927
C   1.20101257386816     -4.96928038819302     -0.00385322963129
C   -0.03033667441341     -5.66952030313900      0.00398997003238
C   3.65375010132847     -4.98074377541453     -0.00309522988330
C   2.42549269587528     -5.68117463552727      0.00628170066869
C   6.09196561781097     -4.99325796338655      0.00325918379042
C   4.89497644461045     -5.69634842095790      0.00202298796027
H   -7.08989238804069     -5.46699984223871      0.00742531082125
H   7.03105520920009     -5.54265853633254      0.00683896355417
C   -4.92354532219813     -7.07882109967734      0.00061394679214
C   -2.48534208823777     -7.08772807792913     -0.00189594564379
C   -3.75168589177895     -7.76394715763627     -0.00170126671874
C   -0.03794895698805     -7.09946487446944     -0.00168022049625
C   -1.27795610040136     -7.77290438466689     -0.00366491325785
C   2.40944432072629     -7.11402201200282     -0.00081701968533
C   1.19474993715296     -7.78618536556242     -0.00296931056689
C   4.84762105249800     -7.13126211057943      0.00168979497423
C   3.66847160587561     -7.80378799294376     -0.00065863938960
H   -5.86994035041618     -7.61383059804164      0.00215798365757
H   5.78824962538815     -7.67633218931421      0.00281691445618
H   -3.75352693944918     -8.85107156923607     -0.00353718114765
H   -1.28430440589466     -8.86087539249706     -0.00809229711623
H   1.18922157469537     -8.87416062058945     -0.00706194725726
H   3.65854661482387     -8.89086063405326     -0.00231318081200

    units angstrom      # Angstroms are the default
    no_reorient         # Geometry fixed, default
    symmetry c1         # C1 symmetry, default
}

set {
    scf_type DF         # Density fitting, faster than exact integrals
    freeze_core True    # Freeze core electrons
    basis jun-cc-pVDZ   # Jun-cc-pVDZ basis set, recommended for sSAPT0 in https://doi.org/10.1063/1.4867135
}

energy('ssapt0')        # Compute sSAPT0 energy, includes also SAPT0
--------------------------------------------------------------------------

  //              Dimer HF             //
    Molecular point group: c1
  Charge       = -1
  Multiplicity = 1
  Basis Set: JUN-CC-PVDZ
    Blend: JUN-CC-PVDZ
  Basis Set: (JUN-CC-PVDZ AUX)
    Blend: JUN-CC-PVDZ-JKFIT
  @DF-RHF Final Energy: -4073.09110926676567
    Total Energy =                      -4073.0911092667665798
 Dipole X            :          0.0006766           -0.0000548            0.0006218
 Dipole Y            :          0.0007008           -0.0002464            0.0004544
 Dipole Z            :        -16.2985090           20.8285889            4.5300799
 Magnitude           :                                                    4.5300800
  //            Monomer A HF           //
    Molecular point group: c1
  Multiplicity = 1
  Basis Set: JUN-CC-PVDZ
    Blend: JUN-CC-PVDZ
  Basis Set: (JUN-CC-PVDZ AUX)
    Blend: JUN-CC-PVDZ-JKFIT
  @DF-RHF Final Energy:  -422.77397638162097
    Total Energy =                       -422.7739763816209688
  //            Monomer B HF           //
    Molecular point group: c1

    Geometry (in Angstrom), charge = 0, multiplicity = 1:

       Center              X                  Y                   Z               Mass
    ------------   -----------------  -----------------  -----------------  -----------------
      Gh(B)          -0.000201921932     0.000288800891    -3.258904813317    11.009305360000
      Gh(F)          -0.000004162732     0.000014527991    -1.846119813317    18.998403162730
      Gh(F)           1.147855837268     0.675795727991    -3.730045813317    18.998403162730
      Gh(F)           0.011913897268    -1.331996472009    -3.729843813317    18.998403162730
      Gh(F)          -1.159670162732     0.656088027991    -3.729764813317    18.998403162730
         C           -3.668445426752     7.803766698073     0.242961228019    12.000000000000
         C           -4.847602882078     7.131256359331     0.240594653086    12.000000000000
         C           -4.894963461907     5.696344931522     0.240021741988    12.000000000000
         C           -3.653744841505     4.980744868950     0.247682183718    12.000000000000
         C           -2.409429284226     7.113995564665     0.243155570279    12.000000000000
         C           -2.425481506836     5.681136478894     0.236150681409    12.000000000000
         C           -1.194748179167     7.786158722300     0.244627750821    12.000000000000
         C            0.037954866205     7.099436173748     0.242457046516    12.000000000000
         C            0.030328424687     5.669504087695     0.236973661600    12.000000000000
         C           -1.200988670637     4.969284875906     0.245943395534    12.000000000000
         C            1.277953663083     7.772873971185     0.243832895077    12.000000000000
         C            2.485353921992     7.087711413228     0.241558407172    12.000000000000
         C            2.486124522185     5.654785338231     0.234620658184    12.000000000000
         C            1.254078756912     4.956092641655     0.246248599772    12.000000000000
         C            3.751710428674     7.763926678971     0.241685258552    12.000000000000
         C            4.923561893453     7.078795304981     0.239628777844    12.000000000000
         C            4.955603108594     5.643461991360     0.239468365037    12.000000000000
         C            3.706797371473     4.941224736324     0.244559925207    12.000000000000
         H           -3.658525300490     8.890841947126     0.244646216269     1.007825032230
         H           -1.189217492488     8.874135615351     0.248599627262     1.007825032230
         H            1.284290076155     8.860847963479     0.247991719218     1.007825032230
         H            3.753537924068     8.851049806963     0.243207782868     1.007825032230
         H            5.869954540475     7.613809362646     0.238703410802     1.007825032230
         H           -5.788235870234     7.676316740925     0.239034805730     1.007825032230
         C           -6.091978121428     4.993274541634     0.238149501497    12.000000000000
         C           -6.128665643049     3.582594696789     0.239350678526    12.000000000000
         C           -3.664583902777     3.564196707735     0.236425583909    12.000000000000
         C           -4.894302367430     2.861095303891     0.245594568894    12.000000000000
         C           -2.437339157630     2.847626185075     0.248257362445    12.000000000000
         C           -1.209232020328     3.547901462969     0.234578335653    12.000000000000
         C            1.247137409430     3.534695279420     0.233769729248    12.000000000000
         C            0.015171876837     2.833126367296     0.245453912472    12.000000000000
         C            2.467641009709     2.821304505246     0.245553970596    12.000000000000
         C            3.702545311848     3.524674682415     0.232066009754    12.000000000000
         C            6.144976223652     4.927586894122     0.238234919826    12.000000000000
         C            6.166584196130     3.516599003933     0.240401473262    12.000000000000
         C            4.924605795728     2.808422453345     0.246940219499    12.000000000000
         H            7.089901346909     5.466902294214     0.234473038976     1.007825032230
         H           -7.031045913833     5.542702480848     0.233916286546     1.007825032230
         C           -7.339702203855     2.858426062570     0.237723511084    12.000000000000
         C           -7.364886120791     1.470337899574     0.239489049212    12.000000000000
         C           -4.903508771679     1.444441340151     0.234772785020    12.000000000000
         C           -6.132261315343     0.739953885044     0.247062829003    12.000000000000
         C           -3.676878963248     0.726711670664     0.245400501420    12.000000000000
         C           -2.445660748797     1.429655661253     0.235090791219    12.000000000000
         C           -1.223604844033     0.715339029625     0.246520055750    12.000000000000
         C            0.007633706582     1.417397677228     0.244985709468    12.000000000000
         C            1.231215645015     0.702131218578     0.226159123811    12.000000000000
         C            2.460816937799     1.403306564116     0.245663632702    12.000000000000
         C            3.684426091464     0.687212956203     0.244834846425    12.000000000000
         C            4.918704738807     1.391749089180     0.232433024790    12.000000000000
         C            7.369797915229     2.779496731175     0.238641053470    12.000000000000
         C            7.380158503390     1.391232035846     0.240187736315    12.000000000000
         C            6.139795376391     0.674133151191     0.246516078127    12.000000000000
         H           -8.279194962078     3.407132569115     0.233425958963     1.007825032230
         H            8.315109308748     3.318132624614     0.234430477670     1.007825032230
         C           -8.591760100313     0.724847081035     0.239829476830    12.000000000000
         C           -8.599028766435    -0.632625278238     0.241952601412    12.000000000000
         C           -6.139817301850    -0.674122109163     0.234963260077    12.000000000000
         C           -7.380188274869    -1.391251661591     0.242379321618    12.000000000000
         C           -4.918688642988    -1.391740490039     0.247303758227    12.000000000000
         C           -3.684442458416    -0.687222787745     0.236271518162    12.000000000000
         C           -2.460821202979    -1.403330650834     0.246814604352    12.000000000000
         C           -1.231166175052    -0.702159336890     0.234694225560    12.000000000000
         C           -0.007573788119    -1.417404321420     0.242150749863    12.000000000000
         C            1.223643553157    -0.715260849273     0.252156371812    12.000000000000
         C            2.445666486600    -1.429628761016     0.240406359052    12.000000000000
         C            3.676862540115    -0.726692903565     0.236265774657    12.000000000000
         C            6.132244683688    -0.739964311859     0.234737800445    12.000000000000
         C            4.903514982772    -1.444442992550     0.248578874985    12.000000000000
         C            8.599010685959     0.632618394658     0.240049852460    12.000000000000
         C            8.591741325369    -0.724836339203     0.241786232721    12.000000000000
         C            7.364858601658    -1.470318137615     0.241556056028    12.000000000000
         H           -9.528310134550     1.276861977183     0.238359549865     1.007825032230
         H            9.541406811874     1.174587016435     0.238997820198     1.007825032230
         C           -7.369842072500    -2.779530617943     0.244187530040    12.000000000000
         C           -4.924603271782    -2.808422729350     0.236455897604    12.000000000000
         C           -6.166626658399    -3.516637664835     0.242757737763    12.000000000000
         C           -3.702514522437    -3.524667021130     0.246779966790    12.000000000000
         C           -2.467651147846    -2.821311434813     0.234735328433    12.000000000000
         C           -0.015137636839    -2.833127117409     0.235016916942    12.000000000000
         C           -1.247126003958    -3.534717647572     0.246580870351    12.000000000000
         C            1.209240906912    -3.547900150653     0.249119900142    12.000000000000
         C            2.437331859423    -2.847627210185     0.234980141831    12.000000000000
         C            4.894298181039    -2.861108440295     0.235800881902    12.000000000000
         C            3.664611092309    -3.564205317541     0.248680301843    12.000000000000
         C            6.128634852014    -3.582569529727     0.242026143800    12.000000000000
         C            7.339668501964    -2.858398779380     0.243541369882    12.000000000000
         H           -9.541453273991    -1.174548938674     0.243322017586     1.007825032230
         H            9.528257705340    -1.276904545914     0.243036040482     1.007825032230
         H           -8.315169206580    -3.318135325222     0.248359758571     1.007825032230
         H            8.279150979760    -3.407126261903     0.247880925865     1.007825032230
         C           -6.144998351434    -4.927632744793     0.244083735823    12.000000000000
         C           -3.706787510729    -4.941247186127     0.234262767735    12.000000000000
         C           -4.955594220733    -5.643479445504     0.242229902380    12.000000000000
         C           -2.486125488958    -5.654771046419     0.247202438780    12.000000000000
         C           -1.254062498212    -4.956107522011     0.236026832794    12.000000000000
         C            1.201008411136    -4.969265860202     0.237207957052    12.000000000000
         C           -0.030340837145    -5.669505775148     0.245051156716    12.000000000000
         C            3.653745938597    -4.980729247424     0.237965956800    12.000000000000
         C            2.425488533144    -5.681160107537     0.247342887352    12.000000000000
         C            6.091961455079    -4.993243435396     0.244320370474    12.000000000000
         C            4.894972281879    -5.696333892967     0.243084174644    12.000000000000
         H           -7.089896550772    -5.466985314248     0.248486497505     1.007825032230
         H            7.031051046468    -5.542644008342     0.247900150238     1.007825032230
         C           -4.923549484930    -7.078806571687     0.241675133476    12.000000000000
         C           -2.485346250970    -7.087713549939     0.239165241040    12.000000000000
         C           -3.751690054511    -7.763932629646     0.239359919965    12.000000000000
         C           -0.037953119720    -7.099450346479     0.239380966187    12.000000000000
         C           -1.277960263133    -7.772889856676     0.237396273426    12.000000000000
         C            2.409440157995    -7.114007484012     0.240244166998    12.000000000000
         C            1.194745774421    -7.786170837572     0.238091876116    12.000000000000
         C            4.847616889766    -7.131247582589     0.242750981658    12.000000000000
         C            3.668467443144    -7.803773464953     0.240402547294    12.000000000000
         H           -5.869944513148    -7.613816070051     0.243219170341     1.007825032230
         H            5.788245462656    -7.676317661324     0.243878101140     1.007825032230
         H           -3.753531102181    -8.851057041246     0.237524005536     1.007825032230
         H           -1.284308568626    -8.860860864507     0.232968889567     1.007825032230
         H            1.189217411964    -8.874146092599     0.233999239426     1.007825032230
         H            3.658542452092    -8.890846106063     0.238748005871     1.007825032230

  Charge       = 0
  Multiplicity = 1
  Basis Set: JUN-CC-PVDZ
    Blend: JUN-CC-PVDZ
  Basis Set: (JUN-CC-PVDZ AUX)
    Blend: JUN-CC-PVDZ-JKFIT

    Orbital Energies [Eh]
    ---------------------

    Doubly Occupied:

       1A    -11.264132     2A    -11.263761     3A    -11.263748
       4A    -11.263309     5A    -11.263306     6A    -11.263271
       7A    -11.263134     8A    -11.263129     9A    -11.263116
      10A    -11.262882    11A    -11.262766    12A    -11.262761
      13A    -11.262268    14A    -11.262262    15A    -11.262255
      16A    -11.262254    17A    -11.262132    18A    -11.262126
      19A    -11.262075    20A    -11.262038    21A    -11.262035
      22A    -11.261938    23A    -11.261934    24A    -11.261773
      25A    -11.261765    26A    -11.261741    27A    -11.261733
      28A    -11.261700    29A    -11.261692    30A    -11.261596
      31A    -11.261588    32A    -11.261574    33A    -11.261571
      34A    -11.261541    35A    -11.261539    36A    -11.261516
      37A    -11.261349    38A    -11.261341    39A    -11.261335
      40A    -11.261330    41A    -11.261324    42A    -11.261321
      43A    -11.261303    44A    -11.261286    45A    -11.261282
      46A    -11.261259    47A    -11.261256    48A    -11.261250
      49A    -11.261065    50A    -11.261031    51A    -11.261028
      52A    -11.260949    53A    -11.260948    54A    -11.260891
      55A    -11.259936    56A    -11.259923    57A    -11.259920
      58A    -11.259891    59A    -11.259889    60A    -11.259873
      61A    -11.259308    62A    -11.259283    63A    -11.259280
      64A    -11.259227    65A    -11.259225    66A    -11.259195
      67A    -11.258939    68A    -11.258921    69A    -11.258919
      70A    -11.258891    71A    -11.258889    72A    -11.258877
      73A    -11.254544    74A    -11.254543    75A    -11.254538
      76A    -11.254537    77A    -11.254537    78A    -11.254536
      79A    -11.253672    80A    -11.253671    81A    -11.253669
      82A    -11.253667    83A    -11.253665    84A    -11.253663
      85A    -11.253588    86A    -11.253587    87A    -11.253584
      88A    -11.253583    89A    -11.253580    90A    -11.253579
      91A    -11.253072    92A    -11.253071    93A    -11.253066
      94A    -11.253065    95A    -11.253065    96A    -11.253064
      97A     -1.253948    98A     -1.239008    99A     -1.239007
     100A     -1.220481   101A     -1.220476   102A     -1.215453
     103A     -1.201061   104A     -1.195624   105A     -1.188142
     106A     -1.188140   107A     -1.173784   108A     -1.173781
     109A     -1.155636   110A     -1.155632   111A     -1.152736
     112A     -1.144742   113A     -1.144739   114A     -1.128581
     115A     -1.114723   116A     -1.113184   117A     -1.112488
     118A     -1.112474   119A     -1.111639   120A     -1.088441
     121A     -1.088426   122A     -1.076980   123A     -1.076979
     124A     -1.067623   125A     -1.067593   126A     -1.064990
     127A     -1.046819   128A     -1.046811   129A     -1.040494
     130A     -1.038753   131A     -1.038752   132A     -1.025243
     133A     -1.021394   134A     -1.021344   135A     -1.007200
     136A     -1.006828   137A     -1.003808   138A     -1.000495
     139A     -1.000447   140A     -0.991092   141A     -0.971004
     142A     -0.970956   143A     -0.955898   144A     -0.955842
     145A     -0.905595   146A     -0.905569   147A     -0.905553
     148A     -0.905528   149A     -0.904350   150A     -0.892380
     151A     -0.892320   152A     -0.890371   153A     -0.890313
     154A     -0.889466   155A     -0.872236   156A     -0.869074
     157A     -0.851555   158A     -0.847881   159A     -0.847859
     160A     -0.845602   161A     -0.843031   162A     -0.834580
     163A     -0.834567   164A     -0.828133   165A     -0.828130
     166A     -0.784563   167A     -0.784552   168A     -0.783670
     169A     -0.783643   170A     -0.782302   171A     -0.782281
     172A     -0.782050   173A     -0.767009   174A     -0.760810
     175A     -0.750573   176A     -0.733500   177A     -0.727087
     178A     -0.727074   179A     -0.725095   180A     -0.724557
     181A     -0.724538   182A     -0.718488   183A     -0.713784
     184A     -0.713778   185A     -0.699587   186A     -0.699575
     187A     -0.686136   188A     -0.685974   189A     -0.685971
     190A     -0.682190   191A     -0.682180   192A     -0.678774
     193A     -0.653633   194A     -0.650884   195A     -0.650854
     196A     -0.649820   197A     -0.649804   198A     -0.649584
     199A     -0.640936   200A     -0.640910   201A     -0.640103
     202A     -0.639179   203A     -0.636025   204A     -0.635998
     205A     -0.629156   206A     -0.617741   207A     -0.615318
     208A     -0.615298   209A     -0.608816   210A     -0.608810
     211A     -0.599119   212A     -0.599084   213A     -0.598757
     214A     -0.598619   215A     -0.598595   216A     -0.598034
     217A     -0.595081   218A     -0.595068   219A     -0.594731
     220A     -0.594234   221A     -0.591963   222A     -0.591960
     223A     -0.587390   224A     -0.577810   225A     -0.577800
     226A     -0.575661   227A     -0.575657   228A     -0.573395
     229A     -0.569597   230A     -0.568149   231A     -0.568126
     232A     -0.566763   233A     -0.566753   234A     -0.560928
     235A     -0.558723   236A     -0.558704   237A     -0.558441
     238A     -0.554377   239A     -0.550557   240A     -0.547489
     241A     -0.544268   242A     -0.535013   243A     -0.534976
     244A     -0.533545   245A     -0.533523   246A     -0.528090
     247A     -0.528075   248A     -0.527794   249A     -0.517166
     250A     -0.517131   251A     -0.515357   252A     -0.515351
     253A     -0.509655   254A     -0.509639   255A     -0.498039
     256A     -0.496459   257A     -0.496433   258A     -0.493762
     259A     -0.493749   260A     -0.489449   261A     -0.481463
     262A     -0.477424   263A     -0.477421   264A     -0.474005
     265A     -0.469450   266A     -0.466534   267A     -0.466530
     268A     -0.458790   269A     -0.446687   270A     -0.446627
     271A     -0.441024   272A     -0.440786   273A     -0.440762
     274A     -0.434693   275A     -0.433912   276A     -0.407367
     277A     -0.407343   278A     -0.386385   279A     -0.386336
     280A     -0.385741   281A     -0.385740   282A     -0.383740
     283A     -0.354337   284A     -0.354320   285A     -0.350647
     286A     -0.338046   287A     -0.335595   288A     -0.335526
     289A     -0.332717   290A     -0.332710   291A     -0.307047
     292A     -0.301909   293A     -0.301846   294A     -0.300856
     295A     -0.286164   296A     -0.256476   297A     -0.253476
     298A     -0.253424   299A     -0.204257   300A     -0.204168

  @DF-RHF Final Energy: -3650.33976547357315

   => Energetics <=

    Nuclear Repulsion Energy =          15611.4211649754324753
    One-Electron Energy =              -36072.1401684530719649
    Two-Electron Energy =               16810.3792380040649732
    Total Energy =                      -3650.3397654735745164
 Dipole X            :          0.0001803            0.0002304            0.0004107
 Dipole Y            :          0.0013996           -0.0013052            0.0000944
 Dipole Z            :       -273.3244950          273.3271653            0.0026703
 Magnitude           :                                                    0.0027034

    SAPT Results
  --------------------------------------------------------------------------------------------------------
    Electrostatics                -13.53812573 [mEh]      -8.49530216 [kcal/mol]     -35.54434422 [kJ/mol]
      Elst10,r                    -13.53812573 [mEh]      -8.49530216 [kcal/mol]     -35.54434422 [kJ/mol]

    Exchange                       61.31976372 [mEh]      38.47873267 [kcal/mol]     160.99501747 [kJ/mol]
      Exch10                       61.31976372 [mEh]      38.47873267 [kcal/mol]     160.99501747 [kJ/mol]
      Exch10(S^2)                  60.90785962 [mEh]      38.22025894 [kcal/mol]     159.91356339 [kJ/mol]

    Induction                     -25.14904956 [mEh]     -15.78126686 [kcal/mol]     -66.02882052 [kJ/mol]
      Ind20,r                     -43.57583399 [mEh]     -27.34424865 [kcal/mol]    -114.40833637 [kJ/mol]
      Exch-Ind20,r                 21.57115734 [mEh]      13.53610559 [kcal/mol]      56.63506579 [kJ/mol]
      delta HF,r (2)               -3.14437291 [mEh]      -1.97312379 [kcal/mol]      -8.25554994 [kJ/mol]

    Dispersion                    -17.77053999 [mEh]     -11.15118220 [kcal/mol]     -46.65654631 [kJ/mol]
      Disp20                      -23.20192803 [mEh]     -14.55942965 [kcal/mol]     -60.91665364 [kJ/mol]
      Exch-Disp20                   5.43138804 [mEh]       3.40824745 [kcal/mol]      14.26010733 [kJ/mol]
      Disp20 (SS)                 -11.60096401 [mEh]      -7.27971482 [kcal/mol]     -30.45832682 [kJ/mol]
      Disp20 (OS)                 -11.60096401 [mEh]      -7.27971482 [kcal/mol]     -30.45832682 [kJ/mol]
      Exch-Disp20 (SS)              2.96515238 [mEh]       1.86066121 [kcal/mol]       7.78500650 [kJ/mol]
      Exch-Disp20 (OS)              2.46623566 [mEh]       1.54758624 [kcal/mol]       6.47510083 [kJ/mol]

  Total HF                         22.63258843 [mEh]      14.20216365 [kcal/mol]      59.42185273 [kJ/mol]
  Total SAPT0                       4.86204844 [mEh]       3.05098146 [kcal/mol]      12.76530642 [kJ/mol]

  Special recipe for scaled SAPT0 (see Manual):
    Electrostatics sSAPT0         -13.53812573 [mEh]      -8.49530216 [kcal/mol]     -35.54434422 [kJ/mol]
    Exchange sSAPT0                61.31976372 [mEh]      38.47873267 [kcal/mol]     160.99501747 [kJ/mol]
    Induction sSAPT0              -24.70844276 [mEh]     -15.50478191 [kcal/mol]     -64.87200753 [kJ/mol]
    Dispersion sSAPT0             -17.65959988 [mEh]     -11.08156623 [kcal/mol]     -46.36527310 [kJ/mol]
  Total sSAPT0                      5.41359535 [mEh]       3.39708237 [kcal/mol]      14.21339262 [kJ/mol]
  --------------------------------------------------------------------------------------------------------

*** Psi4 exiting successfully. Buy a developer a beer!
