                         Program Version 5.0.3 -  RELEASE  -
|  1> ! RIJCOSX CHELPG autoaux TIGHTSCF HF
|  2> %basis
|  3>  GTOName "jun-cc-pvdz.basis"
|  4> end
|  5> %maxcore 3000
|  6> %pal
|  7>  nprocs 16
|  8> end
|  9> *xyzfile +1 1 opt_aligned.xyz
| 10>
| 11>                          ****END OF INPUT****

CARTESIAN COORDINATES (ANGSTROEM)
---------------------------------
  C      0.680067   -0.008042   -1.215929
  C     -0.680504   -0.006014   -1.215545
  N     -1.085635   -0.005016    0.102779
  C      0.000108   -0.001740    0.884180
  C     -2.477365    0.044390    0.570758
  N      1.085222   -0.005016    0.102779
  H      1.385146   -0.015870   -2.033368
  H     -1.385302   -0.006204   -2.033214
  H     -0.000009    0.000007    1.965269
  C      2.478117   -0.021908    0.567877
  H      2.490592    0.005437    1.658130
  H      2.967028   -0.935354    0.220701
  H      3.001428    0.853575    0.176405
  H     -2.857359    1.066461    0.490799
  H     -3.082679   -0.625694   -0.042306
  H     -2.518128   -0.282594    1.610706

 Total Charge           Charge          ....    1
 Multiplicity           Mult            ....    1
 Number of Electrons    NEL             ....   52
 Basis Dimension        Dim             ....  171

ORBITAL ENERGIES
----------------

  NO   OCC          E(Eh)            E(eV)
   0   2.0000     -15.834552      -430.8801
   1   2.0000     -15.834025      -430.8657
   2   2.0000     -11.529377      -313.7303
   3   2.0000     -11.459776      -311.8363
   4   2.0000     -11.458223      -311.7941
   5   2.0000     -11.449622      -311.5601
   6   2.0000     -11.449550      -311.5581
   7   2.0000      -1.578150       -42.9436
   8   2.0000      -1.433763       -39.0147
   9   2.0000      -1.238626       -33.7047
  10   2.0000      -1.189277       -32.3619
  11   2.0000      -1.118849       -30.4454
  12   2.0000      -1.022521       -27.8242
  13   2.0000      -0.996927       -27.1278
  14   2.0000      -0.917032       -24.9537
  15   2.0000      -0.850534       -23.1442
  16   2.0000      -0.816229       -22.2107
  17   2.0000      -0.813165       -22.1273
  18   2.0000      -0.790113       -21.5001
  19   2.0000      -0.786242       -21.3947
  20   2.0000      -0.781783       -21.2734
  21   2.0000      -0.729675       -19.8555
  22   2.0000      -0.725775       -19.7493
  23   2.0000      -0.717102       -19.5133
  24   2.0000      -0.596292       -16.2259
  25   2.0000      -0.523845       -14.2546
  26   0.0000      -0.069213        -1.8834
  27   0.0000      -0.061609        -1.6765
  28   0.0000      -0.054155        -1.4736
  29   0.0000      -0.047492        -1.2923
  30   0.0000      -0.031077        -0.8457

MULLIKEN ATOMIC CHARGES
-----------------------
   0 C :   -0.015639
   1 C :    0.003502
   2 N :   -0.358358
   3 C :    0.140891
   4 C :    0.153002
   5 N :   -0.363811
   6 H :    0.146252
   7 H :    0.143375
   8 H :    0.152142
   9 C :    0.148302
  10 H :    0.116974
  11 H :    0.156269
  12 H :    0.153956
  13 H :    0.162103
  14 H :    0.141433
  15 H :    0.119606
Sum of atomic charges:    1.0000000

LOEWDIN ATOMIC CHARGES
----------------------
   0 C :   -0.019314
   1 C :   -0.017852
   2 N :   -0.017882
   3 C :    0.058478
   4 C :   -0.000448
   5 N :   -0.016407
   6 H :    0.128058
   7 H :    0.127765
   8 H :    0.140908
   9 C :   -0.000475
  10 H :    0.100582
  11 H :    0.104020
  12 H :    0.104055
  13 H :    0.103467
  14 H :    0.104255
  15 H :    0.100787

  Mayer bond orders larger than 0.100000
B(  0-C ,  1-C ) :   1.4490 B(  0-C ,  3-C ) :   0.1562 B(  0-C ,  5-N ) :   1.1979
B(  0-C ,  6-H ) :   1.0640 B(  1-C ,  2-N ) :   1.1948 B(  1-C ,  3-C ) :   0.1658
B(  1-C ,  7-H ) :   1.0601 B(  2-N ,  3-C ) :   1.3987 B(  2-N ,  4-C ) :   1.0506
B(  2-N ,  5-N ) :   0.1237 B(  3-C ,  5-N ) :   1.4137 B(  3-C ,  8-H ) :   0.9476
B(  4-C , 13-H ) :   0.9401 B(  4-C , 14-H ) :   0.9274 B(  4-C , 15-H ) :   0.9158
B(  5-N ,  9-C ) :   1.0525 B(  9-C , 10-H ) :   0.9129 B(  9-C , 11-H ) :   0.9350
B(  9-C , 12-H ) :   0.9333

FINAL SINGLE POINT ENERGY      -303.297786830863

DIPOLE MOMENT
-------------
                                X             Y             Z
Electronic contribution:     -0.00019      -0.04755      -1.43516
Nuclear contribution   :      0.00067       0.05601       1.88979
                        -----------------------------------------
Total Dipole Moment    :      0.00049       0.00846       0.45463
                        -----------------------------------------
Magnitude (a.u.)       :      0.45471
Magnitude (Debye)      :      1.15579

Rotational constants in cm-1:     0.227322     0.068211     0.053547
Rotational constants in MHz :  6814.953024  2044.906026  1605.291544

                             ****ORCA TERMINATED NORMALLY****
TOTAL RUN TIME: 0 days 0 hours 0 minutes 25 seconds 57 msec
