                               Psi4 1.9 release

  ==> Input File <==

--------------------------------------------------------------------------
memory 32 GB # how much memory is available ! Depends on the nodes/cores !

molecule dimer {
# monomer A
+1 1    # Charge and multiplicity
C  0.680067 -0.008042 -5.215929
C -0.680504 -0.006014 -5.215545
N -1.085635 -0.005016 -3.897221
C  0.000108 -0.001740 -3.115820
C -2.477365  0.044390 -3.429242
N  1.085222 -0.005016 -3.897221
H  1.385146 -0.015870 -6.033368
H -1.385302 -0.006204 -6.033214
H -0.000009  0.000007 -2.034731
C  2.478117 -0.021908 -3.432123
H  2.490592  0.005437 -2.341870
H  2.967028 -0.935354 -3.779299
H  3.001428  0.853575 -3.823595
H -2.857359  1.066461 -3.509201
H -3.082679 -0.625694 -4.042306
H -2.518128 -0.282594 -2.389294
--
# monomer B
0 1     # Charge and multiplicity
C   1.22531237526482      0.70753866091955      0.00613762728373
C   1.22532433589282     -0.70753852257020     -0.00619318228664
C   -0.00000567409046      1.41496628609039     -0.00672680580738
C   2.45644923379077      1.41832825917820      0.00902448468363
C   0.00001130712078     -1.41497612663474      0.00347275151708
C   -1.22530046906674      0.70754574598412      0.00838914760619
C   2.45643823516184     -1.41832293188077     -0.00843833914343
C   -0.00000085313587      2.83680140328112     -0.00913035594137
C   3.68182717731192      0.70931832800114     -0.00808954934571
C   2.45512052870677      2.83422403348893     -0.00819210630633
C   3.68182158506039     -0.70933346742900      0.00798293467272
C   -1.22531311884624     -0.70752714354401     -0.00512042085974
C   1.22670006104402      3.54346985599427      0.00816696660346
C   0.00000526469929     -2.83678176723568      0.00832091913869
C   -2.45643555300670      1.41831729028492      0.00842454345199
C   2.45512389762097     -2.83422965658853      0.00783102630520
C   -1.22671388474763      3.54346943575023      0.00827029982280
C   4.91451777504333      1.42717324448953     -0.00160886631602
C   3.69315067131765      3.54279566454522     -0.00155906667985
C   -2.45643712022637     -1.41831290883911     -0.00846337726810
C   1.22670532178455     -3.54347386990643     -0.00780316414624
C   -2.45512491866593      2.83421703463423     -0.00818572995999
C   4.91452486062398     -1.42718653794377      0.00136387641845
C   1.22142509354026      4.97013443726031      0.00150231067809
C   4.89300870916237      2.82518837202648     -0.00039219795739
C   -1.22669652864725     -3.54347062507680     -0.00753595973677
C   -3.68181849668397      0.70932533873199     -0.00807686886569
C   3.69314758099218     -3.54280096939050      0.00148176697923
C   -1.22143177215231      4.97012866986289      0.00168580605083
C   6.13477145276790      0.68054831910577     -0.00083909176631
C   3.65678936045204      4.97295361556775     -0.00065042889723
C   -2.45512642789169     -2.83421472106065      0.00758666850712
C   -3.68181869921921     -0.70932533146830      0.00810055625144
C   4.89301309775526     -2.82519973363176      0.00021895393805
C   -0.00000059327114      5.65044773803267      0.00045449734393
C   6.13477559217374     -0.68055448207492      0.00042622874941
C   2.47813196269732      5.65357712333155      0.00063835075260
C   1.22142288457925     -4.97012668293268     -0.00129718634452
C   -3.69316190412301      3.54279732619245     -0.00139355922051
C   -1.22142804110313     -4.97011793159564     -0.00140994817719
C   -4.91452132810043      1.42717581899491     -0.00153192130862
C   3.65678749952045     -4.97295485423912      0.00080007163680
C   -2.47813805026426      5.65357479452875      0.00092287576113
C   -3.69314125872231     -3.54278984697859      0.00136564082345
C   -4.91451200321153     -1.42718062802730      0.00139857359209
C   -0.00000552908399     -5.65043791501335      0.00005899322272
C   -4.89302000425900      2.82518897091939     -0.00040227981744
C   2.47812647313991     -5.65357317188818     -0.00029052915548
C   -3.65679823041642      4.97295655404175     -0.00047374852278
C   -4.89299899901461     -2.82519139505969      0.00006491824035
C   -2.47812801824129     -5.65356579800621     -0.00056571680280
C   -6.13477002348955      0.68054913825639     -0.00086464346868
C   -3.65678835334731     -4.97294365097028      0.00058578382008
C   -6.13476456307132     -0.68055354348201      0.00040575295444
H   5.83528897565761      3.36927626695423      0.00396712770529
H   7.07385965258860      1.22821762089947     -0.00037744837300
H   4.60066374401555      5.51238117445323     -0.00014522814529
H   5.83528386714679     -3.36930568472863     -0.00423551337640
H   -0.00001167146422      6.73853104613662     -0.00389474766392
H   7.07386165167227     -1.22822657074368     -0.00008250934481
H   2.47331421164041      6.74068466339473      0.00017162982210
H   4.60066897122302     -5.51237575717576      0.00039007446835
H   -2.47331820069565      6.74068209160650      0.00047297644710
H   -0.00000978838621     -6.73852780445195      0.00458867820736
H   -5.83530143450167      3.36927132229595      0.00410314985360
H   2.47330840367253     -6.74068500242887      0.00027980126949
H   -4.60067436136587      5.51237839860371      0.00002010017831
H   -5.83527902699321     -3.36928859177951     -0.00451481925734
H   -2.47329986759855     -6.74067870613986     -0.00016951527498
H   -7.07385728692578      1.22822084484047     -0.00046143985387
H   -4.60067330624313     -5.51236229778631      0.00021776644566
H   -7.07385645456741     -1.22822025997701     -0.00017736581114

    units angstrom      # Angstroms are the default
    no_reorient         # Geometry fixed, default
    symmetry c1         # C1 symmetry, default
}

set {
    scf_type DF         # Density fitting, faster than exact integrals
    freeze_core True    # Freeze core electrons
    basis jun-cc-pVDZ   # Jun-cc-pVDZ basis set, recommended for sSAPT0 in https://doi.org/10.1063/1.4867135
}

energy('ssapt0')        # Compute sSAPT0 energy, includes also SAPT0
--------------------------------------------------------------------------

  //              Dimer HF             //
    Molecular point group: c1
  Charge       = 1
  Multiplicity = 1
  Basis Set: JUN-CC-PVDZ
    Blend: JUN-CC-PVDZ
  Basis Set: (JUN-CC-PVDZ AUX)
    Blend: JUN-CC-PVDZ-JKFIT
  @DF-RHF Final Energy: -2359.20519040708405
    Total Energy =                      -2359.2051904070831370
 Dipole X            :         -0.0030287            0.0006313           -0.0023974
 Dipole Y            :         -0.0554941            0.0560211            0.0005270
 Dipole Z            :         14.6016722          -18.9639320           -4.3622599
 Magnitude           :                                                    4.3622606
  //            Monomer A HF           //
    Molecular point group: c1
  Multiplicity = 1
  Basis Set: JUN-CC-PVDZ
    Blend: JUN-CC-PVDZ
  Basis Set: (JUN-CC-PVDZ AUX)
    Blend: JUN-CC-PVDZ-JKFIT
  @DF-RHF Final Energy:  -303.29839216077448
    Total Energy =                       -303.2983921607744833
  //            Monomer B HF           //
    Molecular point group: c1

    Geometry (in Angstrom), charge = 0, multiplicity = 1:

       Center              X                  Y                   Z               Mass
    ------------   -----------------  -----------------  -----------------  -----------------
      Gh(C)           0.680066520158    -0.008042372515    -4.707155812817    12.000000000000
      Gh(C)          -0.680504479842    -0.006014372515    -4.706771812817    12.000000000000
      Gh(N)          -1.085635479842    -0.005016372515    -3.388447812817    14.003074004430
      Gh(C)           0.000107520158    -0.001740372515    -2.607046812817    12.000000000000
      Gh(C)          -2.477365479842     0.044389627485    -2.920468812817    12.000000000000
      Gh(N)           1.085221520158    -0.005016372515    -3.388447812817    14.003074004430
      Gh(H)           1.385145520158    -0.015870372515    -5.524594812817     1.007825032230
      Gh(H)          -1.385302479842    -0.006204372515    -5.524440812817     1.007825032230
      Gh(H)          -0.000009479842     0.000006627485    -1.525957812817     1.007825032230
      Gh(C)           2.478116520158    -0.021908372515    -2.923349812817    12.000000000000
      Gh(H)           2.490591520158     0.005436627485    -1.833096812817     1.007825032230
      Gh(H)           2.967027520158    -0.935354372515    -3.270525812817     1.007825032230
      Gh(H)           3.001427520158     0.853574627485    -3.314821812817     1.007825032230
      Gh(H)          -2.857359479842     1.066460627485    -3.000427812817     1.007825032230
      Gh(H)          -3.082679479842    -0.625694372515    -3.533532812817     1.007825032230
      Gh(H)          -2.518128479842    -0.282594372515    -1.880520812817     1.007825032230
         C            1.225311895423     0.707538288405     0.514910814466    12.000000000000
         C            1.225323856051    -0.707538895085     0.502580004896    12.000000000000
         C           -0.000006153932     1.414965913575     0.502046381375    12.000000000000
         C            2.456448753949     1.418327886663     0.517797671866    12.000000000000
         C            0.000010827279    -1.414976499150     0.512245938700    12.000000000000
         C           -1.225300948908     0.707545373469     0.517162334789    12.000000000000
         C            2.456437755320    -1.418323304396     0.500334848039    12.000000000000
         C           -0.000001332978     2.836801030766     0.499642831241    12.000000000000
         C            3.681826697470     0.709317955486     0.500683637837    12.000000000000
         C            2.455120048865     2.834223660974     0.500581080876    12.000000000000
         C            3.681821105219    -0.709333839944     0.516756121855    12.000000000000
         C           -1.225313598688    -0.707527516059     0.503652766323    12.000000000000
         C            1.226699581202     3.543469483479     0.516940153786    12.000000000000
         C            0.000004784858    -2.836782139751     0.517094106321    12.000000000000
         C           -2.456436032848     1.418316917770     0.517197730635    12.000000000000
         C            2.455123417779    -2.834230029103     0.516604213488    12.000000000000
         C           -1.226714364589     3.543469063235     0.517043487005    12.000000000000
         C            4.914517295202     1.427172871975     0.507164320867    12.000000000000
         C            3.693150191476     3.542795292030     0.507214120503    12.000000000000
         C           -2.456437600068    -1.418313281354     0.500309809914    12.000000000000
         C            1.226704841943    -3.543474242421     0.500970023036    12.000000000000
         C           -2.455125398508     2.834216662119     0.500587457223    12.000000000000
         C            4.914524380782    -1.427186910459     0.510137063601    12.000000000000
         C            1.221424613699     4.970134064745     0.510275497861    12.000000000000
         C            4.893008229321     2.825187999512     0.508380989225    12.000000000000
         C           -1.226697008489    -3.543470997592     0.501237227446    12.000000000000
         C           -3.681818976526     0.709324966217     0.500696318317    12.000000000000
         C            3.693147101150    -3.542801341905     0.510254954162    12.000000000000
         C           -1.221432251994     4.970128297348     0.510458993233    12.000000000000
         C            6.134770972926     0.680547946591     0.507934095416    12.000000000000
         C            3.656788880610     4.972953243053     0.508122758285    12.000000000000
         C           -2.455126907733    -2.834215093576     0.516359855690    12.000000000000
         C           -3.681819179061    -0.709325703983     0.516873743434    12.000000000000
         C            4.893012617914    -2.825200106147     0.508992141121    12.000000000000
         C           -0.000001073113     5.650447365518     0.509227684527    12.000000000000
         C            6.134775112332    -0.680554854590     0.509199415932    12.000000000000
         C            2.478131482856     5.653576750817     0.509411537935    12.000000000000
         C            1.221422404738    -4.970127055448     0.507476000838    12.000000000000
         C           -3.693162383965     3.542796953677     0.507379627962    12.000000000000
         C           -1.221428520945    -4.970118304111     0.507363239005    12.000000000000
         C           -4.914521807942     1.427175446480     0.507241265874    12.000000000000
         C            3.656787019679    -4.972955226754     0.509573258819    12.000000000000
         C           -2.478138530106     5.653574422014     0.509696062944    12.000000000000
         C           -3.693141738564    -3.542790219494     0.510138828006    12.000000000000
         C           -4.914512483053    -1.427181000542     0.510171760775    12.000000000000
         C           -0.000006008926    -5.650438287528     0.508832180405    12.000000000000
         C           -4.893020484101     2.825188598404     0.508370907365    12.000000000000
         C            2.478125993298    -5.653573544403     0.508482658027    12.000000000000
         C           -3.656798710258     4.972956181527     0.508299438660    12.000000000000
         C           -4.892999478856    -2.825191767575     0.508838105423    12.000000000000
         C           -2.478128498083    -5.653566170521     0.508207470380    12.000000000000
         C           -6.134770503331     0.680548765741     0.507908543714    12.000000000000
         C           -3.656788833189    -4.972944023485     0.509358971003    12.000000000000
         C           -6.134765042913    -0.680553915997     0.509178940137    12.000000000000
         H            5.835288495816     3.369275894439     0.512740314888     1.007825032230
         H            7.073859172747     1.228217248385     0.508395738810     1.007825032230
         H            4.600663264174     5.512380801938     0.508627959037     1.007825032230
         H            5.835283387305    -3.369306057244     0.504537673806     1.007825032230
         H           -0.000012151306     6.738530673622     0.504878439519     1.007825032230
         H            7.073861171831    -1.228226943259     0.508690677838     1.007825032230
         H            2.473313731799     6.740684290880     0.508944817005     1.007825032230
         H            4.600668491381    -5.512376129691     0.509163261651     1.007825032230
         H           -2.473318680537     6.740681719092     0.509246163630     1.007825032230
         H           -0.000010268228    -6.738528176967     0.513361865390     1.007825032230
         H           -5.835301914343     3.369270949781     0.512876337036     1.007825032230
         H            2.473307923831    -6.740685374944     0.509052988452     1.007825032230
         H           -4.600674841208     5.512378026089     0.508793287361     1.007825032230
         H           -5.835279506835    -3.369288964294     0.504258367925     1.007825032230
         H           -2.473300347440    -6.740679078655     0.508603671908     1.007825032230
         H           -7.073857766768     1.228220472326     0.508311747329     1.007825032230
         H           -4.600673786085    -5.512362670301     0.508990953628     1.007825032230
         H           -7.073856934409    -1.228220632492     0.508595821371     1.007825032230

  Charge       = 0
  Multiplicity = 1
  Basis Set: JUN-CC-PVDZ
    Blend: JUN-CC-PVDZ
  Basis Set: (JUN-CC-PVDZ AUX)
    Blend: JUN-CC-PVDZ-JKFIT

    Orbital Energies [Eh]
    ---------------------

    Doubly Occupied:

       1A    -11.260596     2A    -11.260178     3A    -11.260106
       4A    -11.259421     5A    -11.259357     6A    -11.259199
       7A    -11.258966     8A    -11.258915     9A    -11.258860
      10A    -11.258568    11A    -11.258551    12A    -11.258446
      13A    -11.258389    14A    -11.258386    15A    -11.258381
      16A    -11.258352    17A    -11.258337    18A    -11.258322
      19A    -11.258320    20A    -11.258308    21A    -11.258305
      22A    -11.258260    23A    -11.258232    24A    -11.258008
      25A    -11.257255    26A    -11.257218    27A    -11.257164
      28A    -11.257078    29A    -11.257027    30A    -11.256967
      31A    -11.256357    32A    -11.256316    33A    -11.256245
      34A    -11.256186    35A    -11.256137    36A    -11.256110
      37A    -11.252206    38A    -11.252200    39A    -11.252198
      40A    -11.252192    41A    -11.252164    42A    -11.252159
      43A    -11.251297    44A    -11.251290    45A    -11.251282
      46A    -11.251272    47A    -11.251266    48A    -11.251265
      49A    -11.250767    50A    -11.250761    51A    -11.250759
      52A    -11.250753    53A    -11.250725    54A    -11.250720
      55A     -1.243871    56A     -1.219652    57A     -1.219614
      58A     -1.189383    59A     -1.189360    60A     -1.180770
      61A     -1.157406    62A     -1.148818    63A     -1.135329
      64A     -1.135288    65A     -1.113043    66A     -1.113037
      67A     -1.082255    68A     -1.082241    69A     -1.078430
      70A     -1.065839    71A     -1.065828    72A     -1.039233
      73A     -1.024080    74A     -1.021592    75A     -1.021517
      76A     -1.017577    77A     -1.012661    78A     -0.986853
      79A     -0.986782    80A     -0.961734    81A     -0.961672
      82A     -0.894123    83A     -0.894108    84A     -0.887738
      85A     -0.885974    86A     -0.885941    87A     -0.881204
      88A     -0.881163    89A     -0.861740    90A     -0.837276
      91A     -0.818037    92A     -0.816418    93A     -0.811953
      94A     -0.811946    95A     -0.794538    96A     -0.794523
      97A     -0.746428    98A     -0.744673    99A     -0.733234
     100A     -0.733213   101A     -0.732020   102A     -0.732004
     103A     -0.716326   104A     -0.698827   105A     -0.698776
     106A     -0.693434   107A     -0.693368   108A     -0.661076
     109A     -0.652925   110A     -0.650958   111A     -0.650109
     112A     -0.650093   113A     -0.639213   114A     -0.639176
     115A     -0.629537   116A     -0.627337   117A     -0.627330
     118A     -0.606401   119A     -0.605692   120A     -0.601466
     121A     -0.599593   122A     -0.599502   123A     -0.593448
     124A     -0.591032   125A     -0.590982   126A     -0.585148
     127A     -0.576442   128A     -0.576307   129A     -0.567187
     130A     -0.567155   131A     -0.565771   132A     -0.565765
     133A     -0.558532   134A     -0.554701   135A     -0.554674
     136A     -0.538441   137A     -0.538435   138A     -0.538178
     139A     -0.538126   140A     -0.529549   141A     -0.528118
     142A     -0.522725   143A     -0.522671   144A     -0.500349
     145A     -0.495560   146A     -0.493073   147A     -0.487761
     148A     -0.484882   149A     -0.481579   150A     -0.481570
     151A     -0.470286   152A     -0.470238   153A     -0.450802
     154A     -0.450745   155A     -0.438984   156A     -0.438980
     157A     -0.404657   158A     -0.404619   159A     -0.403272
     160A     -0.375335   161A     -0.375329   162A     -0.349036
     163A     -0.337488   164A     -0.336444   165A     -0.336429
     166A     -0.310983   167A     -0.298034   168A     -0.284223
     169A     -0.284174   170A     -0.224795   171A     -0.224739

  @DF-RHF Final Energy: -2055.89546775333702

   => Energetics <=

    Nuclear Repulsion Energy =           6452.5568002797781446
    One-Electron Energy =              -15636.5302724886769283
    Two-Electron Energy =                7128.0780044555613131
    Total Energy =                      -2055.8954677533365611
 Dipole X            :         -0.0004964           -0.0000085           -0.0005049
 Dipole Y            :          0.0002785            0.0000167            0.0002952
 Dipole Z            :       -328.8098578          328.8117155            0.0018577
 Magnitude           :                                                    0.0019476

    SAPT Results
  --------------------------------------------------------------------------------------------------------
    Electrostatics                -21.10630853 [mEh]     -13.24440856 [kcal/mol]     -55.41460542 [kJ/mol]
      Elst10,r                    -21.10630853 [mEh]     -13.24440856 [kcal/mol]     -55.41460542 [kJ/mol]

    Exchange                       30.95005719 [mEh]      19.42145410 [kcal/mol]      81.25936394 [kJ/mol]
      Exch10                       30.95005719 [mEh]      19.42145410 [kcal/mol]      81.25936394 [kJ/mol]
      Exch10(S^2)                  30.67702569 [mEh]      19.25012425 [kcal/mol]      80.54251985 [kJ/mol]

    Induction                     -21.17424162 [mEh]     -13.28703722 [kcal/mol]     -55.59296372 [kJ/mol]
      Ind20,r                     -23.85161431 [mEh]     -14.96711395 [kcal/mol]     -62.62240475 [kJ/mol]
      Exch-Ind20,r                  7.85268366 [mEh]       4.92763339 [kcal/mol]      20.61721811 [kJ/mol]
      delta HF,r (2)               -5.17531097 [mEh]      -3.24755666 [kcal/mol]     -13.58777708 [kJ/mol]

    Dispersion                    -30.70531610 [mEh]     -19.26787675 [kcal/mol]     -80.61679631 [kJ/mol]
      Disp20                      -33.33401072 [mEh]     -20.91740753 [kcal/mol]     -87.51843309 [kJ/mol]
      Exch-Disp20                   2.62869462 [mEh]       1.64953078 [kcal/mol]       6.90163678 [kJ/mol]
      Disp20 (SS)                 -16.66700536 [mEh]     -10.45870376 [kcal/mol]     -43.75921655 [kJ/mol]
      Disp20 (OS)                 -16.66700536 [mEh]     -10.45870376 [kcal/mol]     -43.75921655 [kJ/mol]
      Exch-Disp20 (SS)              1.55367663 [mEh]       0.97494680 [kcal/mol]       4.07917742 [kJ/mol]
      Exch-Disp20 (OS)              1.07501800 [mEh]       0.67458398 [kcal/mol]       2.82245936 [kJ/mol]

  Total HF                        -11.33049297 [mEh]      -7.10999168 [kcal/mol]     -29.74820520 [kJ/mol]
  Total SAPT0                     -42.03580907 [mEh]     -26.37786843 [kcal/mol]    -110.36500151 [kJ/mol]

  Special recipe for scaled SAPT0 (see Manual):
    Electrostatics sSAPT0         -21.10630853 [mEh]     -13.24440856 [kcal/mol]     -55.41460542 [kJ/mol]
    Exchange sSAPT0                30.95005719 [mEh]      19.42145410 [kcal/mol]      81.25936394 [kJ/mol]
    Induction sSAPT0              -20.96269874 [mEh]     -13.15429205 [kcal/mol]     -55.03755795 [kJ/mol]
    Dispersion sSAPT0             -30.63450188 [mEh]     -19.22344015 [kcal/mol]     -80.43087361 [kJ/mol]
  Total sSAPT0                    -41.75345197 [mEh]     -26.20068667 [kcal/mol]    -109.62367303 [kJ/mol]
  --------------------------------------------------------------------------------------------------------

*** Psi4 exiting successfully. Buy a developer a beer!
