                               Psi4 1.9 release

  ==> Input File <==

--------------------------------------------------------------------------
memory 64 GB # how much memory is available ! Depends on the nodes/cores !

molecule dimer {
# monomer A
+1 1    # Charge and multiplicity
C  0.680067 -1.215929 5.408042
C -0.680504 -1.215545 5.406014
N -1.085635  0.102779 5.405016
C  0.000108  0.884180 5.401740
C -2.477365  0.570758 5.355610
N  1.085222  0.102779 5.405016
H  1.385146 -2.033368 5.415870
H -1.385302 -2.033214 5.406204
H -0.000009  1.965269 5.399993
C  2.478117  0.567877 5.421908
H  2.490592  1.658130 5.394563
H  2.967028  0.220701 6.335354
H  3.001428  0.176405 4.546425
H -2.857359  0.490799 4.333539
H -3.082679 -0.042306 6.025694
H -2.518128  1.610706 5.682594
--
# monomer B
0 1     # Charge and multiplicity
C   -3.66844126402057      7.80375217008252      0.00190004133558
C   -4.84759871934653      7.13124183134024     -0.00046653359696
C   -4.89495929917518      5.69633040353158     -0.00103944469517
C   -3.65374067877320      4.98073034095895      0.00662099703436
C   -2.40942512149445      7.11398103667468      0.00209438359570
C   -2.42547734410473      5.68112195090346     -0.00491050527438
C   -1.19474401643570      7.78614419430947      0.00356656413763
C   0.03795902893699      7.09942164575698      0.00139585983271
C   0.03033258741920      5.66948955970466     -0.00408752508301
C   -1.20098450790502      4.96927034791531      0.00488220885047
C   1.27795782581485      7.77285944319479      0.00277170839332
C   2.48535808472416      7.08769688523756      0.00049722048857
C   2.48612868491717      5.65477081024076     -0.00644052849921
C   1.25408291964399      4.95607811366431      0.00518741308898
C   3.75171459140595      7.76391215098033      0.00062407186893
C   4.92356605618520      7.07878077698995     -0.00143240883900
C   4.95560727132542      5.64344746336949     -0.00159282164606
C   3.70680153420475      4.94121020833308      0.00349873852374
H   -3.65852113775815      8.89082741913536      0.00358502958574
H   -1.18921332975660      8.87412108735996      0.00753844057883
H   1.28429423888630      8.86083343548850      0.00693053253426
H   3.75354208679975      8.85103527897216      0.00214659618464
H   5.86995870320703      7.61379483465560     -0.00235777588134
H   -5.78823170750226      7.67630221293400     -0.00202638095293
C   -6.09197395869619      4.99326001364347     -0.00291168518608
C   -6.12866148031747      3.58258016879823     -0.00171050815740
C   -3.66457974004527      3.56418217974434     -0.00463560277484
C   -4.89429820469869      2.86108077590057      0.00453338221034
C   -2.43733499489796      2.84761165708481      0.00719617576166
C   -1.20922785759670      3.54788693497833     -0.00648285103018
C   1.24714157216223      3.53468075142962     -0.00729145743546
C   0.01517603956900      2.83311183930540      0.00439272578912
C   2.46764517244071      2.82128997725533      0.00449278391269
C   3.70254947457969      3.52466015442405     -0.00899517692985
C   6.14498038638375      4.92757236613191     -0.00282626685777
C   6.16658835886151      3.51658447594213     -0.00065971342101
C   4.92460995845939      2.80840792535402      0.00587903281610
H   7.08990550964105      5.46688776622306     -0.00658814770723
H   -7.03104175110130      5.54268795285765     -0.00714490013730
C   -7.33969804112295      2.85841153457957     -0.00333767559888
C   -7.36488195805880      1.47032337158330     -0.00157213747140
C   -4.90350460894690      1.44442681216000     -0.00628840166334
C   -6.13225715261081      0.73993935705394      0.00600164231964
C   -3.67687480051673      0.72669714267312      0.00433931473643
C   -2.44565658606518      1.42964113326212     -0.00597039546461
C   -1.22360068130162      0.71532450163492      0.00545886906656
C   0.00763786931376      1.41738314923765      0.00392452278437
C   1.23121980774686      0.70211669058719     -0.01490206287210
C   2.46082110053113      1.40329203612573      0.00460244601878
C   3.68443025419614      0.68719842821222      0.00377365974158
C   4.91870890153864      1.39173456118907     -0.00862816189375
C   7.36980207796101      2.77948220318441     -0.00242013321349
C   7.38016266612146      1.39121750785509     -0.00087345036788
C   6.13979953912259      0.67411862320065      0.00545489144369
H   -8.27919079934664      3.40711804112415     -0.00763522772059
H   8.31511347147953      3.31811809662368     -0.00663070901292
C   -8.59175593758115      0.72483255304480     -0.00123170985383
C   -8.59902460370342     -0.63263980622873      0.00089141472904
C   -6.13981313911873     -0.67413663715361     -0.00609792660607
C   -7.38018411213749     -1.39126618958160      0.00131813493501
C   -4.91868448025621     -1.39175501803000      0.00624257154343
C   -3.68443829568458     -0.68723731573599     -0.00478966852105
C   -2.46081704024768     -1.40334517882457      0.00575341766833
C   -1.23116201232071     -0.70217386488055     -0.00636696112346
C   -0.00756962538737     -1.41741884941102      0.00108956317991
C   1.22364771588843     -0.71527537726392      0.01109518512883
C   2.44567064933149     -1.42964328900682     -0.00065482763106
C   3.67686670284649     -0.72670743155550     -0.00479541202602
C   6.13224884641929     -0.73997883984993     -0.00632338623858
C   4.90351914550401     -1.44445752054090      0.00751768830159
C   8.59901484869081      0.63260386666793     -0.00101133422380
C   8.59174548810050     -0.72485086719319      0.00072504603735
C   7.36486276438985     -1.47033266560598      0.00049486934466
H   -9.52830597181814      1.27684744919284     -0.00270163681798
H   9.54141097460619      1.17457248844457     -0.00206336648518
C   -7.36983790976868     -2.77954514593389      0.00312634335708
C   -4.92459910905015     -2.80843725734101     -0.00460528907921
C   -6.16662249566744     -3.51665219282533      0.00169655107992
C   -3.70251035970491     -3.52468154912026      0.00571878010666
C   -2.46764698511392     -2.82132596280400     -0.00632585824990
C   -0.01513347410770     -2.83314164539971     -0.00604426974092
C   -1.24712184122656     -3.53473217556300      0.00551968366725
C   1.20924506964357     -3.54791467864352      0.00805871345849
C   2.43733602215464     -2.84764173817541     -0.00608104485234
C   4.89430234377080     -2.86112296828604     -0.00526030478103
C   3.66461525504104     -3.56421984553201      0.00761911515957
C   6.12863901474565     -3.58258405771778      0.00096495711699
C   7.33967266469532     -2.85841330737039      0.00248018319869
H   -9.54144911125902     -1.17456346666430      0.00226083090216
H   9.52826186807155     -1.27691907390448      0.00197485379837
H   -8.31516504384864     -3.31814985321231      0.00729857188773
H   8.27915514249207     -3.40714078989363      0.00681973918158
C   -6.14499418870218     -4.92764727278338      0.00302254913999
C   -3.70678334799751     -4.94126171411716     -0.00679841894792
C   -4.95559005800169     -5.64349397349412      0.00116871569699
C   -2.48612132622665     -5.65478557440947      0.00614125209662
C   -1.25405833548005     -4.95612205000132     -0.00503435388927
C   1.20101257386816     -4.96928038819302     -0.00385322963129
C   -0.03033667441341     -5.66952030313900      0.00398997003238
C   3.65375010132847     -4.98074377541453     -0.00309522988330
C   2.42549269587528     -5.68117463552727      0.00628170066869
C   6.09196561781097     -4.99325796338655      0.00325918379042
C   4.89497644461045     -5.69634842095790      0.00202298796027
H   -7.08989238804069     -5.46699984223871      0.00742531082125
H   7.03105520920009     -5.54265853633254      0.00683896355417
C   -4.92354532219813     -7.07882109967734      0.00061394679214
C   -2.48534208823777     -7.08772807792913     -0.00189594564379
C   -3.75168589177895     -7.76394715763627     -0.00170126671874
C   -0.03794895698805     -7.09946487446944     -0.00168022049625
C   -1.27795610040136     -7.77290438466689     -0.00366491325785
C   2.40944432072629     -7.11402201200282     -0.00081701968533
C   1.19474993715296     -7.78618536556242     -0.00296931056689
C   4.84762105249800     -7.13126211057943      0.00168979497423
C   3.66847160587561     -7.80378799294376     -0.00065863938960
H   -5.86994035041618     -7.61383059804164      0.00215798365757
H   5.78824962538815     -7.67633218931421      0.00281691445618
H   -3.75352693944918     -8.85107156923607     -0.00353718114765
H   -1.28430440589466     -8.86087539249706     -0.00809229711623
H   1.18922157469537     -8.87416062058945     -0.00706194725726
H   3.65854661482387     -8.89086063405326     -0.00231318081200

    units angstrom      # Angstroms are the default
    no_reorient         # Geometry fixed, default
    symmetry c1         # C1 symmetry, default
}

set {
    scf_type DF         # Density fitting, faster than exact integrals
    freeze_core True    # Freeze core electrons
    basis jun-cc-pVDZ   # Jun-cc-pVDZ basis set, recommended for sSAPT0 in https://doi.org/10.1063/1.4867135
}

energy('ssapt0')        # Compute sSAPT0 energy, includes also SAPT0
--------------------------------------------------------------------------

  //              Dimer HF             //
    Molecular point group: c1
  Charge       = 1
  Multiplicity = 1
  Basis Set: JUN-CC-PVDZ
    Blend: JUN-CC-PVDZ
  Basis Set: (JUN-CC-PVDZ AUX)
    Blend: JUN-CC-PVDZ-JKFIT
  @DF-RHF Final Energy: -3953.65244576870282
    Total Energy =                      -3953.6524457687046379
 Dipole X            :          0.0016925            0.0004804            0.0021729
 Dipole Y            :         -1.5733451            1.8866171            0.3132720
 Dipole Z            :        -24.6036788           32.7387402            8.1350614
 Magnitude           :                                                    8.1410914
  //            Monomer A HF           //
    Molecular point group: c1
  Multiplicity = 1
  Basis Set: JUN-CC-PVDZ
    Blend: JUN-CC-PVDZ
  Basis Set: (JUN-CC-PVDZ AUX)
    Blend: JUN-CC-PVDZ-JKFIT
  @DF-RHF Final Energy:  -303.29765603472526
    Total Energy =                       -303.2976560347252644
  //            Monomer B HF           //
    Molecular point group: c1

    Geometry (in Angstrom), charge = 0, multiplicity = 1:

       Center              X                  Y                   Z               Mass
    ------------   -----------------  -----------------  -----------------  -----------------
      Gh(C)           0.680062820275    -1.215917226251     4.996330600792    12.000000000000
      Gh(C)          -0.680508179725    -1.215533226251     4.994302600792    12.000000000000
      Gh(N)          -1.085639179725     0.102790773749     4.993304600792    14.003074004430
      Gh(C)           0.000103820275     0.884191773749     4.990028600792    12.000000000000
      Gh(C)          -2.477369179725     0.570769773749     4.943898600792    12.000000000000
      Gh(N)           1.085217820275     0.102790773749     4.993304600792    14.003074004430
      Gh(H)           1.385141820275    -2.033356226251     5.004158600792     1.007825032230
      Gh(H)          -1.385306179725    -2.033202226251     4.994492600792     1.007825032230
      Gh(H)          -0.000013179725     1.965280773749     4.988281600792     1.007825032230
      Gh(C)           2.478112820275     0.567888773749     5.010196600792    12.000000000000
      Gh(H)           2.490587820275     1.658141773750     4.982851600792     1.007825032230
      Gh(H)           2.967023820275     0.220712773749     5.923642600792     1.007825032230
      Gh(H)           3.001423820275     0.176416773749     4.134713600792     1.007825032230
      Gh(H)          -2.857363179725     0.490810773749     3.921827600792     1.007825032230
      Gh(H)          -3.082683179725    -0.042294226251     5.613982600792     1.007825032230
      Gh(H)          -2.518132179725     1.610717773749     5.270882600792     1.007825032230
         C           -3.668445443746     7.803763943832    -0.409811357873    12.000000000000
         C           -4.847602899072     7.131253605090    -0.412177932805    12.000000000000
         C           -4.894963478901     5.696342177281    -0.412750843903    12.000000000000
         C           -3.653744858499     4.980742114708    -0.405090402174    12.000000000000
         C           -2.409429301220     7.113992810424    -0.409617015612    12.000000000000
         C           -2.425481523830     5.681133724653    -0.416621904483    12.000000000000
         C           -1.194748196161     7.786155968059    -0.408144835071    12.000000000000
         C            0.037954849212     7.099433419506    -0.410315539375    12.000000000000
         C            0.030328407694     5.669501333454    -0.415798924291    12.000000000000
         C           -1.200988687630     4.969282121665    -0.406829190358    12.000000000000
         C            1.277953646089     7.772871216944    -0.408939690815    12.000000000000
         C            2.485353904999     7.087708658987    -0.411214178720    12.000000000000
         C            2.486124505192     5.654782583990    -0.418151927707    12.000000000000
         C            1.254078739919     4.956089887414    -0.406523986119    12.000000000000
         C            3.751710411681     7.763923924730    -0.411087327339    12.000000000000
         C            4.923561876460     7.078792550739    -0.413143808047    12.000000000000
         C            4.955603091600     5.643459237119    -0.413304220854    12.000000000000
         C            3.706797354479     4.941221982083    -0.408212660684    12.000000000000
         H           -3.658525317484     8.890839192885    -0.408126369622     1.007825032230
         H           -1.189217509482     8.874132861109    -0.404172958629     1.007825032230
         H            1.284290059161     8.860845209238    -0.404780866674     1.007825032230
         H            3.753537907074     8.851047052722    -0.409564803024     1.007825032230
         H            5.869954523482     7.613806608405    -0.414069175090     1.007825032230
         H           -5.788235887228     7.676313986684    -0.413737780161     1.007825032230
         C           -6.091978138422     4.993271787393    -0.414623084394    12.000000000000
         C           -6.128665660043     3.582591942548    -0.413421907366    12.000000000000
         C           -3.664583919771     3.564193953494    -0.416347001983    12.000000000000
         C           -4.894302384424     2.861092549650    -0.407178016998    12.000000000000
         C           -2.437339174623     2.847623430834    -0.404515223447    12.000000000000
         C           -1.209232037322     3.547898708728    -0.418194250238    12.000000000000
         C            1.247137392437     3.534692525179    -0.419002856644    12.000000000000
         C            0.015171859844     2.833123613055    -0.407318673419    12.000000000000
         C            2.467640992715     2.821301751005    -0.407218615296    12.000000000000
         C            3.702545294854     3.524671928174    -0.420706576138    12.000000000000
         C            6.144976206658     4.927584139881    -0.414537666066    12.000000000000
         C            6.166584179136     3.516596249692    -0.412371112629    12.000000000000
         C            4.924605778734     2.808419699104    -0.405832366392    12.000000000000
         H            7.089901329916     5.466899539973    -0.418299546915     1.007825032230
         H           -7.031045930827     5.542699726607    -0.418856299345     1.007825032230
         C           -7.339702220848     2.858423308329    -0.415049074807    12.000000000000
         C           -7.364886137784     1.470335145333    -0.413283536680    12.000000000000
         C           -4.903508788672     1.444438585909    -0.417999800872    12.000000000000
         C           -6.132261332336     0.739951130803    -0.405709756889    12.000000000000
         C           -3.676878980242     0.726708916423    -0.407372084472    12.000000000000
         C           -2.445660765791     1.429652907012    -0.417681794673    12.000000000000
         C           -1.223604861027     0.715336275384    -0.406252530142    12.000000000000
         C            0.007633689588     1.417394922987    -0.407786876424    12.000000000000
         C            1.231215628021     0.702128464337    -0.426613462080    12.000000000000
         C            2.460816920806     1.403303809875    -0.407108953189    12.000000000000
         C            3.684426074471     0.687210201962    -0.407937739467    12.000000000000
         C            4.918704721813     1.391746334939    -0.420339561102    12.000000000000
         C            7.369797898236     2.779493976934    -0.414131532422    12.000000000000
         C            7.380158486396     1.391229281605    -0.412584849576    12.000000000000
         C            6.139795359397     0.674130396950    -0.406256507765    12.000000000000
         H           -8.279194979072     3.407129814874    -0.419346626929     1.007825032230
         H            8.315109291754     3.318129870373    -0.418342108221     1.007825032230
         C           -8.591760117307     0.724844326794    -0.412943109062    12.000000000000
         C           -8.599028783429    -0.632628032479    -0.410819984479    12.000000000000
         C           -6.139817318844    -0.674124863404    -0.417809325814    12.000000000000
         C           -7.380188291863    -1.391254415832    -0.410393264273    12.000000000000
         C           -4.918688659982    -1.391743244281    -0.405468827665    12.000000000000
         C           -3.684442475410    -0.687225541986    -0.416501067729    12.000000000000
         C           -2.460821219973    -1.403333405075    -0.405957981540    12.000000000000
         C           -1.231166192046    -0.702162091131    -0.418078360332    12.000000000000
         C           -0.007573805113    -1.417407075662    -0.410621836028    12.000000000000
         C            1.223643536163    -0.715263603514    -0.400616214079    12.000000000000
         C            2.445666469606    -1.429631515257    -0.412366226839    12.000000000000
         C            3.676862523121    -0.726695657806    -0.416506811234    12.000000000000
         C            6.132244666694    -0.739967066100    -0.418034785447    12.000000000000
         C            4.903514965779    -1.444445746791    -0.404193710907    12.000000000000
         C            8.599010668965     0.632615640417    -0.412722733432    12.000000000000
         C            8.591741308375    -0.724839093444    -0.410986353171    12.000000000000
         C            7.364858584664    -1.470320891856    -0.411216529864    12.000000000000
         H           -9.528310151544     1.276859222942    -0.414413036026     1.007825032230
         H            9.541406794881     1.174584262194    -0.413774765693     1.007825032230
         C           -7.369842089494    -2.779533372184    -0.408585055851    12.000000000000
         C           -4.924603288776    -2.808425483592    -0.416316688287    12.000000000000
         C           -6.166626675393    -3.516640419076    -0.410014848128    12.000000000000
         C           -3.702514539430    -3.524669775371    -0.405992619102    12.000000000000
         C           -2.467651164839    -2.821314189055    -0.418037257458    12.000000000000
         C           -0.015137653833    -2.833129871650    -0.417755668949    12.000000000000
         C           -1.247126020952    -3.534720401814    -0.406191715541    12.000000000000
         C            1.209240889918    -3.547902904894    -0.403652685750    12.000000000000
         C            2.437331842429    -2.847629964426    -0.417792444061    12.000000000000
         C            4.894298164045    -2.861111194537    -0.416971703989    12.000000000000
         C            3.664611075316    -3.564208071783    -0.404092284049    12.000000000000
         C            6.128634835020    -3.582572283968    -0.410746442091    12.000000000000
         C            7.339668484970    -2.858401533621    -0.409231216010    12.000000000000
         H           -9.541453290984    -1.174551692915    -0.409450568306     1.007825032230
         H            9.528257688346    -1.276907300155    -0.409736545410     1.007825032230
         H           -8.315169223574    -3.318138079463    -0.404412827320     1.007825032230
         H            8.279150962767    -3.407129016144    -0.404891660027     1.007825032230
         C           -6.144998368428    -4.927635499034    -0.408688850068    12.000000000000
         C           -3.706787527723    -4.941249940368    -0.418509818156    12.000000000000
         C           -4.955594237727    -5.643482199745    -0.410542683511    12.000000000000
         C           -2.486125505952    -5.654773800660    -0.405570147112    12.000000000000
         C           -1.254062515205    -4.956110276252    -0.416745753097    12.000000000000
         C            1.201008394143    -4.969268614444    -0.415564628839    12.000000000000
         C           -0.030340854139    -5.669508529390    -0.407721429176    12.000000000000
         C            3.653745921603    -4.980732001665    -0.414806629091    12.000000000000
         C            2.425488516150    -5.681162861778    -0.405429698540    12.000000000000
         C            6.091961438086    -4.993246189637    -0.408452215418    12.000000000000
         C            4.894972264885    -5.696336647208    -0.409688411248    12.000000000000
         H           -7.089896567766    -5.466988068489    -0.404286088387     1.007825032230
         H            7.031051029475    -5.542646762583    -0.404872435654     1.007825032230
         C           -4.923549501924    -7.078809325928    -0.411097452416    12.000000000000
         C           -2.485346267963    -7.087716304180    -0.413607344852    12.000000000000
         C           -3.751690071504    -7.763935383887    -0.413412665927    12.000000000000
         C           -0.037953136713    -7.099453100720    -0.413391619704    12.000000000000
         C           -1.277960280127    -7.772892610917    -0.415376312466    12.000000000000
         C            2.409440141001    -7.114010238253    -0.412528418894    12.000000000000
         C            1.194745757428    -7.786173591813    -0.414680709775    12.000000000000
         C            4.847616872773    -7.131250336830    -0.410021604234    12.000000000000
         C            3.668467426150    -7.803776219194    -0.412370038598    12.000000000000
         H           -5.869944530142    -7.613818824292    -0.409553415551     1.007825032230
         H            5.788245445663    -7.676320415565    -0.408894484752     1.007825032230
         H           -3.753531119175    -8.851059795487    -0.415248580356     1.007825032230
         H           -1.284308585620    -8.860863618748    -0.419803696324     1.007825032230
         H            1.189217394970    -8.874148846840    -0.418773346465     1.007825032230
         H            3.658542435098    -8.890848860304    -0.414024580020     1.007825032230

  Charge       = 0
  Multiplicity = 1
  Basis Set: JUN-CC-PVDZ
    Blend: JUN-CC-PVDZ
  Basis Set: (JUN-CC-PVDZ AUX)
    Blend: JUN-CC-PVDZ-JKFIT

    Orbital Energies [Eh]
    ---------------------

    Doubly Occupied:

       1A    -11.263985     2A    -11.263666     3A    -11.263664
       4A    -11.263317     5A    -11.263315     6A    -11.263280
       7A    -11.263123     8A    -11.263099     9A    -11.263099
      10A    -11.262933    11A    -11.262776    12A    -11.262773
      13A    -11.262293    14A    -11.262291    15A    -11.262222
      16A    -11.262220    17A    -11.262164    18A    -11.262134
      19A    -11.262090    20A    -11.262052    21A    -11.262049
      22A    -11.261902    23A    -11.261898    24A    -11.261781
      25A    -11.261769    26A    -11.261753    27A    -11.261748
      28A    -11.261702    29A    -11.261694    30A    -11.261615
      31A    -11.261589    32A    -11.261586    33A    -11.261560
      34A    -11.261559    35A    -11.261537    36A    -11.261493
      37A    -11.261361    38A    -11.261352    39A    -11.261346
      40A    -11.261340    41A    -11.261333    42A    -11.261326
      43A    -11.261317    44A    -11.261301    45A    -11.261296
      46A    -11.261273    47A    -11.261269    48A    -11.261265
      49A    -11.261100    50A    -11.261066    51A    -11.261064
      52A    -11.260983    53A    -11.260982    54A    -11.260911
      55A    -11.259952    56A    -11.259938    57A    -11.259936
      58A    -11.259906    59A    -11.259905    60A    -11.259889
      61A    -11.259327    62A    -11.259302    63A    -11.259298
      64A    -11.259247    65A    -11.259243    66A    -11.259215
      67A    -11.258955    68A    -11.258937    69A    -11.258935
      70A    -11.258907    71A    -11.258905    72A    -11.258893
      73A    -11.254549    74A    -11.254547    75A    -11.254544
      76A    -11.254543    77A    -11.254539    78A    -11.254536
      79A    -11.253686    80A    -11.253685    81A    -11.253682
      82A    -11.253679    83A    -11.253678    84A    -11.253673
      85A    -11.253601    86A    -11.253600    87A    -11.253598
      88A    -11.253595    89A    -11.253593    90A    -11.253589
      91A    -11.253077    92A    -11.253075    93A    -11.253072
      94A    -11.253071    95A    -11.253067    96A    -11.253064
      97A     -1.254000    98A     -1.239044    99A     -1.239037
     100A     -1.220503   101A     -1.220497   102A     -1.215494
     103A     -1.201076   104A     -1.195641   105A     -1.188192
     106A     -1.188184   107A     -1.173798   108A     -1.173796
     109A     -1.155671   110A     -1.155668   111A     -1.152766
     112A     -1.144755   113A     -1.144752   114A     -1.128605
     115A     -1.114756   116A     -1.113195   117A     -1.112534
     118A     -1.112516   119A     -1.111649   120A     -1.088468
     121A     -1.088453   122A     -1.076993   123A     -1.076991
     124A     -1.067657   125A     -1.067627   126A     -1.065017
     127A     -1.046837   128A     -1.046829   129A     -1.040518
     130A     -1.038766   131A     -1.038765   132A     -1.025284
     133A     -1.021439   134A     -1.021384   135A     -1.007213
     136A     -1.006845   137A     -1.003830   138A     -1.000531
     139A     -1.000483   140A     -0.991104   141A     -0.971028
     142A     -0.970979   143A     -0.955916   144A     -0.955860
     145A     -0.905641   146A     -0.905599   147A     -0.905578
     148A     -0.905537   149A     -0.904385   150A     -0.892412
     151A     -0.892353   152A     -0.890408   153A     -0.890352
     154A     -0.889493   155A     -0.872249   156A     -0.869082
     157A     -0.851573   158A     -0.847906   159A     -0.847887
     160A     -0.845640   161A     -0.843054   162A     -0.834599
     163A     -0.834587   164A     -0.828147   165A     -0.828142
     166A     -0.784586   167A     -0.784576   168A     -0.783703
     169A     -0.783678   170A     -0.782324   171A     -0.782303
     172A     -0.782074   173A     -0.767025   174A     -0.760837
     175A     -0.750617   176A     -0.733515   177A     -0.727105
     178A     -0.727088   179A     -0.725118   180A     -0.724575
     181A     -0.724554   182A     -0.718539   183A     -0.713813
     184A     -0.713807   185A     -0.699609   186A     -0.699594
     187A     -0.686169   188A     -0.685985   189A     -0.685982
     190A     -0.682203   191A     -0.682194   192A     -0.678817
     193A     -0.653660   194A     -0.650906   195A     -0.650875
     196A     -0.649854   197A     -0.649841   198A     -0.649595
     199A     -0.640974   200A     -0.640942   201A     -0.640115
     202A     -0.639188   203A     -0.636060   204A     -0.636031
     205A     -0.629171   206A     -0.617726   207A     -0.615331
     208A     -0.615309   209A     -0.608832   210A     -0.608825
     211A     -0.599139   212A     -0.599120   213A     -0.598777
     214A     -0.598638   215A     -0.598620   216A     -0.598083
     217A     -0.595094   218A     -0.595081   219A     -0.594752
     220A     -0.594276   221A     -0.591990   222A     -0.591986
     223A     -0.587433   224A     -0.577818   225A     -0.577807
     226A     -0.575701   227A     -0.575692   228A     -0.573408
     229A     -0.569570   230A     -0.568184   231A     -0.568159
     232A     -0.566784   233A     -0.566775   234A     -0.560936
     235A     -0.558754   236A     -0.558730   237A     -0.558450
     238A     -0.554398   239A     -0.550580   240A     -0.547495
     241A     -0.544285   242A     -0.535016   243A     -0.534995
     244A     -0.533567   245A     -0.533547   246A     -0.528104
     247A     -0.528089   248A     -0.527832   249A     -0.517206
     250A     -0.517172   251A     -0.515373   252A     -0.515367
     253A     -0.509666   254A     -0.509652   255A     -0.498052
     256A     -0.496481   257A     -0.496452   258A     -0.493804
     259A     -0.493796   260A     -0.489440   261A     -0.481475
     262A     -0.477434   263A     -0.477433   264A     -0.474020
     265A     -0.469469   266A     -0.466553   267A     -0.466548
     268A     -0.458821   269A     -0.446727   270A     -0.446668
     271A     -0.441038   272A     -0.440780   273A     -0.440746
     274A     -0.434703   275A     -0.433920   276A     -0.407387
     277A     -0.407365   278A     -0.386424   279A     -0.386373
     280A     -0.385744   281A     -0.385744   282A     -0.383767
     283A     -0.354337   284A     -0.354319   285A     -0.350677
     286A     -0.338096   287A     -0.335590   288A     -0.335538
     289A     -0.332725   290A     -0.332722   291A     -0.307089
     292A     -0.301953   293A     -0.301895   294A     -0.300853
     295A     -0.286182   296A     -0.256480   297A     -0.253504
     298A     -0.253457   299A     -0.204272   300A     -0.204186

  @DF-RHF Final Energy: -3650.33910240968635

   => Energetics <=

    Nuclear Repulsion Energy =          15611.4211649754324753
    One-Electron Energy =              -36072.1283742802988854
    Two-Electron Energy =               16810.3681068951809721
    Total Energy =                      -3650.3391024096854380
 Dipole X            :         -0.0010530            0.0002112           -0.0008418
 Dipole Y            :          0.0043004           -0.0044281           -0.0001277
 Dipole Z            :        466.7971143         -466.8096804           -0.0125661
 Magnitude           :                                                    0.0125949

    SAPT Results
  --------------------------------------------------------------------------------------------------------
    Electrostatics                -10.38828591 [mEh]      -6.51874782 [kcal/mol]     -27.27444090 [kJ/mol]
      Elst10,r                    -10.38828591 [mEh]      -6.51874782 [kcal/mol]     -27.27444090 [kJ/mol]

    Exchange                        0.02153334 [mEh]       0.01351237 [kcal/mol]       0.05653577 [kJ/mol]
      Exch10                        0.02153334 [mEh]       0.01351237 [kcal/mol]       0.05653577 [kJ/mol]
      Exch10(S^2)                   0.02153327 [mEh]       0.01351233 [kcal/mol]       0.05653558 [kJ/mol]

    Induction                      -5.32057172 [mEh]      -3.33870916 [kcal/mol]     -13.96915913 [kJ/mol]
      Ind20,r                      -5.19953329 [mEh]      -3.26275640 [kcal/mol]     -13.65137278 [kJ/mol]
      Exch-Ind20,r                  0.00676340 [mEh]       0.00424410 [kcal/mol]       0.01775731 [kJ/mol]
      delta HF,r (2)               -0.12780183 [mEh]      -0.08019686 [kcal/mol]      -0.33554366 [kJ/mol]

    Dispersion                     -4.80252500 [mEh]      -3.01362994 [kcal/mol]     -12.60902766 [kJ/mol]
      Disp20                       -4.80965610 [mEh]      -3.01810477 [kcal/mol]     -12.62775035 [kJ/mol]
      Exch-Disp20                   0.00713110 [mEh]       0.00447483 [kcal/mol]       0.01872269 [kJ/mol]
      Disp20 (SS)                  -2.40482805 [mEh]      -1.50905238 [kcal/mol]      -6.31387518 [kJ/mol]
      Disp20 (OS)                  -2.40482805 [mEh]      -1.50905238 [kcal/mol]      -6.31387518 [kJ/mol]
      Exch-Disp20 (SS)              0.00501072 [mEh]       0.00314427 [kcal/mol]       0.01315564 [kJ/mol]
      Exch-Disp20 (OS)              0.00212038 [mEh]       0.00133056 [kcal/mol]       0.00556705 [kJ/mol]

  Total HF                        -15.68732429 [mEh]      -9.84394461 [kcal/mol]     -41.18706425 [kJ/mol]
  Total SAPT0                     -20.48984929 [mEh]     -12.85757455 [kcal/mol]     -53.79609191 [kJ/mol]

  Special recipe for scaled SAPT0 (see Manual):
    Electrostatics sSAPT0         -10.38828591 [mEh]      -6.51874782 [kcal/mol]     -27.27444090 [kJ/mol]
    Exchange sSAPT0                 0.02153334 [mEh]       0.01351237 [kcal/mol]       0.05653577 [kJ/mol]
    Induction sSAPT0               -5.32057165 [mEh]      -3.33870912 [kcal/mol]     -13.96915895 [kJ/mol]
    Dispersion sSAPT0              -4.80252493 [mEh]      -3.01362989 [kcal/mol]     -12.60902747 [kJ/mol]
  Total sSAPT0                    -20.48984915 [mEh]     -12.85757446 [kcal/mol]     -53.79609154 [kJ/mol]
  --------------------------------------------------------------------------------------------------------

*** Psi4 exiting successfully. Buy a developer a beer!
