                               Psi4 1.9 release

  ==> Input File <==

--------------------------------------------------------------------------
memory 48 GB # how much memory is available ! Depends on the nodes/cores !

molecule dimer {
# monomer A
-1 1    # Charge and multiplicity
B -1.977592e-04  2.742729e-04 -2.899966
F  1.123153e-16  1.430594e-17 -1.487181
F  1.147860e+00  6.757812e-01 -3.371107
F  1.191806e-02 -1.332011e+00 -3.370905
F -1.159666e+00  6.560735e-01 -3.370826
--
# monomer B
0 1     # Charge and multiplicity
C   1.22531237526482      0.70753866091955      0.00613762728373
C   1.22532433589282     -0.70753852257020     -0.00619318228664
C   -0.00000567409046      1.41496628609039     -0.00672680580738
C   2.45644923379077      1.41832825917820      0.00902448468363
C   0.00001130712078     -1.41497612663474      0.00347275151708
C   -1.22530046906674      0.70754574598412      0.00838914760619
C   2.45643823516184     -1.41832293188077     -0.00843833914343
C   -0.00000085313587      2.83680140328112     -0.00913035594137
C   3.68182717731192      0.70931832800114     -0.00808954934571
C   2.45512052870677      2.83422403348893     -0.00819210630633
C   3.68182158506039     -0.70933346742900      0.00798293467272
C   -1.22531311884624     -0.70752714354401     -0.00512042085974
C   1.22670006104402      3.54346985599427      0.00816696660346
C   0.00000526469929     -2.83678176723568      0.00832091913869
C   -2.45643555300670      1.41831729028492      0.00842454345199
C   2.45512389762097     -2.83422965658853      0.00783102630520
C   -1.22671388474763      3.54346943575023      0.00827029982280
C   4.91451777504333      1.42717324448953     -0.00160886631602
C   3.69315067131765      3.54279566454522     -0.00155906667985
C   -2.45643712022637     -1.41831290883911     -0.00846337726810
C   1.22670532178455     -3.54347386990643     -0.00780316414624
C   -2.45512491866593      2.83421703463423     -0.00818572995999
C   4.91452486062398     -1.42718653794377      0.00136387641845
C   1.22142509354026      4.97013443726031      0.00150231067809
C   4.89300870916237      2.82518837202648     -0.00039219795739
C   -1.22669652864725     -3.54347062507680     -0.00753595973677
C   -3.68181849668397      0.70932533873199     -0.00807686886569
C   3.69314758099218     -3.54280096939050      0.00148176697923
C   -1.22143177215231      4.97012866986289      0.00168580605083
C   6.13477145276790      0.68054831910577     -0.00083909176631
C   3.65678936045204      4.97295361556775     -0.00065042889723
C   -2.45512642789169     -2.83421472106065      0.00758666850712
C   -3.68181869921921     -0.70932533146830      0.00810055625144
C   4.89301309775526     -2.82519973363176      0.00021895393805
C   -0.00000059327114      5.65044773803267      0.00045449734393
C   6.13477559217374     -0.68055448207492      0.00042622874941
C   2.47813196269732      5.65357712333155      0.00063835075260
C   1.22142288457925     -4.97012668293268     -0.00129718634452
C   -3.69316190412301      3.54279732619245     -0.00139355922051
C   -1.22142804110313     -4.97011793159564     -0.00140994817719
C   -4.91452132810043      1.42717581899491     -0.00153192130862
C   3.65678749952045     -4.97295485423912      0.00080007163680
C   -2.47813805026426      5.65357479452875      0.00092287576113
C   -3.69314125872231     -3.54278984697859      0.00136564082345
C   -4.91451200321153     -1.42718062802730      0.00139857359209
C   -0.00000552908399     -5.65043791501335      0.00005899322272
C   -4.89302000425900      2.82518897091939     -0.00040227981744
C   2.47812647313991     -5.65357317188818     -0.00029052915548
C   -3.65679823041642      4.97295655404175     -0.00047374852278
C   -4.89299899901461     -2.82519139505969      0.00006491824035
C   -2.47812801824129     -5.65356579800621     -0.00056571680280
C   -6.13477002348955      0.68054913825639     -0.00086464346868
C   -3.65678835334731     -4.97294365097028      0.00058578382008
C   -6.13476456307132     -0.68055354348201      0.00040575295444
H   5.83528897565761      3.36927626695423      0.00396712770529
H   7.07385965258860      1.22821762089947     -0.00037744837300
H   4.60066374401555      5.51238117445323     -0.00014522814529
H   5.83528386714679     -3.36930568472863     -0.00423551337640
H   -0.00001167146422      6.73853104613662     -0.00389474766392
H   7.07386165167227     -1.22822657074368     -0.00008250934481
H   2.47331421164041      6.74068466339473      0.00017162982210
H   4.60066897122302     -5.51237575717576      0.00039007446835
H   -2.47331820069565      6.74068209160650      0.00047297644710
H   -0.00000978838621     -6.73852780445195      0.00458867820736
H   -5.83530143450167      3.36927132229595      0.00410314985360
H   2.47330840367253     -6.74068500242887      0.00027980126949
H   -4.60067436136587      5.51237839860371      0.00002010017831
H   -5.83527902699321     -3.36928859177951     -0.00451481925734
H   -2.47329986759855     -6.74067870613986     -0.00016951527498
H   -7.07385728692578      1.22822084484047     -0.00046143985387
H   -4.60067330624313     -5.51236229778631      0.00021776644566
H   -7.07385645456741     -1.22822025997701     -0.00017736581114

    units angstrom      # Angstroms are the default
    no_reorient         # Geometry fixed, default
    symmetry c1         # C1 symmetry, default
}

set {
    scf_type DF         # Density fitting, faster than exact integrals
    freeze_core True    # Freeze core electrons
    basis jun-cc-pVDZ   # Jun-cc-pVDZ basis set, recommended for sSAPT0 in https://doi.org/10.1063/1.4867135
}

energy('ssapt0')        # Compute sSAPT0 energy, includes also SAPT0
--------------------------------------------------------------------------

  //              Dimer HF             //
    Molecular point group: c1
  Charge       = -1
  Multiplicity = 1
  Basis Set: JUN-CC-PVDZ
    Blend: JUN-CC-PVDZ
  Basis Set: (JUN-CC-PVDZ AUX)
    Blend: JUN-CC-PVDZ-JKFIT
  @DF-RHF Final Energy: -2478.50110996052581
    Total Energy =                      -2478.5011099605253548
 Dipole X            :         -0.0003685            0.0000481           -0.0003204
 Dipole Y            :          0.0007067           -0.0001453            0.0005614
 Dipole Z            :        -14.6622894           17.7781228            3.1158333
 Magnitude           :                                                    3.1158334
  //            Monomer A HF           //
    Molecular point group: c1
  Multiplicity = 1
  Basis Set: JUN-CC-PVDZ
    Blend: JUN-CC-PVDZ
  Basis Set: (JUN-CC-PVDZ AUX)
    Blend: JUN-CC-PVDZ-JKFIT
  @DF-RHF Final Energy:  -422.77546221440741
    Total Energy =                       -422.7754622144074119
  //            Monomer B HF           //
    Molecular point group: c1

    Geometry (in Angstrom), charge = 0, multiplicity = 1:

       Center              X                  Y                   Z               Mass
    ------------   -----------------  -----------------  -----------------  -----------------
      Gh(B)          -0.000198161052     0.000273808717    -2.564956751962    11.009305360000
      Gh(F)          -0.000000401852    -0.000000464183    -1.152171751962    18.998403162730
      Gh(F)           1.147859598148     0.675780735817    -3.036097751962    18.998403162730
      Gh(F)           0.011917658148    -1.332011464183    -3.035895751962    18.998403162730
      Gh(F)          -1.159666401852     0.656073035817    -3.035816751962    18.998403162730
         C            1.225311973413     0.707538196736     0.341146875322    12.000000000000
         C            1.225323934041    -0.707538986754     0.328816065751    12.000000000000
         C           -0.000006075942     1.414965821907     0.328282442231    12.000000000000
         C            2.456448831939     1.418327794995     0.344033732722    12.000000000000
         C            0.000010905269    -1.414976590818     0.338481999555    12.000000000000
         C           -1.225300870919     0.707545281801     0.343398395644    12.000000000000
         C            2.456437833310    -1.418323396064     0.326570908895    12.000000000000
         C           -0.000001254988     2.836800939098     0.325878892097    12.000000000000
         C            3.681826775460     0.709317863818     0.326919698692    12.000000000000
         C            2.455120126855     2.834223569306     0.326817141732    12.000000000000
         C            3.681821183209    -0.709333931612     0.342992182711    12.000000000000
         C           -1.225313520698    -0.707527607727     0.329888827178    12.000000000000
         C            1.226699659192     3.543469391811     0.343176214641    12.000000000000
         C            0.000004862847    -2.836782231419     0.343330167177    12.000000000000
         C           -2.456435954859     1.418316826102     0.343433791490    12.000000000000
         C            2.455123495769    -2.834230120772     0.342840274343    12.000000000000
         C           -1.226714286599     3.543468971567     0.343279547861    12.000000000000
         C            4.914517373191     1.427172780306     0.333400381722    12.000000000000
         C            3.693150269466     3.542795200362     0.333450181358    12.000000000000
         C           -2.456437522078    -1.418313373022     0.326545870770    12.000000000000
         C            1.226704919933    -3.543474334090     0.327206083892    12.000000000000
         C           -2.455125320518     2.834216570451     0.326823518078    12.000000000000
         C            4.914524458772    -1.427187002127     0.336373124456    12.000000000000
         C            1.221424691688     4.970133973077     0.336511558716    12.000000000000
         C            4.893008307311     2.825187907843     0.334617050081    12.000000000000
         C           -1.226696930499    -3.543471089260     0.327473288301    12.000000000000
         C           -3.681818898536     0.709324874549     0.326932379172    12.000000000000
         C            3.693147179140    -3.542801433574     0.336491015017    12.000000000000
         C           -1.221432174004     4.970128205680     0.336695054089    12.000000000000
         C            6.134771050916     0.680547854922     0.334170156272    12.000000000000
         C            3.656788958600     4.972953151384     0.334358819141    12.000000000000
         C           -2.455126829744    -2.834215185244     0.342595916545    12.000000000000
         C           -3.681819101071    -0.709325795652     0.343109804289    12.000000000000
         C            4.893012695903    -2.825200197815     0.335228201976    12.000000000000
         C           -0.000000995123     5.650447273849     0.335463745382    12.000000000000
         C            6.134775190322    -0.680554946258     0.335435476787    12.000000000000
         C            2.478131560845     5.653576659148     0.335647598791    12.000000000000
         C            1.221422482727    -4.970127147116     0.333712061693    12.000000000000
         C           -3.693162305975     3.542796862009     0.333615688817    12.000000000000
         C           -1.221428442955    -4.970118395779     0.333599299861    12.000000000000
         C           -4.914521729952     1.427175354812     0.333477326729    12.000000000000
         C            3.656787097669    -4.972955318422     0.335809319675    12.000000000000
         C           -2.478138452116     5.653574330345     0.335932123799    12.000000000000
         C           -3.693141660574    -3.542790311162     0.336374888861    12.000000000000
         C           -4.914512405063    -1.427181092211     0.336407821630    12.000000000000
         C           -0.000005930936    -5.650438379197     0.335068241261    12.000000000000
         C           -4.893020406111     2.825188506736     0.334606968221    12.000000000000
         C            2.478126071288    -5.653573636072     0.334718718883    12.000000000000
         C           -3.656798632268     4.972956089858     0.334535499515    12.000000000000
         C           -4.892999400866    -2.825191859243     0.335074166278    12.000000000000
         C           -2.478128420093    -5.653566262190     0.334443531235    12.000000000000
         C           -6.134770425341     0.680548674073     0.334144604569    12.000000000000
         C           -3.656788755199    -4.972944115154     0.335595031858    12.000000000000
         C           -6.134764964923    -0.680554007665     0.335415000992    12.000000000000
         H            5.835288573806     3.369275802771     0.338976375743     1.007825032230
         H            7.073859250737     1.228217156716     0.334631799665     1.007825032230
         H            4.600663342164     5.512380710270     0.334864019893     1.007825032230
         H            5.835283465295    -3.369306148912     0.330773734662     1.007825032230
         H           -0.000012073316     6.738530581953     0.331114500374     1.007825032230
         H            7.073861249820    -1.228227034927     0.334926738693     1.007825032230
         H            2.473313809789     6.740684199211     0.335180877860     1.007825032230
         H            4.600668569371    -5.512376221359     0.335399322506     1.007825032230
         H           -2.473318602548     6.740681627423     0.335482224485     1.007825032230
         H           -0.000010190238    -6.738528268635     0.339597926245     1.007825032230
         H           -5.835301836354     3.369270858113     0.339112397892     1.007825032230
         H            2.473308001821    -6.740685466612     0.335289049307     1.007825032230
         H           -4.600674763218     5.512377934420     0.335029348216     1.007825032230
         H           -5.835279428845    -3.369289055963     0.330494428781     1.007825032230
         H           -2.473300269450    -6.740679170323     0.334839732763     1.007825032230
         H           -7.073857688778     1.228220380657     0.334547808184     1.007825032230
         H           -4.600673708095    -5.512362761970     0.335227014484     1.007825032230
         H           -7.073856856419    -1.228220724160     0.334831882227     1.007825032230

  Charge       = 0
  Multiplicity = 1
  Basis Set: JUN-CC-PVDZ
    Blend: JUN-CC-PVDZ
  Basis Set: (JUN-CC-PVDZ AUX)
    Blend: JUN-CC-PVDZ-JKFIT

    Orbital Energies [Eh]
    ---------------------

    Doubly Occupied:

       1A    -11.260677     2A    -11.260220     3A    -11.260217
       4A    -11.259437     5A    -11.259436     6A    -11.259233
       7A    -11.258984     8A    -11.258915     9A    -11.258914
      10A    -11.258609    11A    -11.258606    12A    -11.258485
      13A    -11.258434    14A    -11.258432    15A    -11.258426
      16A    -11.258392    17A    -11.258385    18A    -11.258368
      19A    -11.258364    20A    -11.258360    21A    -11.258354
      22A    -11.258298    23A    -11.258293    24A    -11.258073
      25A    -11.257265    26A    -11.257205    27A    -11.257204
      28A    -11.257071    29A    -11.257071    30A    -11.256988
      31A    -11.256356    32A    -11.256287    33A    -11.256286
      34A    -11.256179    35A    -11.256178    36A    -11.256132
      37A    -11.252255    38A    -11.252255    39A    -11.252253
      40A    -11.252252    41A    -11.252250    42A    -11.252248
      43A    -11.251353    44A    -11.251352    45A    -11.251352
      46A    -11.251336    47A    -11.251335    48A    -11.251332
      49A    -11.250817    50A    -11.250816    51A    -11.250814
      52A    -11.250812    53A    -11.250810    54A    -11.250809
      55A     -1.243939    56A     -1.219731    57A     -1.219730
      58A     -1.189479    59A     -1.189472    60A     -1.180822
      61A     -1.157513    62A     -1.148922    63A     -1.135387
      64A     -1.135380    65A     -1.113147    66A     -1.113142
      67A     -1.082347    68A     -1.082339    69A     -1.078498
      70A     -1.065940    71A     -1.065936    72A     -1.039336
      73A     -1.024175    74A     -1.021643    75A     -1.021600
      76A     -1.017688    77A     -1.012756    78A     -0.986940
      79A     -0.986895    80A     -0.961824    81A     -0.961774
      82A     -0.894235    83A     -0.894208    84A     -0.887816
      85A     -0.886075    86A     -0.886017    87A     -0.881311
      88A     -0.881263    89A     -0.861841    90A     -0.837383
      91A     -0.818149    92A     -0.816516    93A     -0.812042
      94A     -0.812033    95A     -0.794639    96A     -0.794628
      97A     -0.746532    98A     -0.744772    99A     -0.733311
     100A     -0.733302   101A     -0.732127   102A     -0.732104
     103A     -0.716411   104A     -0.698917   105A     -0.698906
     106A     -0.693509   107A     -0.693494   108A     -0.661177
     109A     -0.652992   110A     -0.651052   111A     -0.650203
     112A     -0.650197   113A     -0.639310   114A     -0.639307
     115A     -0.629634   116A     -0.627433   117A     -0.627417
     118A     -0.606467   119A     -0.605787   120A     -0.601576
     121A     -0.599672   122A     -0.599641   123A     -0.593572
     124A     -0.591092   125A     -0.591082   126A     -0.585248
     127A     -0.576373   128A     -0.576367   129A     -0.567283
     130A     -0.567269   131A     -0.565858   132A     -0.565838
     133A     -0.558620   134A     -0.554782   135A     -0.554776
     136A     -0.538542   137A     -0.538540   138A     -0.538149
     139A     -0.538143   140A     -0.529658   141A     -0.528195
     142A     -0.522809   143A     -0.522803   144A     -0.500454
     145A     -0.495566   146A     -0.493181   147A     -0.487807
     148A     -0.485001   149A     -0.481682   150A     -0.481674
     151A     -0.470362   152A     -0.470344   153A     -0.450905
     154A     -0.450827   155A     -0.439038   156A     -0.439028
     157A     -0.404687   158A     -0.404664   159A     -0.403354
     160A     -0.375404   161A     -0.375401   162A     -0.349083
     163A     -0.337528   164A     -0.336512   165A     -0.336454
     166A     -0.311032   167A     -0.298102   168A     -0.284276
     169A     -0.284223   170A     -0.224848   171A     -0.224782

  @DF-RHF Final Energy: -2055.89461051475382

   => Energetics <=

    Nuclear Repulsion Energy =           6452.5568002797781446
    One-Electron Energy =              -15636.5036567827137333
    Two-Electron Energy =                7128.0522459881804025
    Total Energy =                      -2055.8946105147542767
 Dipole X            :          0.0000144            0.0000419            0.0000563
 Dipole Y            :          0.0000635           -0.0000426            0.0000210
 Dipole Z            :       -216.5118582          216.5104561           -0.0014021
 Magnitude           :                                                    0.0014034

    SAPT Results
  --------------------------------------------------------------------------------------------------------
    Electrostatics               -121.75453196 [mEh]     -76.40212228 [kcal/mol]    -319.66647961 [kJ/mol]
      Elst10,r                   -121.75453196 [mEh]     -76.40212228 [kcal/mol]    -319.66647961 [kJ/mol]

    Exchange                      323.49008537 [mEh]     202.99309324 [kcal/mol]     849.32310213 [kJ/mol]
      Exch10                      323.49008537 [mEh]     202.99309324 [kcal/mol]     849.32310213 [kJ/mol]
      Exch10(S^2)                 313.27341382 [mEh]     196.58203506 [kcal/mol]     822.49923468 [kJ/mol]

    Induction                     -32.77278478 [mEh]     -20.56523293 [kcal/mol]     -86.04493458 [kJ/mol]
      Ind20,r                    -175.47874436 [mEh]    -110.11457453 [kcal/mol]    -460.71937984 [kJ/mol]
      Exch-Ind20,r                132.15443260 [mEh]      82.92815846 [kcal/mol]     346.97141500 [kJ/mol]
      delta HF,r (2)               10.55152698 [mEh]       6.62118314 [kcal/mol]      27.70303026 [kJ/mol]

    Dispersion                    -41.75046891 [mEh]     -26.19881478 [kcal/mol]    -109.61584103 [kJ/mol]
      Disp20                      -62.85266678 [mEh]     -39.44064386 [kcal/mol]    -165.01965390 [kJ/mol]
      Exch-Disp20                  21.10219787 [mEh]      13.24182908 [kcal/mol]      55.40381288 [kJ/mol]
      Disp20 (SS)                 -31.42633339 [mEh]     -19.72032193 [kcal/mol]     -82.50982695 [kJ/mol]
      Disp20 (OS)                 -31.42633339 [mEh]     -19.72032193 [kcal/mol]     -82.50982695 [kJ/mol]
      Exch-Disp20 (SS)             10.76997308 [mEh]       6.75826014 [kcal/mol]      28.27656042 [kJ/mol]
      Exch-Disp20 (OS)             10.33222479 [mEh]       6.48356894 [kcal/mol]      27.12725246 [kJ/mol]

  Total HF                        168.96276864 [mEh]     106.02573803 [kcal/mol]     443.61168794 [kJ/mol]
  Total SAPT0                     127.21229972 [mEh]      79.82692326 [kcal/mol]     333.99584691 [kJ/mol]

  Special recipe for scaled SAPT0 (see Manual):
    Electrostatics sSAPT0        -121.75453196 [mEh]     -76.40212228 [kcal/mol]    -319.66647961 [kJ/mol]
    Exchange sSAPT0               323.49008537 [mEh]     202.99309324 [kcal/mol]     849.32310213 [kJ/mol]
    Induction sSAPT0              -19.41681594 [mEh]     -12.18423595 [kcal/mol]     -50.97884324 [kJ/mol]
    Dispersion sSAPT0             -39.61781024 [mEh]     -24.86055125 [kcal/mol]    -104.01654645 [kJ/mol]
  Total sSAPT0                    142.70092723 [mEh]      89.54618376 [kcal/mol]     374.66123283 [kJ/mol]
  --------------------------------------------------------------------------------------------------------

*** Psi4 exiting successfully. Buy a developer a beer!
