                               Psi4 1.9 release

  ==> Input File <==

--------------------------------------------------------------------------
memory 32 GB # how much memory is available ! Depends on the nodes/cores !

molecule dimer {
# monomer A
+1 1    # Charge and multiplicity
C  0.680067 1.417258 -7.215929
C -0.680504 1.419286 -7.215545
N -1.085635 1.420284 -5.897221
C  0.000108 1.423560 -5.115820
C -2.477365 1.469690 -5.429242
N  1.085222 1.420284 -5.897221
H  1.385146 1.409430 -8.033368
H -1.385302 1.419096 -8.033214
H -0.000009 1.425307 -4.034731
C  2.478117 1.403392 -5.432123
H  2.490592 1.430737 -4.341870
H  2.967028 0.489946 -5.779299
H  3.001428 2.278875 -5.823595
H -2.857359 2.491761 -5.509201
H -3.082679 0.799606 -6.042306
H -2.518128 1.142706 -4.389294
--
# monomer B
0 1     # Charge and multiplicity
C   1.22531237526482      0.70753866091955      0.00613762728373
C   1.22532433589282     -0.70753852257020     -0.00619318228664
C   -0.00000567409046      1.41496628609039     -0.00672680580738
C   2.45644923379077      1.41832825917820      0.00902448468363
C   0.00001130712078     -1.41497612663474      0.00347275151708
C   -1.22530046906674      0.70754574598412      0.00838914760619
C   2.45643823516184     -1.41832293188077     -0.00843833914343
C   -0.00000085313587      2.83680140328112     -0.00913035594137
C   3.68182717731192      0.70931832800114     -0.00808954934571
C   2.45512052870677      2.83422403348893     -0.00819210630633
C   3.68182158506039     -0.70933346742900      0.00798293467272
C   -1.22531311884624     -0.70752714354401     -0.00512042085974
C   1.22670006104402      3.54346985599427      0.00816696660346
C   0.00000526469929     -2.83678176723568      0.00832091913869
C   -2.45643555300670      1.41831729028492      0.00842454345199
C   2.45512389762097     -2.83422965658853      0.00783102630520
C   -1.22671388474763      3.54346943575023      0.00827029982280
C   4.91451777504333      1.42717324448953     -0.00160886631602
C   3.69315067131765      3.54279566454522     -0.00155906667985
C   -2.45643712022637     -1.41831290883911     -0.00846337726810
C   1.22670532178455     -3.54347386990643     -0.00780316414624
C   -2.45512491866593      2.83421703463423     -0.00818572995999
C   4.91452486062398     -1.42718653794377      0.00136387641845
C   1.22142509354026      4.97013443726031      0.00150231067809
C   4.89300870916237      2.82518837202648     -0.00039219795739
C   -1.22669652864725     -3.54347062507680     -0.00753595973677
C   -3.68181849668397      0.70932533873199     -0.00807686886569
C   3.69314758099218     -3.54280096939050      0.00148176697923
C   -1.22143177215231      4.97012866986289      0.00168580605083
C   6.13477145276790      0.68054831910577     -0.00083909176631
C   3.65678936045204      4.97295361556775     -0.00065042889723
C   -2.45512642789169     -2.83421472106065      0.00758666850712
C   -3.68181869921921     -0.70932533146830      0.00810055625144
C   4.89301309775526     -2.82519973363176      0.00021895393805
C   -0.00000059327114      5.65044773803267      0.00045449734393
C   6.13477559217374     -0.68055448207492      0.00042622874941
C   2.47813196269732      5.65357712333155      0.00063835075260
C   1.22142288457925     -4.97012668293268     -0.00129718634452
C   -3.69316190412301      3.54279732619245     -0.00139355922051
C   -1.22142804110313     -4.97011793159564     -0.00140994817719
C   -4.91452132810043      1.42717581899491     -0.00153192130862
C   3.65678749952045     -4.97295485423912      0.00080007163680
C   -2.47813805026426      5.65357479452875      0.00092287576113
C   -3.69314125872231     -3.54278984697859      0.00136564082345
C   -4.91451200321153     -1.42718062802730      0.00139857359209
C   -0.00000552908399     -5.65043791501335      0.00005899322272
C   -4.89302000425900      2.82518897091939     -0.00040227981744
C   2.47812647313991     -5.65357317188818     -0.00029052915548
C   -3.65679823041642      4.97295655404175     -0.00047374852278
C   -4.89299899901461     -2.82519139505969      0.00006491824035
C   -2.47812801824129     -5.65356579800621     -0.00056571680280
C   -6.13477002348955      0.68054913825639     -0.00086464346868
C   -3.65678835334731     -4.97294365097028      0.00058578382008
C   -6.13476456307132     -0.68055354348201      0.00040575295444
H   5.83528897565761      3.36927626695423      0.00396712770529
H   7.07385965258860      1.22821762089947     -0.00037744837300
H   4.60066374401555      5.51238117445323     -0.00014522814529
H   5.83528386714679     -3.36930568472863     -0.00423551337640
H   -0.00001167146422      6.73853104613662     -0.00389474766392
H   7.07386165167227     -1.22822657074368     -0.00008250934481
H   2.47331421164041      6.74068466339473      0.00017162982210
H   4.60066897122302     -5.51237575717576      0.00039007446835
H   -2.47331820069565      6.74068209160650      0.00047297644710
H   -0.00000978838621     -6.73852780445195      0.00458867820736
H   -5.83530143450167      3.36927132229595      0.00410314985360
H   2.47330840367253     -6.74068500242887      0.00027980126949
H   -4.60067436136587      5.51237839860371      0.00002010017831
H   -5.83527902699321     -3.36928859177951     -0.00451481925734
H   -2.47329986759855     -6.74067870613986     -0.00016951527498
H   -7.07385728692578      1.22822084484047     -0.00046143985387
H   -4.60067330624313     -5.51236229778631      0.00021776644566
H   -7.07385645456741     -1.22822025997701     -0.00017736581114

    units angstrom      # Angstroms are the default
    no_reorient         # Geometry fixed, default
    symmetry c1         # C1 symmetry, default
}

set {
    scf_type DF         # Density fitting, faster than exact integrals
    freeze_core True    # Freeze core electrons
    basis jun-cc-pVDZ   # Jun-cc-pVDZ basis set, recommended for sSAPT0 in https://doi.org/10.1063/1.4867135
}

energy('ssapt0')        # Compute sSAPT0 energy, includes also SAPT0
--------------------------------------------------------------------------

  //              Dimer HF             //
    Molecular point group: c1
  Charge       = 1
  Multiplicity = 1
  Basis Set: JUN-CC-PVDZ
    Blend: JUN-CC-PVDZ
  Basis Set: (JUN-CC-PVDZ AUX)
    Blend: JUN-CC-PVDZ-JKFIT
  @DF-RHF Final Energy: -2359.20445452694821
    Total Energy =                      -2359.2044545269491209
 Dipole X            :         -0.0019850            0.0006313           -0.0013537
 Dipole Y            :         -5.7553506            7.4856329            1.7302823
 Dipole Z            :         21.0475489          -29.3892626           -8.3417137
 Magnitude           :                                                    8.5192761
  //            Monomer A HF           //
    Molecular point group: c1
  Multiplicity = 1
  Basis Set: JUN-CC-PVDZ
    Blend: JUN-CC-PVDZ
  Basis Set: (JUN-CC-PVDZ AUX)
    Blend: JUN-CC-PVDZ-JKFIT
  @DF-RHF Final Energy:  -303.29743028868688
    Total Energy =                       -303.2974302886868827
  //            Monomer B HF           //
    Molecular point group: c1

    Geometry (in Angstrom), charge = 0, multiplicity = 1:

       Center              X                  Y                   Z               Mass
    ------------   -----------------  -----------------  -----------------  -----------------
      Gh(C)           0.680066520158     1.235968212970    -6.452768084598    12.000000000000
      Gh(C)          -0.680504479842     1.237996212970    -6.452384084598    12.000000000000
      Gh(N)          -1.085635479842     1.238994212970    -5.134060084598    14.003074004430
      Gh(C)           0.000107520158     1.242270212970    -4.352659084598    12.000000000000
      Gh(C)          -2.477365479842     1.288400212970    -4.666081084598    12.000000000000
      Gh(N)           1.085221520158     1.238994212970    -5.134060084598    14.003074004430
      Gh(H)           1.385145520158     1.228140212970    -7.270207084598     1.007825032230
      Gh(H)          -1.385302479842     1.237806212970    -7.270053084598     1.007825032230
      Gh(H)          -0.000009479842     1.244017212970    -3.271570084598     1.007825032230
      Gh(C)           2.478116520158     1.222102212970    -4.668962084598    12.000000000000
      Gh(H)           2.490591520158     1.249447212970    -3.578709084598     1.007825032230
      Gh(H)           2.967027520158     0.308656212970    -5.016138084598     1.007825032230
      Gh(H)           3.001427520158     2.097585212970    -5.060434084598     1.007825032230
      Gh(H)          -2.857359479842     2.310471212970    -4.746040084598     1.007825032230
      Gh(H)          -3.082679479842     0.618316212970    -5.279145084598     1.007825032230
      Gh(H)          -2.518128479842     0.961416212970    -3.626133084598     1.007825032230
         C            1.225311895423     0.526248873889     0.769298542685    12.000000000000
         C            1.225323856051    -0.888828309601     0.756967733115    12.000000000000
         C           -0.000006153932     1.233676499060     0.756434109594    12.000000000000
         C            2.456448753949     1.237038472148     0.772185400085    12.000000000000
         C            0.000010827279    -1.596265913665     0.766633666919    12.000000000000
         C           -1.225300948908     0.526255958954     0.771550063008    12.000000000000
         C            2.456437755320    -1.599612718911     0.754722576258    12.000000000000
         C           -0.000001332978     2.655511616251     0.754030559460    12.000000000000
         C            3.681826697470     0.528028540971     0.755071366056    12.000000000000
         C            2.455120048865     2.652934246459     0.754968809095    12.000000000000
         C            3.681821105219    -0.890623254459     0.771143850074    12.000000000000
         C           -1.225313598688    -0.888816930574     0.758040494542    12.000000000000
         C            1.226699581202     3.362180068964     0.771327882005    12.000000000000
         C            0.000004784858    -3.018071554266     0.771481834540    12.000000000000
         C           -2.456436032848     1.237027503255     0.771585458854    12.000000000000
         C            2.455123417779    -3.015519443619     0.770991941707    12.000000000000
         C           -1.226714364589     3.362179648720     0.771431215225    12.000000000000
         C            4.914517295202     1.245883457459     0.761552049086    12.000000000000
         C            3.693150191476     3.361505877515     0.761601848722    12.000000000000
         C           -2.456437600068    -1.599602695869     0.754697538134    12.000000000000
         C            1.226704841943    -3.724763656937     0.755357751255    12.000000000000
         C           -2.455125398508     2.652927247604     0.754975185442    12.000000000000
         C            4.914524380782    -1.608476324974     0.764524791820    12.000000000000
         C            1.221424613699     4.788844650230     0.764663226080    12.000000000000
         C            4.893008229321     2.643898584996     0.762768717444    12.000000000000
         C           -1.226697008489    -3.724760412107     0.755624955665    12.000000000000
         C           -3.681818976526     0.528035551702     0.755084046536    12.000000000000
         C            3.693147101150    -3.724090756421     0.764642682381    12.000000000000
         C           -1.221432251994     4.788838882833     0.764846721453    12.000000000000
         C            6.134770972926     0.499258532075     0.762321823635    12.000000000000
         C            3.656788880610     4.791663828537     0.762510486504    12.000000000000
         C           -2.455126907733    -3.015504508091     0.770747583909    12.000000000000
         C           -3.681819179061    -0.890615118499     0.771261471653    12.000000000000
         C            4.893012617914    -3.006489520662     0.763379869340    12.000000000000
         C           -0.000001073113     5.469157951002     0.763615412746    12.000000000000
         C            6.134775112332    -0.861844269105     0.763587144151    12.000000000000
         C            2.478131482856     5.472287336301     0.763799266154    12.000000000000
         C            1.221422404738    -5.151416469963     0.761863729057    12.000000000000
         C           -3.693162383965     3.361507539162     0.761767356181    12.000000000000
         C           -1.221428520945    -5.151407718626     0.761750967225    12.000000000000
         C           -4.914521807942     1.245886031965     0.761628994093    12.000000000000
         C            3.656787019679    -5.154244641269     0.763960987039    12.000000000000
         C           -2.478138530106     5.472285007498     0.764083791163    12.000000000000
         C           -3.693141738564    -3.724079634009     0.764526556225    12.000000000000
         C           -4.914512483053    -1.608470415058     0.764559488994    12.000000000000
         C           -0.000006008926    -5.831727702044     0.763219908624    12.000000000000
         C           -4.893020484101     2.643899183889     0.762758635584    12.000000000000
         C            2.478125993298    -5.834862958919     0.762870386246    12.000000000000
         C           -3.656798710258     4.791666767011     0.762687166879    12.000000000000
         C           -4.892999478856    -3.006481182090     0.763225833642    12.000000000000
         C           -2.478128498083    -5.834855585037     0.762595198599    12.000000000000
         C           -6.134770503331     0.499259351226     0.762296271933    12.000000000000
         C           -3.656788833189    -5.154233438001     0.763746699222    12.000000000000
         C           -6.134765042913    -0.861843330512     0.763566668356    12.000000000000
         H            5.835288495816     3.187986479924     0.767128043107     1.007825032230
         H            7.073859172747     1.046927833869     0.762783467029     1.007825032230
         H            4.600663264174     5.331091387423     0.763015687256     1.007825032230
         H            5.835283387305    -3.550595471759     0.758925402025     1.007825032230
         H           -0.000012151306     6.557241259106     0.759266167738     1.007825032230
         H            7.073861171831    -1.409516357774     0.763078406057     1.007825032230
         H            2.473313731799     6.559394876364     0.763332545224     1.007825032230
         H            4.600668491381    -5.693665544206     0.763550989870     1.007825032230
         H           -2.473318680537     6.559392304576     0.763633891849     1.007825032230
         H           -0.000010268228    -6.919817591482     0.767749593609     1.007825032230
         H           -5.835301914343     3.187981535266     0.767264065255     1.007825032230
         H            2.473307923831    -6.921974789459     0.763440716671     1.007825032230
         H           -4.600674841208     5.331088611573     0.763181015580     1.007825032230
         H           -5.835279506835    -3.550578378810     0.758646096144     1.007825032230
         H           -2.473300347440    -6.921968493170     0.762991400127     1.007825032230
         H           -7.073857766768     1.046931057810     0.762699475548     1.007825032230
         H           -4.600673786085    -5.693652084817     0.763378681847     1.007825032230
         H           -7.073856934409    -1.409510047007     0.762983549591     1.007825032230

  Charge       = 0
  Multiplicity = 1
  Basis Set: JUN-CC-PVDZ
    Blend: JUN-CC-PVDZ
  Basis Set: (JUN-CC-PVDZ AUX)
    Blend: JUN-CC-PVDZ-JKFIT

    Orbital Energies [Eh]
    ---------------------

    Doubly Occupied:

       1A    -11.260585     2A    -11.260153     3A    -11.260124
       4A    -11.259436     5A    -11.259418     6A    -11.259255
       7A    -11.259045     8A    -11.258972     9A    -11.258962
      10A    -11.258645    11A    -11.258636    12A    -11.258568
      13A    -11.258506    14A    -11.258506    15A    -11.258497
      16A    -11.258470    17A    -11.258464    18A    -11.258445
      19A    -11.258437    20A    -11.258428    21A    -11.258423
      22A    -11.258333    23A    -11.258318    24A    -11.258026
      25A    -11.257361    26A    -11.257301    27A    -11.257295
      28A    -11.257164    29A    -11.257161    30A    -11.257078
      31A    -11.256455    32A    -11.256385    33A    -11.256383
      34A    -11.256277    35A    -11.256271    36A    -11.256227
      37A    -11.252330    38A    -11.252327    39A    -11.252305
      40A    -11.252305    41A    -11.252303    42A    -11.252300
      43A    -11.251451    44A    -11.251436    45A    -11.251434
      46A    -11.251425    47A    -11.251423    48A    -11.251409
      49A    -11.250891    50A    -11.250888    51A    -11.250867
      52A    -11.250866    53A    -11.250863    54A    -11.250861
      55A     -1.244120    56A     -1.219869    57A     -1.219860
      58A     -1.189591    59A     -1.189578    60A     -1.181001
      61A     -1.157601    62A     -1.149024    63A     -1.135550
      64A     -1.135536    65A     -1.113234    66A     -1.113230
      67A     -1.082478    68A     -1.082473    69A     -1.078654
      70A     -1.066021    71A     -1.066016    72A     -1.039441
      73A     -1.024327    74A     -1.021826    75A     -1.021777
      76A     -1.017766    77A     -1.012833    78A     -0.987073
      79A     -0.987021    80A     -0.961921    81A     -0.961871
      82A     -0.894333    83A     -0.894308    84A     -0.887989
      85A     -0.886238    86A     -0.886185    87A     -0.881444
      88A     -0.881397    89A     -0.861941    90A     -0.837443
      91A     -0.818251    92A     -0.816667    93A     -0.812183
      94A     -0.812177    95A     -0.794730    96A     -0.794717
      97A     -0.746671    98A     -0.744905    99A     -0.733465
     100A     -0.733465   101A     -0.732223   102A     -0.732199
     103A     -0.716546   104A     -0.699018   105A     -0.698999
     106A     -0.693634   107A     -0.693610   108A     -0.661271
     109A     -0.653167   110A     -0.651210   111A     -0.650293
     112A     -0.650286   113A     -0.639402   114A     -0.639392
     115A     -0.629760   116A     -0.627569   117A     -0.627556
     118A     -0.606472   119A     -0.605840   120A     -0.601707
     121A     -0.599786   122A     -0.599742   123A     -0.593674
     124A     -0.591278   125A     -0.591261   126A     -0.585312
     127A     -0.576422   128A     -0.576385   129A     -0.567361
     130A     -0.567344   131A     -0.566005   132A     -0.565990
     133A     -0.558776   134A     -0.554889   135A     -0.554887
     136A     -0.538632   137A     -0.538630   138A     -0.538232
     139A     -0.538230   140A     -0.529756   141A     -0.528174
     142A     -0.522917   143A     -0.522901   144A     -0.500542
     145A     -0.495648   146A     -0.493275   147A     -0.487880
     148A     -0.485114   149A     -0.481798   150A     -0.481794
     151A     -0.470371   152A     -0.470348   153A     -0.451072
     154A     -0.450998   155A     -0.439110   156A     -0.439101
     157A     -0.404781   158A     -0.404762   159A     -0.403405
     160A     -0.375463   161A     -0.375455   162A     -0.349158
     163A     -0.337627   164A     -0.336600   165A     -0.336521
     166A     -0.311135   167A     -0.298131   168A     -0.284383
     169A     -0.284329   170A     -0.224956   171A     -0.224889

  @DF-RHF Final Energy: -2055.89294194949025

   => Energetics <=

    Nuclear Repulsion Energy =           6452.5568002797781446
    One-Electron Energy =              -15636.4688844544016320
    Two-Electron Energy =                7128.0191422251318727
    Total Energy =                      -2055.8929419494907052
 Dipole X            :          0.0001897           -0.0000085            0.0001812
 Dipole Y            :        117.1685650         -117.1648546            0.0037105
 Dipole Z            :       -493.2106612          493.2190280            0.0083668
 Magnitude           :                                                    0.0091544

    SAPT Results
  --------------------------------------------------------------------------------------------------------
    Electrostatics                 -9.46645982 [mEh]      -5.94029322 [kcal/mol]     -24.85418683 [kJ/mol]
      Elst10,r                     -9.46645982 [mEh]      -5.94029322 [kcal/mol]     -24.85418683 [kJ/mol]

    Exchange                        0.04417914 [mEh]       0.02772283 [kcal/mol]       0.11599232 [kJ/mol]
      Exch10                        0.04417914 [mEh]       0.02772283 [kcal/mol]       0.11599232 [kJ/mol]
      Exch10(S^2)                   0.04417821 [mEh]       0.02772224 [kcal/mol]       0.11598986 [kJ/mol]

    Induction                      -4.66000809 [mEh]      -2.92419923 [kcal/mol]     -12.23484957 [kJ/mol]
      Ind20,r                      -4.48793516 [mEh]      -2.81622183 [kcal/mol]     -11.78307213 [kJ/mol]
      Exch-Ind20,r                  0.01065810 [mEh]       0.00668806 [kcal/mol]       0.02798285 [kJ/mol]
      delta HF,r (2)               -0.18273104 [mEh]      -0.11466546 [kcal/mol]      -0.47976029 [kJ/mol]

    Dispersion                     -3.45592909 [mEh]      -2.16862824 [kcal/mol]      -9.07354056 [kJ/mol]
      Disp20                       -3.46263754 [mEh]      -2.17283786 [kcal/mol]      -9.09115362 [kJ/mol]
      Exch-Disp20                   0.00670846 [mEh]       0.00420962 [kcal/mol]       0.01761305 [kJ/mol]
      Disp20 (SS)                  -1.73131877 [mEh]      -1.08641893 [kcal/mol]      -4.54557681 [kJ/mol]
      Disp20 (OS)                  -1.73131877 [mEh]      -1.08641893 [kcal/mol]      -4.54557681 [kJ/mol]
      Exch-Disp20 (SS)              0.00455995 [mEh]       0.00286141 [kcal/mol]       0.01197214 [kJ/mol]
      Exch-Disp20 (OS)              0.00214851 [mEh]       0.00134821 [kcal/mol]       0.00564092 [kJ/mol]

  Total HF                        -14.08228877 [mEh]      -8.83676962 [kcal/mol]     -36.97304407 [kJ/mol]
  Total SAPT0                     -17.53821786 [mEh]     -11.00539786 [kcal/mol]     -46.04658464 [kJ/mol]

  Special recipe for scaled SAPT0 (see Manual):
    Electrostatics sSAPT0          -9.46645982 [mEh]      -5.94029322 [kcal/mol]     -24.85418683 [kJ/mol]
    Exchange sSAPT0                 0.04417914 [mEh]       0.02772283 [kcal/mol]       0.11599232 [kJ/mol]
    Induction sSAPT0               -4.66000742 [mEh]      -2.92419880 [kcal/mol]     -12.23484779 [kJ/mol]
    Dispersion sSAPT0              -3.45592866 [mEh]      -2.16862797 [kcal/mol]      -9.07353945 [kJ/mol]
  Total sSAPT0                    -17.53821675 [mEh]     -11.00539717 [kcal/mol]     -46.04658174 [kJ/mol]
  --------------------------------------------------------------------------------------------------------

*** Psi4 exiting successfully. Buy a developer a beer!
