                               Psi4 1.9 release

  ==> Input File <==

--------------------------------------------------------------------------
memory 32 GB # how much memory is available ! Depends on the nodes/cores !

molecule dimer {
# monomer A
+1 1    # Charge and multiplicity
C  0.680067 -0.008042 -9.015929
C -0.680504 -0.006014 -9.015545
N -1.085635 -0.005016 -7.697221
C  0.000108 -0.001740 -6.915820
C -2.477365  0.044390 -7.229242
N  1.085222 -0.005016 -7.697221
H  1.385146 -0.015870 -9.833368
H -1.385302 -0.006204 -9.833214
H -0.000009  0.000007 -5.834731
C  2.478117 -0.021908 -7.232123
H  2.490592  0.005437 -6.141870
H  2.967028 -0.935354 -7.579299
H  3.001428  0.853575 -7.623595
H -2.857359  1.066461 -7.309201
H -3.082679 -0.625694 -7.842306
H -2.518128 -0.282594 -6.189294
--
# monomer B
0 1     # Charge and multiplicity
C   1.22531237526482      0.70753866091955      0.00613762728373
C   1.22532433589282     -0.70753852257020     -0.00619318228664
C   -0.00000567409046      1.41496628609039     -0.00672680580738
C   2.45644923379077      1.41832825917820      0.00902448468363
C   0.00001130712078     -1.41497612663474      0.00347275151708
C   -1.22530046906674      0.70754574598412      0.00838914760619
C   2.45643823516184     -1.41832293188077     -0.00843833914343
C   -0.00000085313587      2.83680140328112     -0.00913035594137
C   3.68182717731192      0.70931832800114     -0.00808954934571
C   2.45512052870677      2.83422403348893     -0.00819210630633
C   3.68182158506039     -0.70933346742900      0.00798293467272
C   -1.22531311884624     -0.70752714354401     -0.00512042085974
C   1.22670006104402      3.54346985599427      0.00816696660346
C   0.00000526469929     -2.83678176723568      0.00832091913869
C   -2.45643555300670      1.41831729028492      0.00842454345199
C   2.45512389762097     -2.83422965658853      0.00783102630520
C   -1.22671388474763      3.54346943575023      0.00827029982280
C   4.91451777504333      1.42717324448953     -0.00160886631602
C   3.69315067131765      3.54279566454522     -0.00155906667985
C   -2.45643712022637     -1.41831290883911     -0.00846337726810
C   1.22670532178455     -3.54347386990643     -0.00780316414624
C   -2.45512491866593      2.83421703463423     -0.00818572995999
C   4.91452486062398     -1.42718653794377      0.00136387641845
C   1.22142509354026      4.97013443726031      0.00150231067809
C   4.89300870916237      2.82518837202648     -0.00039219795739
C   -1.22669652864725     -3.54347062507680     -0.00753595973677
C   -3.68181849668397      0.70932533873199     -0.00807686886569
C   3.69314758099218     -3.54280096939050      0.00148176697923
C   -1.22143177215231      4.97012866986289      0.00168580605083
C   6.13477145276790      0.68054831910577     -0.00083909176631
C   3.65678936045204      4.97295361556775     -0.00065042889723
C   -2.45512642789169     -2.83421472106065      0.00758666850712
C   -3.68181869921921     -0.70932533146830      0.00810055625144
C   4.89301309775526     -2.82519973363176      0.00021895393805
C   -0.00000059327114      5.65044773803267      0.00045449734393
C   6.13477559217374     -0.68055448207492      0.00042622874941
C   2.47813196269732      5.65357712333155      0.00063835075260
C   1.22142288457925     -4.97012668293268     -0.00129718634452
C   -3.69316190412301      3.54279732619245     -0.00139355922051
C   -1.22142804110313     -4.97011793159564     -0.00140994817719
C   -4.91452132810043      1.42717581899491     -0.00153192130862
C   3.65678749952045     -4.97295485423912      0.00080007163680
C   -2.47813805026426      5.65357479452875      0.00092287576113
C   -3.69314125872231     -3.54278984697859      0.00136564082345
C   -4.91451200321153     -1.42718062802730      0.00139857359209
C   -0.00000552908399     -5.65043791501335      0.00005899322272
C   -4.89302000425900      2.82518897091939     -0.00040227981744
C   2.47812647313991     -5.65357317188818     -0.00029052915548
C   -3.65679823041642      4.97295655404175     -0.00047374852278
C   -4.89299899901461     -2.82519139505969      0.00006491824035
C   -2.47812801824129     -5.65356579800621     -0.00056571680280
C   -6.13477002348955      0.68054913825639     -0.00086464346868
C   -3.65678835334731     -4.97294365097028      0.00058578382008
C   -6.13476456307132     -0.68055354348201      0.00040575295444
H   5.83528897565761      3.36927626695423      0.00396712770529
H   7.07385965258860      1.22821762089947     -0.00037744837300
H   4.60066374401555      5.51238117445323     -0.00014522814529
H   5.83528386714679     -3.36930568472863     -0.00423551337640
H   -0.00001167146422      6.73853104613662     -0.00389474766392
H   7.07386165167227     -1.22822657074368     -0.00008250934481
H   2.47331421164041      6.74068466339473      0.00017162982210
H   4.60066897122302     -5.51237575717576      0.00039007446835
H   -2.47331820069565      6.74068209160650      0.00047297644710
H   -0.00000978838621     -6.73852780445195      0.00458867820736
H   -5.83530143450167      3.36927132229595      0.00410314985360
H   2.47330840367253     -6.74068500242887      0.00027980126949
H   -4.60067436136587      5.51237839860371      0.00002010017831
H   -5.83527902699321     -3.36928859177951     -0.00451481925734
H   -2.47329986759855     -6.74067870613986     -0.00016951527498
H   -7.07385728692578      1.22822084484047     -0.00046143985387
H   -4.60067330624313     -5.51236229778631      0.00021776644566
H   -7.07385645456741     -1.22822025997701     -0.00017736581114

    units angstrom      # Angstroms are the default
    no_reorient         # Geometry fixed, default
    symmetry c1         # C1 symmetry, default
}

set {
    scf_type DF         # Density fitting, faster than exact integrals
    freeze_core True    # Freeze core electrons
    basis jun-cc-pVDZ   # Jun-cc-pVDZ basis set, recommended for sSAPT0 in https://doi.org/10.1063/1.4867135
}

energy('ssapt0')        # Compute sSAPT0 energy, includes also SAPT0
--------------------------------------------------------------------------

  //              Dimer HF             //
    Molecular point group: c1
  Charge       = 1
  Multiplicity = 1
  Basis Set: JUN-CC-PVDZ
    Blend: JUN-CC-PVDZ
  Basis Set: (JUN-CC-PVDZ AUX)
    Blend: JUN-CC-PVDZ-JKFIT
  @DF-RHF Final Energy: -2359.19753455725731
    Total Energy =                      -2359.1975345572573133
 Dipole X            :         -0.0011425            0.0006313           -0.0005112
 Dipole Y            :         -0.0479809            0.0560211            0.0080402
 Dipole Z            :         27.1465322          -38.7720601          -11.6255279
 Magnitude           :                                                   11.6255307
  //            Monomer A HF           //
    Molecular point group: c1
  Multiplicity = 1
  Basis Set: JUN-CC-PVDZ
    Blend: JUN-CC-PVDZ
  Basis Set: (JUN-CC-PVDZ AUX)
    Blend: JUN-CC-PVDZ-JKFIT
  @DF-RHF Final Energy:  -303.29720752125422
    Total Energy =                       -303.2972075212542222
  //            Monomer B HF           //
    Molecular point group: c1

    Geometry (in Angstrom), charge = 0, multiplicity = 1:

       Center              X                  Y                   Z               Mass
    ------------   -----------------  -----------------  -----------------  -----------------
      Gh(C)           0.680066520158    -0.008042372515    -8.023819129201    12.000000000000
      Gh(C)          -0.680504479842    -0.006014372515    -8.023435129201    12.000000000000
      Gh(N)          -1.085635479842    -0.005016372515    -6.705111129201    14.003074004430
      Gh(C)           0.000107520158    -0.001740372515    -5.923710129201    12.000000000000
      Gh(C)          -2.477365479842     0.044389627485    -6.237132129201    12.000000000000
      Gh(N)           1.085221520158    -0.005016372515    -6.705111129201    14.003074004430
      Gh(H)           1.385145520158    -0.015870372515    -8.841258129201     1.007825032230
      Gh(H)          -1.385302479842    -0.006204372515    -8.841104129201     1.007825032230
      Gh(H)          -0.000009479842     0.000006627485    -4.842621129201     1.007825032230
      Gh(C)           2.478116520158    -0.021908372515    -6.240013129201    12.000000000000
      Gh(H)           2.490591520158     0.005436627485    -5.149760129201     1.007825032230
      Gh(H)           2.967027520158    -0.935354372515    -6.587189129201     1.007825032230
      Gh(H)           3.001427520158     0.853574627485    -6.631485129201     1.007825032230
      Gh(H)          -2.857359479842     1.066460627485    -6.317091129201     1.007825032230
      Gh(H)          -3.082679479842    -0.625694372515    -6.850196129201     1.007825032230
      Gh(H)          -2.518128479842    -0.282594372515    -5.197184129201     1.007825032230
         C            1.225311895423     0.707538288405     0.998247498083    12.000000000000
         C            1.225323856051    -0.707538895085     0.985916688512    12.000000000000
         C           -0.000006153932     1.414965913575     0.985383064992    12.000000000000
         C            2.456448753949     1.418327886663     1.001134355483    12.000000000000
         C            0.000010827279    -1.414976499150     0.995582622316    12.000000000000
         C           -1.225300948908     0.707545373469     1.000499018405    12.000000000000
         C            2.456437755320    -1.418323304396     0.983671531656    12.000000000000
         C           -0.000001332978     2.836801030766     0.982979514858    12.000000000000
         C            3.681826697470     0.709317955486     0.984020321453    12.000000000000
         C            2.455120048865     2.834223660974     0.983917764493    12.000000000000
         C            3.681821105219    -0.709333839944     1.000092805472    12.000000000000
         C           -1.225313598688    -0.707527516059     0.986989449939    12.000000000000
         C            1.226699581202     3.543469483479     1.000276837402    12.000000000000
         C            0.000004784858    -2.836782139751     1.000430789938    12.000000000000
         C           -2.456436032848     1.418316917770     1.000534414251    12.000000000000
         C            2.455123417779    -2.834230029103     0.999940897104    12.000000000000
         C           -1.226714364589     3.543469063235     1.000380170622    12.000000000000
         C            4.914517295202     1.427172871975     0.990501004483    12.000000000000
         C            3.693150191476     3.542795292030     0.990550804119    12.000000000000
         C           -2.456437600068    -1.418313281354     0.983646493531    12.000000000000
         C            1.226704841943    -3.543474242421     0.984306706653    12.000000000000
         C           -2.455125398508     2.834216662119     0.983924140839    12.000000000000
         C            4.914524380782    -1.427186910459     0.993473747217    12.000000000000
         C            1.221424613699     4.970134064745     0.993612181477    12.000000000000
         C            4.893008229321     2.825187999512     0.991717672842    12.000000000000
         C           -1.226697008489    -3.543470997592     0.984573911062    12.000000000000
         C           -3.681818976526     0.709324966217     0.984033001933    12.000000000000
         C            3.693147101150    -3.542801341905     0.993591637778    12.000000000000
         C           -1.221432251994     4.970128297348     0.993795676850    12.000000000000
         C            6.134770972926     0.680547946591     0.991270779033    12.000000000000
         C            3.656788880610     4.972953243053     0.991459441902    12.000000000000
         C           -2.455126907733    -2.834215093576     0.999696539306    12.000000000000
         C           -3.681819179061    -0.709325703983     1.000210427050    12.000000000000
         C            4.893012617914    -2.825200106147     0.992328824737    12.000000000000
         C           -0.000001073113     5.650447365518     0.992564368143    12.000000000000
         C            6.134775112332    -0.680554854590     0.992536099548    12.000000000000
         C            2.478131482856     5.653576750817     0.992748221552    12.000000000000
         C            1.221422404738    -4.970127055448     0.990812684454    12.000000000000
         C           -3.693162383965     3.542796953677     0.990716311578    12.000000000000
         C           -1.221428520945    -4.970118304111     0.990699922622    12.000000000000
         C           -4.914521807942     1.427175446480     0.990577949490    12.000000000000
         C            3.656787019679    -4.972955226754     0.992909942436    12.000000000000
         C           -2.478138530106     5.653574422014     0.993032746560    12.000000000000
         C           -3.693141738564    -3.542790219494     0.993475511622    12.000000000000
         C           -4.914512483053    -1.427181000542     0.993508444391    12.000000000000
         C           -0.000006008926    -5.650438287528     0.992168864022    12.000000000000
         C           -4.893020484101     2.825188598404     0.991707590981    12.000000000000
         C            2.478125993298    -5.653573544403     0.991819341643    12.000000000000
         C           -3.656798710258     4.972956181527     0.991636122276    12.000000000000
         C           -4.892999478856    -2.825191767575     0.992174789039    12.000000000000
         C           -2.478128498083    -5.653566170521     0.991544153996    12.000000000000
         C           -6.134770503331     0.680548765741     0.991245227330    12.000000000000
         C           -3.656788833189    -4.972944023485     0.992695654619    12.000000000000
         C           -6.134765042913    -0.680553915997     0.992515623753    12.000000000000
         H            5.835288495816     3.369275894439     0.996076998504     1.007825032230
         H            7.073859172747     1.228217248385     0.991732422426     1.007825032230
         H            4.600663264174     5.512380801938     0.991964642654     1.007825032230
         H            5.835283387305    -3.369306057244     0.987874357423     1.007825032230
         H           -0.000012151306     6.738530673622     0.988215123135     1.007825032230
         H            7.073861171831    -1.228226943259     0.992027361454     1.007825032230
         H            2.473313731799     6.740684290880     0.992281500621     1.007825032230
         H            4.600668491381    -5.512376129691     0.992499945267     1.007825032230
         H           -2.473318680537     6.740681719092     0.992582847246     1.007825032230
         H           -0.000010268228    -6.738528176967     0.996698549006     1.007825032230
         H           -5.835301914343     3.369270949781     0.996213020653     1.007825032230
         H            2.473307923831    -6.740685374944     0.992389672068     1.007825032230
         H           -4.600674841208     5.512378026089     0.992129970977     1.007825032230
         H           -5.835279506835    -3.369288964294     0.987595051542     1.007825032230
         H           -2.473300347440    -6.740679078655     0.991940355524     1.007825032230
         H           -7.073857766768     1.228220472326     0.991648430945     1.007825032230
         H           -4.600673786085    -5.512362670301     0.992327637245     1.007825032230
         H           -7.073856934409    -1.228220632492     0.991932504988     1.007825032230

  Charge       = 0
  Multiplicity = 1
  Basis Set: JUN-CC-PVDZ
    Blend: JUN-CC-PVDZ
  Basis Set: (JUN-CC-PVDZ AUX)
    Blend: JUN-CC-PVDZ-JKFIT

    Orbital Energies [Eh]
    ---------------------

    Doubly Occupied:

       1A    -11.260658     2A    -11.260215     3A    -11.260213
       4A    -11.259505     5A    -11.259504     6A    -11.259335
       7A    -11.259127     8A    -11.259049     9A    -11.259048
      10A    -11.258724    11A    -11.258721    12A    -11.258653
      13A    -11.258591    14A    -11.258585    15A    -11.258583
      16A    -11.258554    17A    -11.258548    18A    -11.258532
      19A    -11.258519    20A    -11.258513    21A    -11.258507
      22A    -11.258408    23A    -11.258404    24A    -11.258104
      25A    -11.257447    26A    -11.257385    27A    -11.257384
      28A    -11.257249    29A    -11.257249    30A    -11.257164
      31A    -11.256542    32A    -11.256471    33A    -11.256471
      34A    -11.256361    35A    -11.256360    36A    -11.256313
      37A    -11.252392    38A    -11.252391    39A    -11.252389
      40A    -11.252388    41A    -11.252385    42A    -11.252383
      43A    -11.251523    44A    -11.251521    45A    -11.251519
      46A    -11.251514    47A    -11.251513    48A    -11.251509
      49A    -11.250953    50A    -11.250952    51A    -11.250950
      52A    -11.250949    53A    -11.250946    54A    -11.250945
      55A     -1.244276    56A     -1.219999    57A     -1.219999
      58A     -1.189709    59A     -1.189702    60A     -1.181147
      61A     -1.157711    62A     -1.149141    63A     -1.135687
      64A     -1.135679    65A     -1.113343    66A     -1.113339
      67A     -1.082613    68A     -1.082605    69A     -1.078794
      70A     -1.066127    71A     -1.066123    72A     -1.039564
      73A     -1.024471    74A     -1.021973    75A     -1.021928
      76A     -1.017875    77A     -1.012938    78A     -0.987204
      79A     -0.987158    80A     -0.962036    81A     -0.961986
      82A     -0.894454    83A     -0.894427    84A     -0.888145
      85A     -0.886391    86A     -0.886335    87A     -0.881583
      88A     -0.881535    89A     -0.862060    90A     -0.837541
      91A     -0.818376    92A     -0.816813    93A     -0.812321
      94A     -0.812313    95A     -0.794842    96A     -0.794831
      97A     -0.746820    98A     -0.745047    99A     -0.733612
     100A     -0.733606   101A     -0.732340   102A     -0.732316
     103A     -0.716682   104A     -0.699137   105A     -0.699124
     106A     -0.693761   107A     -0.693743   108A     -0.661386
     109A     -0.653313   110A     -0.651359   111A     -0.650404
     112A     -0.650398   113A     -0.639517   114A     -0.639512
     115A     -0.629896   116A     -0.627707   117A     -0.627692
     118A     -0.606462   119A     -0.605925   120A     -0.601848
     121A     -0.599907   122A     -0.599871   123A     -0.593808
     124A     -0.591434   125A     -0.591420   126A     -0.585409
     127A     -0.576424   128A     -0.576407   129A     -0.567467
     130A     -0.567452   131A     -0.566146   132A     -0.566128
     133A     -0.558922   134A     -0.555008   135A     -0.555003
     136A     -0.538746   137A     -0.538745   138A     -0.538280
     139A     -0.538276   140A     -0.529881   141A     -0.528209
     142A     -0.523037   143A     -0.523028   144A     -0.500656
     145A     -0.495711   146A     -0.493393   147A     -0.487939
     148A     -0.485250   149A     -0.481931   150A     -0.481924
     151A     -0.470427   152A     -0.470416   153A     -0.451230
     154A     -0.451153   155A     -0.439180   156A     -0.439171
     157A     -0.404860   158A     -0.404836   159A     -0.403482
     160A     -0.375535   161A     -0.375532   162A     -0.349238
     163A     -0.337703   164A     -0.336669   165A     -0.336614
     166A     -0.311215   167A     -0.298203   168A     -0.284468
     169A     -0.284416   170A     -0.225038   171A     -0.224973

  @DF-RHF Final Energy: -2055.89179662777769

   => Energetics <=

    Nuclear Repulsion Energy =           6452.5568002797781446
    One-Electron Energy =              -15636.4311685037300776
    Two-Electron Energy =                7127.9825715961733295
    Total Energy =                      -2055.8917966277776941
 Dipole X            :          0.0001062           -0.0000085            0.0000977
 Dipole Y            :         -0.0000316            0.0000167           -0.0000149
 Dipole Z            :       -641.1825904          641.1856093            0.0030188
 Magnitude           :                                                    0.0030205

    SAPT Results
  --------------------------------------------------------------------------------------------------------
    Electrostatics                 -6.64547448 [mEh]      -4.17009819 [kcal/mol]     -17.44769084 [kJ/mol]
      Elst10,r                     -6.64547448 [mEh]      -4.17009819 [kcal/mol]     -17.44769084 [kJ/mol]

    Exchange                       -0.00023442 [mEh]      -0.00014710 [kcal/mol]      -0.00061547 [kJ/mol]
      Exch10                       -0.00023442 [mEh]      -0.00014710 [kcal/mol]      -0.00061547 [kJ/mol]
      Exch10(S^2)                  -0.00023442 [mEh]      -0.00014710 [kcal/mol]      -0.00061547 [kJ/mol]

    Induction                      -1.88469932 [mEh]      -1.18266668 [kcal/mol]      -4.94827739 [kJ/mol]
      Ind20,r                      -1.85409940 [mEh]      -1.16346494 [kcal/mol]      -4.86793731 [kJ/mol]
      Exch-Ind20,r                  0.00015485 [mEh]       0.00009717 [kcal/mol]       0.00040655 [kJ/mol]
      delta HF,r (2)               -0.03075477 [mEh]      -0.01929891 [kcal/mol]      -0.08074664 [kJ/mol]

    Dispersion                     -0.88726049 [mEh]      -0.55676436 [kcal/mol]      -2.32950210 [kJ/mol]
      Disp20                       -0.88732651 [mEh]      -0.55680579 [kcal/mol]      -2.32967542 [kJ/mol]
      Exch-Disp20                   0.00006601 [mEh]       0.00004142 [kcal/mol]       0.00017332 [kJ/mol]
      Disp20 (SS)                  -0.44366325 [mEh]      -0.27840289 [kcal/mol]      -1.16483771 [kJ/mol]
      Disp20 (OS)                  -0.44366325 [mEh]      -0.27840289 [kcal/mol]      -1.16483771 [kJ/mol]
      Exch-Disp20 (SS)              0.00004965 [mEh]       0.00003116 [kcal/mol]       0.00013035 [kJ/mol]
      Exch-Disp20 (OS)              0.00001637 [mEh]       0.00001027 [kcal/mol]       0.00004297 [kJ/mol]

  Total HF                         -8.53040823 [mEh]      -5.35291198 [kcal/mol]     -22.39658371 [kJ/mol]
  Total SAPT0                      -9.41766872 [mEh]      -5.90967634 [kcal/mol]     -24.72608581 [kJ/mol]

  Special recipe for scaled SAPT0 (see Manual):
    Electrostatics sSAPT0          -6.64547448 [mEh]      -4.17009819 [kcal/mol]     -17.44769084 [kJ/mol]
    Exchange sSAPT0                -0.00023442 [mEh]      -0.00014710 [kcal/mol]      -0.00061547 [kJ/mol]
    Induction sSAPT0               -1.88469932 [mEh]      -1.18266668 [kcal/mol]      -4.94827739 [kJ/mol]
    Dispersion sSAPT0              -0.88726049 [mEh]      -0.55676436 [kcal/mol]      -2.32950210 [kJ/mol]
  Total sSAPT0                     -9.41766872 [mEh]      -5.90967634 [kcal/mol]     -24.72608581 [kJ/mol]
  --------------------------------------------------------------------------------------------------------

*** Psi4 exiting successfully. Buy a developer a beer!
