                               Psi4 1.9 release

  ==> Input File <==

--------------------------------------------------------------------------
memory 48 GB # how much memory is available ! Depends on the nodes/cores !

molecule dimer {
# monomer A
-1 1    # Charge and multiplicity
B -0.000046  0.000337 3.699994
F -1.153597  0.000048 4.515641
F  1.153661 -0.000581 4.515641
F -0.000019 -1.153637 2.884360
F -0.000019  1.153978 2.884360
--
# monomer B
0 1     # Charge and multiplicity
C   1.22531237526482      0.70753866091955      0.00613762728373
C   1.22532433589282     -0.70753852257020     -0.00619318228664
C   -0.00000567409046      1.41496628609039     -0.00672680580738
C   2.45644923379077      1.41832825917820      0.00902448468363
C   0.00001130712078     -1.41497612663474      0.00347275151708
C   -1.22530046906674      0.70754574598412      0.00838914760619
C   2.45643823516184     -1.41832293188077     -0.00843833914343
C   -0.00000085313587      2.83680140328112     -0.00913035594137
C   3.68182717731192      0.70931832800114     -0.00808954934571
C   2.45512052870677      2.83422403348893     -0.00819210630633
C   3.68182158506039     -0.70933346742900      0.00798293467272
C   -1.22531311884624     -0.70752714354401     -0.00512042085974
C   1.22670006104402      3.54346985599427      0.00816696660346
C   0.00000526469929     -2.83678176723568      0.00832091913869
C   -2.45643555300670      1.41831729028492      0.00842454345199
C   2.45512389762097     -2.83422965658853      0.00783102630520
C   -1.22671388474763      3.54346943575023      0.00827029982280
C   4.91451777504333      1.42717324448953     -0.00160886631602
C   3.69315067131765      3.54279566454522     -0.00155906667985
C   -2.45643712022637     -1.41831290883911     -0.00846337726810
C   1.22670532178455     -3.54347386990643     -0.00780316414624
C   -2.45512491866593      2.83421703463423     -0.00818572995999
C   4.91452486062398     -1.42718653794377      0.00136387641845
C   1.22142509354026      4.97013443726031      0.00150231067809
C   4.89300870916237      2.82518837202648     -0.00039219795739
C   -1.22669652864725     -3.54347062507680     -0.00753595973677
C   -3.68181849668397      0.70932533873199     -0.00807686886569
C   3.69314758099218     -3.54280096939050      0.00148176697923
C   -1.22143177215231      4.97012866986289      0.00168580605083
C   6.13477145276790      0.68054831910577     -0.00083909176631
C   3.65678936045204      4.97295361556775     -0.00065042889723
C   -2.45512642789169     -2.83421472106065      0.00758666850712
C   -3.68181869921921     -0.70932533146830      0.00810055625144
C   4.89301309775526     -2.82519973363176      0.00021895393805
C   -0.00000059327114      5.65044773803267      0.00045449734393
C   6.13477559217374     -0.68055448207492      0.00042622874941
C   2.47813196269732      5.65357712333155      0.00063835075260
C   1.22142288457925     -4.97012668293268     -0.00129718634452
C   -3.69316190412301      3.54279732619245     -0.00139355922051
C   -1.22142804110313     -4.97011793159564     -0.00140994817719
C   -4.91452132810043      1.42717581899491     -0.00153192130862
C   3.65678749952045     -4.97295485423912      0.00080007163680
C   -2.47813805026426      5.65357479452875      0.00092287576113
C   -3.69314125872231     -3.54278984697859      0.00136564082345
C   -4.91451200321153     -1.42718062802730      0.00139857359209
C   -0.00000552908399     -5.65043791501335      0.00005899322272
C   -4.89302000425900      2.82518897091939     -0.00040227981744
C   2.47812647313991     -5.65357317188818     -0.00029052915548
C   -3.65679823041642      4.97295655404175     -0.00047374852278
C   -4.89299899901461     -2.82519139505969      0.00006491824035
C   -2.47812801824129     -5.65356579800621     -0.00056571680280
C   -6.13477002348955      0.68054913825639     -0.00086464346868
C   -3.65678835334731     -4.97294365097028      0.00058578382008
C   -6.13476456307132     -0.68055354348201      0.00040575295444
H   5.83528897565761      3.36927626695423      0.00396712770529
H   7.07385965258860      1.22821762089947     -0.00037744837300
H   4.60066374401555      5.51238117445323     -0.00014522814529
H   5.83528386714679     -3.36930568472863     -0.00423551337640
H   -0.00001167146422      6.73853104613662     -0.00389474766392
H   7.07386165167227     -1.22822657074368     -0.00008250934481
H   2.47331421164041      6.74068466339473      0.00017162982210
H   4.60066897122302     -5.51237575717576      0.00039007446835
H   -2.47331820069565      6.74068209160650      0.00047297644710
H   -0.00000978838621     -6.73852780445195      0.00458867820736
H   -5.83530143450167      3.36927132229595      0.00410314985360
H   2.47330840367253     -6.74068500242887      0.00027980126949
H   -4.60067436136587      5.51237839860371      0.00002010017831
H   -5.83527902699321     -3.36928859177951     -0.00451481925734
H   -2.47329986759855     -6.74067870613986     -0.00016951527498
H   -7.07385728692578      1.22822084484047     -0.00046143985387
H   -4.60067330624313     -5.51236229778631      0.00021776644566
H   -7.07385645456741     -1.22822025997701     -0.00017736581114

    units angstrom      # Angstroms are the default
    no_reorient         # Geometry fixed, default
    symmetry c1         # C1 symmetry, default
}

set {
    scf_type DF         # Density fitting, faster than exact integrals
    freeze_core True    # Freeze core electrons
    basis jun-cc-pVDZ   # Jun-cc-pVDZ basis set, recommended for sSAPT0 in https://doi.org/10.1063/1.4867135
}

energy('ssapt0')        # Compute sSAPT0 energy, includes also SAPT0
--------------------------------------------------------------------------

  //              Dimer HF             //
    Molecular point group: c1
  Charge       = -1
  Multiplicity = 1
  Basis Set: JUN-CC-PVDZ
    Blend: JUN-CC-PVDZ
  Basis Set: (JUN-CC-PVDZ AUX)
    Blend: JUN-CC-PVDZ-JKFIT
  @DF-RHF Final Energy: -2478.66132729218498
    Total Energy =                      -2478.6613272921858879
 Dipole X            :         -0.0002207           -0.0000160           -0.0002368
 Dipole Y            :          0.0010064           -0.0001716            0.0008347
 Dipole Z            :         17.8987148          -22.6820595           -4.7833448
 Magnitude           :                                                    4.7833448
  //            Monomer A HF           //
    Molecular point group: c1
  Multiplicity = 1
  Basis Set: JUN-CC-PVDZ
    Blend: JUN-CC-PVDZ
  Basis Set: (JUN-CC-PVDZ AUX)
    Blend: JUN-CC-PVDZ-JKFIT
  @DF-RHF Final Energy:  -422.77331732316713
    Total Energy =                       -422.7733173231671344
  //            Monomer B HF           //
    Molecular point group: c1

    Geometry (in Angstrom), charge = 0, multiplicity = 1:

       Center              X                  Y                   Z               Mass
    ------------   -----------------  -----------------  -----------------  -----------------
      Gh(B)          -0.000046449334     0.000336519434     3.272573495030    11.009305360000
      Gh(F)          -1.153597449334     0.000047519434     4.088220495030    18.998403162730
      Gh(F)           1.153660550666    -0.000581480566     4.088220495030    18.998403162730
      Gh(F)          -0.000019449334    -1.153637480566     2.456939495030    18.998403162730
      Gh(F)          -0.000019449334     1.153977519434     2.456939495030    18.998403162730
         C            1.225311925931     0.707538180353    -0.421282877686    12.000000000000
         C            1.225323886559    -0.707539003137    -0.433613687257    12.000000000000
         C           -0.000006123424     1.414965805524    -0.434147310777    12.000000000000
         C            2.456448784457     1.418327778612    -0.418396020286    12.000000000000
         C            0.000010857787    -1.414976607201    -0.423947753453    12.000000000000
         C           -1.225300918401     0.707545265418    -0.419031357364    12.000000000000
         C            2.456437785828    -1.418323412447    -0.435858844113    12.000000000000
         C           -0.000001302470     2.836800922715    -0.436550860911    12.000000000000
         C            3.681826727978     0.709317847435    -0.435510054316    12.000000000000
         C            2.455120079373     2.834223552923    -0.435612611276    12.000000000000
         C            3.681821135726    -0.709333947995    -0.419437570297    12.000000000000
         C           -1.225313568180    -0.707527624110    -0.432540925830    12.000000000000
         C            1.226699611710     3.543469375428    -0.419253538366    12.000000000000
         C            0.000004815365    -2.836782247802    -0.419099585831    12.000000000000
         C           -2.456436002341     1.418316809719    -0.418995961518    12.000000000000
         C            2.455123448287    -2.834230137155    -0.419589478665    12.000000000000
         C           -1.226714334082     3.543468955184    -0.419150205147    12.000000000000
         C            4.914517325709     1.427172763923    -0.429029371286    12.000000000000
         C            3.693150221984     3.542795183979    -0.428979571650    12.000000000000
         C           -2.456437569560    -1.418313389406    -0.435883882238    12.000000000000
         C            1.226704872451    -3.543474350473    -0.435223669116    12.000000000000
         C           -2.455125368000     2.834216554068    -0.435606234930    12.000000000000
         C            4.914524411290    -1.427187018510    -0.426056628551    12.000000000000
         C            1.221424644206     4.970133956694    -0.425918194292    12.000000000000
         C            4.893008259828     2.825187891460    -0.427812702927    12.000000000000
         C           -1.226696977981    -3.543471105643    -0.434956464707    12.000000000000
         C           -3.681818946018     0.709324858166    -0.435497373836    12.000000000000
         C            3.693147131658    -3.542801449957    -0.425938737991    12.000000000000
         C           -1.221432221486     4.970128189296    -0.425734698919    12.000000000000
         C            6.134771003434     0.680547838539    -0.428259596736    12.000000000000
         C            3.656788911118     4.972953135001    -0.428070933867    12.000000000000
         C           -2.455126877226    -2.834215201627    -0.419833836463    12.000000000000
         C           -3.681819148553    -0.709325812035    -0.419319948718    12.000000000000
         C            4.893012648421    -2.825200214198    -0.427201551032    12.000000000000
         C           -0.000001042605     5.650447257466    -0.426966007626    12.000000000000
         C            6.134775142840    -0.680554962641    -0.426994276221    12.000000000000
         C            2.478131513363     5.653576642765    -0.426782154217    12.000000000000
         C            1.221422435245    -4.970127163499    -0.428717691314    12.000000000000
         C           -3.693162353457     3.542796845626    -0.428814064190    12.000000000000
         C           -1.221428490437    -4.970118412162    -0.428830453147    12.000000000000
         C           -4.914521777434     1.427175338429    -0.428952426279    12.000000000000
         C            3.656787050187    -4.972955334806    -0.426620433333    12.000000000000
         C           -2.478138499598     5.653574313962    -0.426497629209    12.000000000000
         C           -3.693141708056    -3.542790327545    -0.426054864146    12.000000000000
         C           -4.914512452545    -1.427181108594    -0.426021931378    12.000000000000
         C           -0.000005978418    -5.650438395580    -0.427361511747    12.000000000000
         C           -4.893020453593     2.825188490353    -0.427822784787    12.000000000000
         C            2.478126023806    -5.653573652455    -0.427711034125    12.000000000000
         C           -3.656798679750     4.972956073475    -0.427894253493    12.000000000000
         C           -4.892999448349    -2.825191875626    -0.427355586730    12.000000000000
         C           -2.478128467575    -5.653566278573    -0.427986221773    12.000000000000
         C           -6.134770472823     0.680548657690    -0.428285148439    12.000000000000
         C           -3.656788802681    -4.972944131537    -0.426834721150    12.000000000000
         C           -6.134765012405    -0.680554024048    -0.427014752015    12.000000000000
         H            5.835288526324     3.369275786388    -0.423453377265     1.007825032230
         H            7.073859203255     1.228217140333    -0.427797953343     1.007825032230
         H            4.600663294682     5.512380693887    -0.427565733115     1.007825032230
         H            5.835283417813    -3.369306165295    -0.431656018346     1.007825032230
         H           -0.000012120798     6.738530565570    -0.431315252634     1.007825032230
         H            7.073861202338    -1.228227051310    -0.427503014315     1.007825032230
         H            2.473313762307     6.740684182828    -0.427248875148     1.007825032230
         H            4.600668521889    -5.512376237742    -0.427030430502     1.007825032230
         H           -2.473318650030     6.740681611040    -0.426947528523     1.007825032230
         H           -0.000010237720    -6.738528285018    -0.422831826763     1.007825032230
         H           -5.835301883836     3.369270841730    -0.423317355116     1.007825032230
         H            2.473307954339    -6.740685482995    -0.427140703700     1.007825032230
         H           -4.600674810700     5.512377918037    -0.427400404792     1.007825032230
         H           -5.835279476327    -3.369289072346    -0.431935324227     1.007825032230
         H           -2.473300316932    -6.740679186706    -0.427590020245     1.007825032230
         H           -7.073857736260     1.228220364274    -0.427881944824     1.007825032230
         H           -4.600673755577    -5.512362778353    -0.427202738524     1.007825032230
         H           -7.073856903901    -1.228220740543    -0.427597870781     1.007825032230

  Charge       = 0
  Multiplicity = 1
  Basis Set: JUN-CC-PVDZ
    Blend: JUN-CC-PVDZ
  Basis Set: (JUN-CC-PVDZ AUX)
    Blend: JUN-CC-PVDZ-JKFIT

    Orbital Energies [Eh]
    ---------------------

    Doubly Occupied:

       1A    -11.260681     2A    -11.260261     3A    -11.260198
       4A    -11.259514     5A    -11.259448     6A    -11.259296
       7A    -11.259060     8A    -11.259009     9A    -11.258956
      10A    -11.258667    11A    -11.258641    12A    -11.258545
      13A    -11.258489    14A    -11.258484    15A    -11.258481
      16A    -11.258448    17A    -11.258443    18A    -11.258428
      19A    -11.258423    20A    -11.258422    21A    -11.258402
      22A    -11.258360    23A    -11.258328    24A    -11.258099
      25A    -11.257343    26A    -11.257292    27A    -11.257272
      28A    -11.257162    29A    -11.257137    30A    -11.257067
      31A    -11.256439    32A    -11.256377    33A    -11.256362
      34A    -11.256276    35A    -11.256243    36A    -11.256211
      37A    -11.252296    38A    -11.252295    39A    -11.252293
      40A    -11.252292    41A    -11.252290    42A    -11.252288
      43A    -11.251400    44A    -11.251398    45A    -11.251395
      46A    -11.251391    47A    -11.251386    48A    -11.251384
      49A    -11.250858    50A    -11.250857    51A    -11.250854
      52A    -11.250852    53A    -11.250850    54A    -11.250850
      55A     -1.244050    56A     -1.219822    57A     -1.219813
      58A     -1.189547    59A     -1.189545    60A     -1.180928
      61A     -1.157571    62A     -1.148987    63A     -1.135483
      64A     -1.135481    65A     -1.113205    66A     -1.113198
      67A     -1.082434    68A     -1.082427    69A     -1.078594
      70A     -1.065992    71A     -1.065991    72A     -1.039410
      73A     -1.024272    74A     -1.021746    75A     -1.021714
      76A     -1.017742    77A     -1.012810    78A     -0.987022
      79A     -0.986978    80A     -0.961889    81A     -0.961839
      82A     -0.894303    83A     -0.894276    84A     -0.887920
      85A     -0.886176    86A     -0.886111    87A     -0.881392
      88A     -0.881352    89A     -0.861911    90A     -0.837429
      91A     -0.818217    92A     -0.816606    93A     -0.812134
      94A     -0.812124    95A     -0.794699    96A     -0.794691
      97A     -0.746620    98A     -0.744858    99A     -0.733406
     100A     -0.733394   101A     -0.732191   102A     -0.732170
     103A     -0.716493   104A     -0.698981   105A     -0.698975
     106A     -0.693583   107A     -0.693574   108A     -0.661241
     109A     -0.653091   110A     -0.651145   111A     -0.650262
     112A     -0.650260   113A     -0.639372   114A     -0.639368
     115A     -0.629712   116A     -0.627525   117A     -0.627500
     118A     -0.606467   119A     -0.605826   120A     -0.601660
     121A     -0.599736   122A     -0.599716   123A     -0.593642
     124A     -0.591195   125A     -0.591193   126A     -0.585294
     127A     -0.576435   128A     -0.576364   129A     -0.567337
     130A     -0.567324   131A     -0.565948   132A     -0.565929
     133A     -0.558712   134A     -0.554851   135A     -0.554844
     136A     -0.538605   137A     -0.538601   138A     -0.538201
     139A     -0.538201   140A     -0.529725   141A     -0.528184
     142A     -0.522876   143A     -0.522872   144A     -0.500515
     145A     -0.495615   146A     -0.493244   147A     -0.487850
     148A     -0.485074   149A     -0.481759   150A     -0.481750
     151A     -0.470371   152A     -0.470328   153A     -0.451008
     154A     -0.450926   155A     -0.439088   156A     -0.439068
     157A     -0.404756   158A     -0.404723   159A     -0.403389
     160A     -0.375431   161A     -0.375426   162A     -0.349148
     163A     -0.337618   164A     -0.336568   165A     -0.336515
     166A     -0.311083   167A     -0.298127   168A     -0.284350
     169A     -0.284299   170A     -0.224921   171A     -0.224853

  @DF-RHF Final Energy: -2055.89371067453521

   => Energetics <=

    Nuclear Repulsion Energy =           6452.5568002797781446
    One-Electron Energy =              -15636.4798034306913905
    Two-Electron Energy =                7128.0292924763789415
    Total Energy =                      -2055.8937106745352139
 Dipole X            :          0.0000665            0.0000112            0.0000777
 Dipole Y            :          0.0003661           -0.0000531            0.0003129
 Dipole Z            :        276.2373690         -276.2374746           -0.0001055
 Magnitude           :                                                    0.0003393

    SAPT Results
  --------------------------------------------------------------------------------------------------------
    Electrostatics                  8.12339839 [mEh]       5.09750945 [kcal/mol]      21.32797953 [kJ/mol]
      Elst10,r                      8.12339839 [mEh]       5.09750945 [kcal/mol]      21.32797953 [kJ/mol]

    Exchange                       13.33367512 [mEh]       8.36700746 [kcal/mol]      35.00755921 [kJ/mol]
      Exch10                       13.33367512 [mEh]       8.36700746 [kcal/mol]      35.00755921 [kJ/mol]
      Exch10(S^2)                  13.30735218 [mEh]       8.35048957 [kcal/mol]      34.93844835 [kJ/mol]

    Induction                     -15.75636799 [mEh]      -9.88727019 [kcal/mol]     -41.36833847 [kJ/mol]
      Ind20,r                     -19.10435821 [mEh]     -11.98816577 [kcal/mol]     -50.15848556 [kJ/mol]
      Exch-Ind20,r                  4.38340344 [mEh]       2.75062719 [kcal/mol]      11.50862416 [kJ/mol]
      delta HF,r (2)               -1.03541323 [mEh]      -0.64973161 [kcal/mol]      -2.71847706 [kJ/mol]

    Dispersion                    -10.33451258 [mEh]      -6.48500455 [kcal/mol]     -27.13325905 [kJ/mol]
      Disp20                      -12.01628801 [mEh]      -7.54033457 [kcal/mol]     -31.54875982 [kJ/mol]
      Exch-Disp20                   1.68177543 [mEh]       1.05533001 [kcal/mol]       4.41550077 [kJ/mol]
      Disp20 (SS)                  -6.00814400 [mEh]      -3.77016728 [kcal/mol]     -15.77437991 [kJ/mol]
      Disp20 (OS)                  -6.00814400 [mEh]      -3.77016728 [kcal/mol]     -15.77437991 [kJ/mol]
      Exch-Disp20 (SS)              0.96244853 [mEh]       0.60394557 [kcal/mol]       2.52690827 [kJ/mol]
      Exch-Disp20 (OS)              0.71932690 [mEh]       0.45138444 [kcal/mol]       1.88859251 [kJ/mol]

  Total HF                          5.70070552 [mEh]       3.57724672 [kcal/mol]      14.96720027 [kJ/mol]
  Total SAPT0                      -4.63380706 [mEh]      -2.90775783 [kcal/mol]     -12.16605877 [kJ/mol]

  Special recipe for scaled SAPT0 (see Manual):
    Electrostatics sSAPT0           8.12339839 [mEh]       5.09750945 [kcal/mol]      21.32797953 [kJ/mol]
    Exchange sSAPT0                13.33367512 [mEh]       8.36700746 [kcal/mol]      35.00755921 [kJ/mol]
    Induction sSAPT0              -15.73030441 [mEh]      -9.87091504 [kcal/mol]     -41.29990853 [kJ/mol]
    Dispersion sSAPT0             -10.32451280 [mEh]      -6.47872959 [kcal/mol]     -27.10700461 [kJ/mol]
  Total sSAPT0                     -4.59774369 [mEh]      -2.88512772 [kcal/mol]     -12.07137440 [kJ/mol]
  --------------------------------------------------------------------------------------------------------

*** Psi4 exiting successfully. Buy a developer a beer!
