                               Psi4 1.9 release

  ==> Input File <==

--------------------------------------------------------------------------
memory 64 GB # how much memory is available ! Depends on the nodes/cores !

molecule dimer {
# monomer A
-1 1    # Charge and multiplicity
B -1.977592e-04  2.742729e-04 2.200034
F  1.123153e-16  1.430594e-17 3.612819
F  1.147860e+00  6.757812e-01 1.728893
F  1.191806e-02 -1.332011e+00 1.729095
F -1.159666e+00  6.560735e-01 1.729174
--
# monomer B
0 1     # Charge and multiplicity
C   -3.66844126402057      7.80375217008252      0.00190004133558
C   -4.84759871934653      7.13124183134024     -0.00046653359696
C   -4.89495929917518      5.69633040353158     -0.00103944469517
C   -3.65374067877320      4.98073034095895      0.00662099703436
C   -2.40942512149445      7.11398103667468      0.00209438359570
C   -2.42547734410473      5.68112195090346     -0.00491050527438
C   -1.19474401643570      7.78614419430947      0.00356656413763
C   0.03795902893699      7.09942164575698      0.00139585983271
C   0.03033258741920      5.66948955970466     -0.00408752508301
C   -1.20098450790502      4.96927034791531      0.00488220885047
C   1.27795782581485      7.77285944319479      0.00277170839332
C   2.48535808472416      7.08769688523756      0.00049722048857
C   2.48612868491717      5.65477081024076     -0.00644052849921
C   1.25408291964399      4.95607811366431      0.00518741308898
C   3.75171459140595      7.76391215098033      0.00062407186893
C   4.92356605618520      7.07878077698995     -0.00143240883900
C   4.95560727132542      5.64344746336949     -0.00159282164606
C   3.70680153420475      4.94121020833308      0.00349873852374
H   -3.65852113775815      8.89082741913536      0.00358502958574
H   -1.18921332975660      8.87412108735996      0.00753844057883
H   1.28429423888630      8.86083343548850      0.00693053253426
H   3.75354208679975      8.85103527897216      0.00214659618464
H   5.86995870320703      7.61379483465560     -0.00235777588134
H   -5.78823170750226      7.67630221293400     -0.00202638095293
C   -6.09197395869619      4.99326001364347     -0.00291168518608
C   -6.12866148031747      3.58258016879823     -0.00171050815740
C   -3.66457974004527      3.56418217974434     -0.00463560277484
C   -4.89429820469869      2.86108077590057      0.00453338221034
C   -2.43733499489796      2.84761165708481      0.00719617576166
C   -1.20922785759670      3.54788693497833     -0.00648285103018
C   1.24714157216223      3.53468075142962     -0.00729145743546
C   0.01517603956900      2.83311183930540      0.00439272578912
C   2.46764517244071      2.82128997725533      0.00449278391269
C   3.70254947457969      3.52466015442405     -0.00899517692985
C   6.14498038638375      4.92757236613191     -0.00282626685777
C   6.16658835886151      3.51658447594213     -0.00065971342101
C   4.92460995845939      2.80840792535402      0.00587903281610
H   7.08990550964105      5.46688776622306     -0.00658814770723
H   -7.03104175110130      5.54268795285765     -0.00714490013730
C   -7.33969804112295      2.85841153457957     -0.00333767559888
C   -7.36488195805880      1.47032337158330     -0.00157213747140
C   -4.90350460894690      1.44442681216000     -0.00628840166334
C   -6.13225715261081      0.73993935705394      0.00600164231964
C   -3.67687480051673      0.72669714267312      0.00433931473643
C   -2.44565658606518      1.42964113326212     -0.00597039546461
C   -1.22360068130162      0.71532450163492      0.00545886906656
C   0.00763786931376      1.41738314923765      0.00392452278437
C   1.23121980774686      0.70211669058719     -0.01490206287210
C   2.46082110053113      1.40329203612573      0.00460244601878
C   3.68443025419614      0.68719842821222      0.00377365974158
C   4.91870890153864      1.39173456118907     -0.00862816189375
C   7.36980207796101      2.77948220318441     -0.00242013321349
C   7.38016266612146      1.39121750785509     -0.00087345036788
C   6.13979953912259      0.67411862320065      0.00545489144369
H   -8.27919079934664      3.40711804112415     -0.00763522772059
H   8.31511347147953      3.31811809662368     -0.00663070901292
C   -8.59175593758115      0.72483255304480     -0.00123170985383
C   -8.59902460370342     -0.63263980622873      0.00089141472904
C   -6.13981313911873     -0.67413663715361     -0.00609792660607
C   -7.38018411213749     -1.39126618958160      0.00131813493501
C   -4.91868448025621     -1.39175501803000      0.00624257154343
C   -3.68443829568458     -0.68723731573599     -0.00478966852105
C   -2.46081704024768     -1.40334517882457      0.00575341766833
C   -1.23116201232071     -0.70217386488055     -0.00636696112346
C   -0.00756962538737     -1.41741884941102      0.00108956317991
C   1.22364771588843     -0.71527537726392      0.01109518512883
C   2.44567064933149     -1.42964328900682     -0.00065482763106
C   3.67686670284649     -0.72670743155550     -0.00479541202602
C   6.13224884641929     -0.73997883984993     -0.00632338623858
C   4.90351914550401     -1.44445752054090      0.00751768830159
C   8.59901484869081      0.63260386666793     -0.00101133422380
C   8.59174548810050     -0.72485086719319      0.00072504603735
C   7.36486276438985     -1.47033266560598      0.00049486934466
H   -9.52830597181814      1.27684744919284     -0.00270163681798
H   9.54141097460619      1.17457248844457     -0.00206336648518
C   -7.36983790976868     -2.77954514593389      0.00312634335708
C   -4.92459910905015     -2.80843725734101     -0.00460528907921
C   -6.16662249566744     -3.51665219282533      0.00169655107992
C   -3.70251035970491     -3.52468154912026      0.00571878010666
C   -2.46764698511392     -2.82132596280400     -0.00632585824990
C   -0.01513347410770     -2.83314164539971     -0.00604426974092
C   -1.24712184122656     -3.53473217556300      0.00551968366725
C   1.20924506964357     -3.54791467864352      0.00805871345849
C   2.43733602215464     -2.84764173817541     -0.00608104485234
C   4.89430234377080     -2.86112296828604     -0.00526030478103
C   3.66461525504104     -3.56421984553201      0.00761911515957
C   6.12863901474565     -3.58258405771778      0.00096495711699
C   7.33967266469532     -2.85841330737039      0.00248018319869
H   -9.54144911125902     -1.17456346666430      0.00226083090216
H   9.52826186807155     -1.27691907390448      0.00197485379837
H   -8.31516504384864     -3.31814985321231      0.00729857188773
H   8.27915514249207     -3.40714078989363      0.00681973918158
C   -6.14499418870218     -4.92764727278338      0.00302254913999
C   -3.70678334799751     -4.94126171411716     -0.00679841894792
C   -4.95559005800169     -5.64349397349412      0.00116871569699
C   -2.48612132622665     -5.65478557440947      0.00614125209662
C   -1.25405833548005     -4.95612205000132     -0.00503435388927
C   1.20101257386816     -4.96928038819302     -0.00385322963129
C   -0.03033667441341     -5.66952030313900      0.00398997003238
C   3.65375010132847     -4.98074377541453     -0.00309522988330
C   2.42549269587528     -5.68117463552727      0.00628170066869
C   6.09196561781097     -4.99325796338655      0.00325918379042
C   4.89497644461045     -5.69634842095790      0.00202298796027
H   -7.08989238804069     -5.46699984223871      0.00742531082125
H   7.03105520920009     -5.54265853633254      0.00683896355417
C   -4.92354532219813     -7.07882109967734      0.00061394679214
C   -2.48534208823777     -7.08772807792913     -0.00189594564379
C   -3.75168589177895     -7.76394715763627     -0.00170126671874
C   -0.03794895698805     -7.09946487446944     -0.00168022049625
C   -1.27795610040136     -7.77290438466689     -0.00366491325785
C   2.40944432072629     -7.11402201200282     -0.00081701968533
C   1.19474993715296     -7.78618536556242     -0.00296931056689
C   4.84762105249800     -7.13126211057943      0.00168979497423
C   3.66847160587561     -7.80378799294376     -0.00065863938960
H   -5.86994035041618     -7.61383059804164      0.00215798365757
H   5.78824962538815     -7.67633218931421      0.00281691445618
H   -3.75352693944918     -8.85107156923607     -0.00353718114765
H   -1.28430440589466     -8.86087539249706     -0.00809229711623
H   1.18922157469537     -8.87416062058945     -0.00706194725726
H   3.65854661482387     -8.89086063405326     -0.00231318081200

    units angstrom      # Angstroms are the default
    no_reorient         # Geometry fixed, default
    symmetry c1         # C1 symmetry, default
}

set {
    scf_type DF         # Density fitting, faster than exact integrals
    freeze_core True    # Freeze core electrons
    basis jun-cc-pVDZ   # Jun-cc-pVDZ basis set, recommended for sSAPT0 in https://doi.org/10.1063/1.4867135
}

energy('ssapt0')        # Compute sSAPT0 energy, includes also SAPT0
--------------------------------------------------------------------------

  //              Dimer HF             //
    Molecular point group: c1
  Charge       = -1
  Multiplicity = 1
  Basis Set: JUN-CC-PVDZ
    Blend: JUN-CC-PVDZ
  Basis Set: (JUN-CC-PVDZ AUX)
    Blend: JUN-CC-PVDZ-JKFIT
  @DF-RHF Final Energy: -4072.76180604468573
    Total Energy =                      -4072.7618060446839081
 Dipole X            :          0.0158449           -0.0000548            0.0157902
 Dipole Y            :          0.0088543           -0.0002464            0.0086079
 Dipole Z            :         11.8116199          -13.0929183           -1.2812984
 Magnitude           :                                                    1.2814246
  //            Monomer A HF           //
    Molecular point group: c1
  Multiplicity = 1
  Basis Set: JUN-CC-PVDZ
    Blend: JUN-CC-PVDZ
  Basis Set: (JUN-CC-PVDZ AUX)
    Blend: JUN-CC-PVDZ-JKFIT
  @DF-RHF Final Energy:  -422.77889784181940
    Total Energy =                       -422.7788978418194006
  //            Monomer B HF           //
    Molecular point group: c1

    Geometry (in Angstrom), charge = 0, multiplicity = 1:

       Center              X                  Y                   Z               Mass
    ------------   -----------------  -----------------  -----------------  -----------------
      Gh(B)          -0.000201921932     0.000288800891     2.048504720899    11.009305360000
      Gh(F)          -0.000004162732     0.000014527991     3.461289720899    18.998403162730
      Gh(F)           1.147855837268     0.675795727991     1.577363720899    18.998403162730
      Gh(F)           0.011913897268    -1.331996472009     1.577565720899    18.998403162730
      Gh(F)          -1.159670162732     0.656088027991     1.577644720899    18.998403162730
         C           -3.668445426752     7.803766698073    -0.149629237766    12.000000000000
         C           -4.847602882078     7.131256359331    -0.151995812698    12.000000000000
         C           -4.894963461907     5.696344931522    -0.152568723796    12.000000000000
         C           -3.653744841505     4.980744868950    -0.144908282067    12.000000000000
         C           -2.409429284226     7.113995564665    -0.149434895505    12.000000000000
         C           -2.425481506836     5.681136478894    -0.156439784376    12.000000000000
         C           -1.194748179167     7.786158722300    -0.147962714964    12.000000000000
         C            0.037954866205     7.099436173748    -0.150133419268    12.000000000000
         C            0.030328424687     5.669504087695    -0.155616804184    12.000000000000
         C           -1.200988670637     4.969284875906    -0.146647070251    12.000000000000
         C            1.277953663083     7.772873971185    -0.148757570708    12.000000000000
         C            2.485353921992     7.087711413228    -0.151032058613    12.000000000000
         C            2.486124522185     5.654785338231    -0.157969807600    12.000000000000
         C            1.254078756912     4.956092641655    -0.146341866012    12.000000000000
         C            3.751710428674     7.763926678971    -0.150905207232    12.000000000000
         C            4.923561893453     7.078795304981    -0.152961687940    12.000000000000
         C            4.955603108594     5.643461991360    -0.153122100747    12.000000000000
         C            3.706797371473     4.941224736324    -0.148030540577    12.000000000000
         H           -3.658525300490     8.890841947126    -0.147944249515     1.007825032230
         H           -1.189217492488     8.874135615351    -0.143990838522     1.007825032230
         H            1.284290076155     8.860847963479    -0.144598746567     1.007825032230
         H            3.753537924068     8.851049806963    -0.149382682916     1.007825032230
         H            5.869954540475     7.613809362646    -0.153887054982     1.007825032230
         H           -5.788235870234     7.676316740925    -0.153555660054     1.007825032230
         C           -6.091978121428     4.993274541634    -0.154440964287    12.000000000000
         C           -6.128665643049     3.582594696789    -0.153239787259    12.000000000000
         C           -3.664583902777     3.564196707735    -0.156164881876    12.000000000000
         C           -4.894302367430     2.861095303891    -0.146995896891    12.000000000000
         C           -2.437339157630     2.847626185075    -0.144333103339    12.000000000000
         C           -1.209232020328     3.547901462969    -0.158012130131    12.000000000000
         C            1.247137409430     3.534695279420    -0.158820736537    12.000000000000
         C            0.015171876837     2.833126367296    -0.147136553312    12.000000000000
         C            2.467641009709     2.821304505246    -0.147036495188    12.000000000000
         C            3.702545311848     3.524674682415    -0.160524456031    12.000000000000
         C            6.144976223652     4.927586894122    -0.154355545959    12.000000000000
         C            6.166584196130     3.516599003933    -0.152188992522    12.000000000000
         C            4.924605795728     2.808422453345    -0.145650246285    12.000000000000
         H            7.089901346909     5.466902294214    -0.158117426808     1.007825032230
         H           -7.031045913833     5.542702480848    -0.158674179238     1.007825032230
         C           -7.339702203855     2.858426062570    -0.154866954700    12.000000000000
         C           -7.364886120791     1.470337899574    -0.153101416573    12.000000000000
         C           -4.903508771679     1.444441340151    -0.157817680764    12.000000000000
         C           -6.132261315343     0.739953885044    -0.145527636781    12.000000000000
         C           -3.676878963248     0.726711670664    -0.147189964365    12.000000000000
         C           -2.445660748797     1.429655661253    -0.157499674566    12.000000000000
         C           -1.223604844033     0.715339029625    -0.146070410035    12.000000000000
         C            0.007633706582     1.417397677228    -0.147604756317    12.000000000000
         C            1.231215645015     0.702131218578    -0.166431341973    12.000000000000
         C            2.460816937799     1.403306564116    -0.146926833082    12.000000000000
         C            3.684426091464     0.687212956203    -0.147755619360    12.000000000000
         C            4.918704738807     1.391749089180    -0.160157440995    12.000000000000
         C            7.369797915229     2.779496731175    -0.153949412315    12.000000000000
         C            7.380158503390     1.391232035846    -0.152402729469    12.000000000000
         C            6.139795376391     0.674133151191    -0.146074387657    12.000000000000
         H           -8.279194962078     3.407132569115    -0.159164506822     1.007825032230
         H            8.315109308748     3.318132624614    -0.158159988114     1.007825032230
         C           -8.591760100313     0.724847081035    -0.152760988955    12.000000000000
         C           -8.599028766435    -0.632625278238    -0.150637864372    12.000000000000
         C           -6.139817301850    -0.674122109163    -0.157627205707    12.000000000000
         C           -7.380188274869    -1.391251661591    -0.150211144166    12.000000000000
         C           -4.918688642988    -1.391740490039    -0.145286707558    12.000000000000
         C           -3.684442458416    -0.687222787745    -0.156318947622    12.000000000000
         C           -2.460821202979    -1.403330650834    -0.145775861433    12.000000000000
         C           -1.231166175052    -0.702159336890    -0.157896240225    12.000000000000
         C           -0.007573788119    -1.417404321420    -0.150439715921    12.000000000000
         C            1.223643553157    -0.715260849273    -0.140434093972    12.000000000000
         C            2.445666486600    -1.429628761016    -0.152184106732    12.000000000000
         C            3.676862540115    -0.726692903565    -0.156324691127    12.000000000000
         C            6.132244683688    -0.739964311859    -0.157852665340    12.000000000000
         C            4.903514982772    -1.444442992550    -0.144011590800    12.000000000000
         C            8.599010685959     0.632618394658    -0.152540613325    12.000000000000
         C            8.591741325369    -0.724836339203    -0.150804233064    12.000000000000
         C            7.364858601658    -1.470318137615    -0.151034409756    12.000000000000
         H           -9.528310134550     1.276861977183    -0.154230915919     1.007825032230
         H            9.541406811874     1.174587016435    -0.153592645586     1.007825032230
         C           -7.369842072500    -2.779530617943    -0.148402935744    12.000000000000
         C           -4.924603271782    -2.808422729350    -0.156134568180    12.000000000000
         C           -6.166626658399    -3.516637664835    -0.149832728021    12.000000000000
         C           -3.702514522437    -3.524667021130    -0.145810498994    12.000000000000
         C           -2.467651147846    -2.821311434813    -0.157855137351    12.000000000000
         C           -0.015137636839    -2.833127117409    -0.157573548842    12.000000000000
         C           -1.247126003958    -3.534717647572    -0.146009595434    12.000000000000
         C            1.209240906912    -3.547900150653    -0.143470565643    12.000000000000
         C            2.437331859423    -2.847627210185    -0.157610323953    12.000000000000
         C            4.894298181039    -2.861108440295    -0.156789583882    12.000000000000
         C            3.664611092309    -3.564205317541    -0.143910163942    12.000000000000
         C            6.128634852014    -3.582569529727    -0.150564321984    12.000000000000
         C            7.339668501964    -2.858398779380    -0.149049095902    12.000000000000
         H           -9.541453273991    -1.174548938674    -0.149268448199     1.007825032230
         H            9.528257705340    -1.276904545914    -0.149554425303     1.007825032230
         H           -8.315169206580    -3.318135325222    -0.144230707213     1.007825032230
         H            8.279150979760    -3.407126261903    -0.144709539920     1.007825032230
         C           -6.144998351434    -4.927632744793    -0.148506729961    12.000000000000
         C           -3.706787510729    -4.941247186127    -0.158327698049    12.000000000000
         C           -4.955594220733    -5.643479445504    -0.150360563404    12.000000000000
         C           -2.486125488958    -5.654771046419    -0.145388027005    12.000000000000
         C           -1.254062498212    -4.956107522011    -0.156563632990    12.000000000000
         C            1.201008411136    -4.969265860202    -0.155382508732    12.000000000000
         C           -0.030340837145    -5.669505775148    -0.147539309069    12.000000000000
         C            3.653745938597    -4.980729247424    -0.154624508984    12.000000000000
         C            2.425488533144    -5.681160107537    -0.145247578432    12.000000000000
         C            6.091961455079    -4.993243435396    -0.148270095311    12.000000000000
         C            4.894972281879    -5.696333892967    -0.149506291141    12.000000000000
         H           -7.089896550772    -5.466985314248    -0.144103968280     1.007825032230
         H            7.031051046468    -5.542644008342    -0.144690315547     1.007825032230
         C           -4.923549484930    -7.078806571687    -0.150915332309    12.000000000000
         C           -2.485346250970    -7.087713549939    -0.153425224745    12.000000000000
         C           -3.751690054511    -7.763932629646    -0.153230545820    12.000000000000
         C           -0.037953119720    -7.099450346479    -0.153209499597    12.000000000000
         C           -1.277960263133    -7.772889856676    -0.155194192359    12.000000000000
         C            2.409440157995    -7.114007484012    -0.152346298786    12.000000000000
         C            1.194745774421    -7.786170837572    -0.154498589668    12.000000000000
         C            4.847616889766    -7.131247582589    -0.149839484127    12.000000000000
         C            3.668467443144    -7.803773464953    -0.152187918491    12.000000000000
         H           -5.869944513148    -7.613816070051    -0.149371295444     1.007825032230
         H            5.788245462656    -7.676317661324    -0.148712364645     1.007825032230
         H           -3.753531102181    -8.851057041246    -0.155066460249     1.007825032230
         H           -1.284308568626    -8.860860864507    -0.159621576217     1.007825032230
         H            1.189217411964    -8.874146092599    -0.158591226358     1.007825032230
         H            3.658542452092    -8.890846106063    -0.153842459913     1.007825032230

  Charge       = 0
  Multiplicity = 1
  Basis Set: JUN-CC-PVDZ
    Blend: JUN-CC-PVDZ
  Basis Set: (JUN-CC-PVDZ AUX)
    Blend: JUN-CC-PVDZ-JKFIT

    Orbital Energies [Eh]
    ---------------------

    Doubly Occupied:

       1A    -11.264132     2A    -11.263755     3A    -11.263748
       4A    -11.263252     5A    -11.263250     6A    -11.263219
       7A    -11.263086     8A    -11.263081     9A    -11.263062
      10A    -11.262807    11A    -11.262708    12A    -11.262704
      13A    -11.262233    14A    -11.262232    15A    -11.262191
      16A    -11.262188    17A    -11.262088    18A    -11.262063
      19A    -11.262028    20A    -11.261993    21A    -11.261991
      22A    -11.261903    23A    -11.261898    24A    -11.261750
      25A    -11.261729    26A    -11.261708    27A    -11.261699
      28A    -11.261666    29A    -11.261658    30A    -11.261568
      31A    -11.261553    32A    -11.261535    33A    -11.261531
      34A    -11.261493    35A    -11.261490    36A    -11.261467
      37A    -11.261319    38A    -11.261313    39A    -11.261306
      40A    -11.261303    41A    -11.261298    42A    -11.261294
      43A    -11.261265    44A    -11.261248    45A    -11.261244
      46A    -11.261220    47A    -11.261216    48A    -11.261213
      49A    -11.261003    50A    -11.260969    51A    -11.260965
      52A    -11.260883    53A    -11.260879    54A    -11.260827
      55A    -11.259899    56A    -11.259885    57A    -11.259882
      58A    -11.259853    59A    -11.259850    60A    -11.259834
      61A    -11.259268    62A    -11.259243    63A    -11.259241
      64A    -11.259183    65A    -11.259180    66A    -11.259151
      67A    -11.258900    68A    -11.258882    69A    -11.258879
      70A    -11.258851    71A    -11.258848    72A    -11.258837
      73A    -11.254524    74A    -11.254522    75A    -11.254517
      76A    -11.254516    77A    -11.254516    78A    -11.254515
      79A    -11.253642    80A    -11.253642    81A    -11.253640
      82A    -11.253638    83A    -11.253637    84A    -11.253632
      85A    -11.253558    86A    -11.253557    87A    -11.253555
      88A    -11.253554    89A    -11.253552    90A    -11.253548
      91A    -11.253052    92A    -11.253050    93A    -11.253045
      94A    -11.253044    95A    -11.253044    96A    -11.253043
      97A     -1.253845    98A     -1.238945    99A     -1.238944
     100A     -1.220433   101A     -1.220428   102A     -1.215341
     103A     -1.201022   104A     -1.195581   105A     -1.188060
     106A     -1.188058   107A     -1.173746   108A     -1.173744
     109A     -1.155570   110A     -1.155566   111A     -1.152622
     112A     -1.144707   113A     -1.144704   114A     -1.128527
     115A     -1.114659   116A     -1.113143   117A     -1.112401
     118A     -1.112386   119A     -1.111607   120A     -1.088385
     121A     -1.088370   122A     -1.076944   123A     -1.076942
     124A     -1.067563   125A     -1.067533   126A     -1.064895
     127A     -1.046769   128A     -1.046762   129A     -1.040439
     130A     -1.038718   131A     -1.038717   132A     -1.025171
     133A     -1.021287   134A     -1.021236   135A     -1.007151
     136A     -1.006781   137A     -1.003761   138A     -1.000429
     139A     -1.000381   140A     -0.991060   141A     -0.970937
     142A     -0.970889   143A     -0.955855   144A     -0.955800
     145A     -0.905537   146A     -0.905517   147A     -0.905497
     148A     -0.905476   149A     -0.904240   150A     -0.892297
     151A     -0.892238   152A     -0.890300   153A     -0.890242
     154A     -0.889408   155A     -0.872193   156A     -0.869048
     157A     -0.851512   158A     -0.847807   159A     -0.847786
     160A     -0.845535   161A     -0.842975   162A     -0.834532
     163A     -0.834519   164A     -0.828093   165A     -0.828089
     166A     -0.784512   167A     -0.784501   168A     -0.783601
     169A     -0.783575   170A     -0.782241   171A     -0.782221
     172A     -0.781972   173A     -0.766963   174A     -0.760722
     175A     -0.750496   176A     -0.733462   177A     -0.727035
     178A     -0.727022   179A     -0.725038   180A     -0.724512
     181A     -0.724493   182A     -0.718411   183A     -0.713705
     184A     -0.713699   185A     -0.699538   186A     -0.699526
     187A     -0.686038   188A     -0.685935   189A     -0.685932
     190A     -0.682149   191A     -0.682138   192A     -0.678705
     193A     -0.653580   194A     -0.650825   195A     -0.650795
     196A     -0.649742   197A     -0.649727   198A     -0.649542
     199A     -0.640849   200A     -0.640822   201A     -0.640065
     202A     -0.639145   203A     -0.635961   204A     -0.635934
     205A     -0.629105   206A     -0.617724   207A     -0.615282
     208A     -0.615262   209A     -0.608769   210A     -0.608763
     211A     -0.599105   212A     -0.599071   213A     -0.598693
     214A     -0.598561   215A     -0.598539   216A     -0.597952
     217A     -0.595043   218A     -0.595030   219A     -0.594680
     220A     -0.594152   221A     -0.591901   222A     -0.591897
     223A     -0.587318   224A     -0.577782   225A     -0.577772
     226A     -0.575632   227A     -0.575628   228A     -0.573354
     229A     -0.569619   230A     -0.568061   231A     -0.568038
     232A     -0.566705   233A     -0.566694   234A     -0.560897
     235A     -0.558662   236A     -0.558643   237A     -0.558410
     238A     -0.554325   239A     -0.550525   240A     -0.547460
     241A     -0.544236   242A     -0.535006   243A     -0.534969
     244A     -0.533492   245A     -0.533471   246A     -0.528048
     247A     -0.528032   248A     -0.527717   249A     -0.517090
     250A     -0.517056   251A     -0.515329   252A     -0.515323
     253A     -0.509615   254A     -0.509599   255A     -0.497995
     256A     -0.496408   257A     -0.496381   258A     -0.493742
     259A     -0.493731   260A     -0.489434   261A     -0.481424
     262A     -0.477398   263A     -0.477395   264A     -0.473964
     265A     -0.469395   266A     -0.466479   267A     -0.466474
     268A     -0.458746   269A     -0.446607   270A     -0.446547
     271A     -0.440990   272A     -0.440750   273A     -0.440727
     274A     -0.434667   275A     -0.433890   276A     -0.407344
     277A     -0.407320   278A     -0.386349   279A     -0.386300
     280A     -0.385717   281A     -0.385716   282A     -0.383696
     283A     -0.354300   284A     -0.354283   285A     -0.350604
     286A     -0.337989   287A     -0.335500   288A     -0.335430
     289A     -0.332697   290A     -0.332691   291A     -0.306994
     292A     -0.301857   293A     -0.301794   294A     -0.300815
     295A     -0.286124   296A     -0.256474   297A     -0.253408
     298A     -0.253356   299A     -0.204209   300A     -0.204120

  @DF-RHF Final Energy: -3650.34121537930423

   => Energetics <=

    Nuclear Repulsion Energy =          15611.4211649754324753
    One-Electron Energy =              -36072.1715725594549440
    Two-Electron Energy =               16810.4091922047191474
    Total Energy =                      -3650.3412153793033212
 Dipole X            :         -0.0001724            0.0002304            0.0000581
 Dipole Y            :          0.0011733           -0.0013052           -0.0001319
 Dipole Z            :        171.8098409         -171.8059106            0.0039303
 Magnitude           :                                                    0.0039330

    SAPT Results
  --------------------------------------------------------------------------------------------------------
    Electrostatics               -366.99083110 [mEh]    -230.29022331 [kcal/mol]    -963.53429431 [kJ/mol]
      Elst10,r                   -366.99083110 [mEh]    -230.29022331 [kcal/mol]    -963.53429431 [kJ/mol]

    Exchange                      844.36681669 [mEh]     529.84817681 [kcal/mol]    2216.88477179 [kJ/mol]
      Exch10                      844.36681669 [mEh]     529.84817681 [kcal/mol]    2216.88477179 [kJ/mol]
      Exch10(S^2)                 778.01097456 [mEh]     488.20925724 [kcal/mol]    2042.66753228 [kJ/mol]

    Induction                    -119.06880915 [mEh]     -74.71680577 [kcal/mol]    -312.61511535 [kJ/mol]
      Ind20,r                    -584.53064959 [mEh]    -366.79852033 [kcal/mol]   -1534.68500907 [kJ/mol]
      Exch-Ind20,r                447.45320868 [mEh]     280.78112752 [kcal/mol]    1174.78823754 [kJ/mol]
      delta HF,r (2)               18.00863176 [mEh]      11.30058704 [kcal/mol]      47.28165618 [kJ/mol]

    Dispersion                    -87.08542321 [mEh]     -54.64692810 [kcal/mol]    -228.64274715 [kJ/mol]
      Disp20                     -139.46434461 [mEh]     -87.51519750 [kcal/mol]    -366.16358632 [kJ/mol]
      Exch-Disp20                  52.37892139 [mEh]      32.86826940 [kcal/mol]     137.52083917 [kJ/mol]
      Disp20 (SS)                 -69.73217230 [mEh]     -43.75759875 [kcal/mol]    -183.08179316 [kJ/mol]
      Disp20 (OS)                 -69.73217230 [mEh]     -43.75759875 [kcal/mol]    -183.08179316 [kJ/mol]
      Exch-Disp20 (SS)             25.35371864 [mEh]      15.90969865 [kcal/mol]      66.56617913 [kJ/mol]
      Exch-Disp20 (OS)             27.02520275 [mEh]      16.95857075 [kcal/mol]      70.95466004 [kJ/mol]

  Total HF                        358.30717644 [mEh]     224.84114774 [kcal/mol]     940.73536213 [kJ/mol]
  Total SAPT0                     271.22175322 [mEh]     170.19421964 [kcal/mol]     712.09261498 [kJ/mol]

  Special recipe for scaled SAPT0 (see Manual):
    Electrostatics sSAPT0        -366.99083110 [mEh]    -230.29022331 [kcal/mol]    -963.53429431 [kJ/mol]
    Exchange sSAPT0               844.36681669 [mEh]     529.84817681 [kcal/mol]    2216.88477179 [kJ/mol]
    Induction sSAPT0                5.46204647 [mEh]       3.42748591 [kcal/mol]      14.34060104 [kJ/mol]
    Dispersion sSAPT0             -72.50782768 [mEh]     -45.49934879 [kcal/mol]    -190.36927534 [kJ/mol]
  Total sSAPT0                    410.33020438 [mEh]     257.48609062 [kcal/mol]    1077.32180317 [kJ/mol]
  --------------------------------------------------------------------------------------------------------

*** Psi4 exiting successfully. Buy a developer a beer!
