                               Psi4 1.9 release

  ==> Input File <==

--------------------------------------------------------------------------
memory 64 GB # how much memory is available ! Depends on the nodes/cores !

molecule dimer {
# monomer A
-1 1    # Charge and multiplicity
B -1.977592e-04  2.742729e-04 -1.999966
F  1.123153e-16  1.430594e-17 -0.587181
F  1.147860e+00  6.757812e-01 -2.471107
F  1.191806e-02 -1.332011e+00 -2.470905
F -1.159666e+00  6.560735e-01 -2.470826
--
# monomer B
0 1     # Charge and multiplicity
C   -3.66844126402057      7.80375217008252      0.00190004133558
C   -4.84759871934653      7.13124183134024     -0.00046653359696
C   -4.89495929917518      5.69633040353158     -0.00103944469517
C   -3.65374067877320      4.98073034095895      0.00662099703436
C   -2.40942512149445      7.11398103667468      0.00209438359570
C   -2.42547734410473      5.68112195090346     -0.00491050527438
C   -1.19474401643570      7.78614419430947      0.00356656413763
C   0.03795902893699      7.09942164575698      0.00139585983271
C   0.03033258741920      5.66948955970466     -0.00408752508301
C   -1.20098450790502      4.96927034791531      0.00488220885047
C   1.27795782581485      7.77285944319479      0.00277170839332
C   2.48535808472416      7.08769688523756      0.00049722048857
C   2.48612868491717      5.65477081024076     -0.00644052849921
C   1.25408291964399      4.95607811366431      0.00518741308898
C   3.75171459140595      7.76391215098033      0.00062407186893
C   4.92356605618520      7.07878077698995     -0.00143240883900
C   4.95560727132542      5.64344746336949     -0.00159282164606
C   3.70680153420475      4.94121020833308      0.00349873852374
H   -3.65852113775815      8.89082741913536      0.00358502958574
H   -1.18921332975660      8.87412108735996      0.00753844057883
H   1.28429423888630      8.86083343548850      0.00693053253426
H   3.75354208679975      8.85103527897216      0.00214659618464
H   5.86995870320703      7.61379483465560     -0.00235777588134
H   -5.78823170750226      7.67630221293400     -0.00202638095293
C   -6.09197395869619      4.99326001364347     -0.00291168518608
C   -6.12866148031747      3.58258016879823     -0.00171050815740
C   -3.66457974004527      3.56418217974434     -0.00463560277484
C   -4.89429820469869      2.86108077590057      0.00453338221034
C   -2.43733499489796      2.84761165708481      0.00719617576166
C   -1.20922785759670      3.54788693497833     -0.00648285103018
C   1.24714157216223      3.53468075142962     -0.00729145743546
C   0.01517603956900      2.83311183930540      0.00439272578912
C   2.46764517244071      2.82128997725533      0.00449278391269
C   3.70254947457969      3.52466015442405     -0.00899517692985
C   6.14498038638375      4.92757236613191     -0.00282626685777
C   6.16658835886151      3.51658447594213     -0.00065971342101
C   4.92460995845939      2.80840792535402      0.00587903281610
H   7.08990550964105      5.46688776622306     -0.00658814770723
H   -7.03104175110130      5.54268795285765     -0.00714490013730
C   -7.33969804112295      2.85841153457957     -0.00333767559888
C   -7.36488195805880      1.47032337158330     -0.00157213747140
C   -4.90350460894690      1.44442681216000     -0.00628840166334
C   -6.13225715261081      0.73993935705394      0.00600164231964
C   -3.67687480051673      0.72669714267312      0.00433931473643
C   -2.44565658606518      1.42964113326212     -0.00597039546461
C   -1.22360068130162      0.71532450163492      0.00545886906656
C   0.00763786931376      1.41738314923765      0.00392452278437
C   1.23121980774686      0.70211669058719     -0.01490206287210
C   2.46082110053113      1.40329203612573      0.00460244601878
C   3.68443025419614      0.68719842821222      0.00377365974158
C   4.91870890153864      1.39173456118907     -0.00862816189375
C   7.36980207796101      2.77948220318441     -0.00242013321349
C   7.38016266612146      1.39121750785509     -0.00087345036788
C   6.13979953912259      0.67411862320065      0.00545489144369
H   -8.27919079934664      3.40711804112415     -0.00763522772059
H   8.31511347147953      3.31811809662368     -0.00663070901292
C   -8.59175593758115      0.72483255304480     -0.00123170985383
C   -8.59902460370342     -0.63263980622873      0.00089141472904
C   -6.13981313911873     -0.67413663715361     -0.00609792660607
C   -7.38018411213749     -1.39126618958160      0.00131813493501
C   -4.91868448025621     -1.39175501803000      0.00624257154343
C   -3.68443829568458     -0.68723731573599     -0.00478966852105
C   -2.46081704024768     -1.40334517882457      0.00575341766833
C   -1.23116201232071     -0.70217386488055     -0.00636696112346
C   -0.00756962538737     -1.41741884941102      0.00108956317991
C   1.22364771588843     -0.71527537726392      0.01109518512883
C   2.44567064933149     -1.42964328900682     -0.00065482763106
C   3.67686670284649     -0.72670743155550     -0.00479541202602
C   6.13224884641929     -0.73997883984993     -0.00632338623858
C   4.90351914550401     -1.44445752054090      0.00751768830159
C   8.59901484869081      0.63260386666793     -0.00101133422380
C   8.59174548810050     -0.72485086719319      0.00072504603735
C   7.36486276438985     -1.47033266560598      0.00049486934466
H   -9.52830597181814      1.27684744919284     -0.00270163681798
H   9.54141097460619      1.17457248844457     -0.00206336648518
C   -7.36983790976868     -2.77954514593389      0.00312634335708
C   -4.92459910905015     -2.80843725734101     -0.00460528907921
C   -6.16662249566744     -3.51665219282533      0.00169655107992
C   -3.70251035970491     -3.52468154912026      0.00571878010666
C   -2.46764698511392     -2.82132596280400     -0.00632585824990
C   -0.01513347410770     -2.83314164539971     -0.00604426974092
C   -1.24712184122656     -3.53473217556300      0.00551968366725
C   1.20924506964357     -3.54791467864352      0.00805871345849
C   2.43733602215464     -2.84764173817541     -0.00608104485234
C   4.89430234377080     -2.86112296828604     -0.00526030478103
C   3.66461525504104     -3.56421984553201      0.00761911515957
C   6.12863901474565     -3.58258405771778      0.00096495711699
C   7.33967266469532     -2.85841330737039      0.00248018319869
H   -9.54144911125902     -1.17456346666430      0.00226083090216
H   9.52826186807155     -1.27691907390448      0.00197485379837
H   -8.31516504384864     -3.31814985321231      0.00729857188773
H   8.27915514249207     -3.40714078989363      0.00681973918158
C   -6.14499418870218     -4.92764727278338      0.00302254913999
C   -3.70678334799751     -4.94126171411716     -0.00679841894792
C   -4.95559005800169     -5.64349397349412      0.00116871569699
C   -2.48612132622665     -5.65478557440947      0.00614125209662
C   -1.25405833548005     -4.95612205000132     -0.00503435388927
C   1.20101257386816     -4.96928038819302     -0.00385322963129
C   -0.03033667441341     -5.66952030313900      0.00398997003238
C   3.65375010132847     -4.98074377541453     -0.00309522988330
C   2.42549269587528     -5.68117463552727      0.00628170066869
C   6.09196561781097     -4.99325796338655      0.00325918379042
C   4.89497644461045     -5.69634842095790      0.00202298796027
H   -7.08989238804069     -5.46699984223871      0.00742531082125
H   7.03105520920009     -5.54265853633254      0.00683896355417
C   -4.92354532219813     -7.07882109967734      0.00061394679214
C   -2.48534208823777     -7.08772807792913     -0.00189594564379
C   -3.75168589177895     -7.76394715763627     -0.00170126671874
C   -0.03794895698805     -7.09946487446944     -0.00168022049625
C   -1.27795610040136     -7.77290438466689     -0.00366491325785
C   2.40944432072629     -7.11402201200282     -0.00081701968533
C   1.19474993715296     -7.78618536556242     -0.00296931056689
C   4.84762105249800     -7.13126211057943      0.00168979497423
C   3.66847160587561     -7.80378799294376     -0.00065863938960
H   -5.86994035041618     -7.61383059804164      0.00215798365757
H   5.78824962538815     -7.67633218931421      0.00281691445618
H   -3.75352693944918     -8.85107156923607     -0.00353718114765
H   -1.28430440589466     -8.86087539249706     -0.00809229711623
H   1.18922157469537     -8.87416062058945     -0.00706194725726
H   3.65854661482387     -8.89086063405326     -0.00231318081200

    units angstrom      # Angstroms are the default
    no_reorient         # Geometry fixed, default
    symmetry c1         # C1 symmetry, default
}

set {
    scf_type DF         # Density fitting, faster than exact integrals
    freeze_core True    # Freeze core electrons
    basis jun-cc-pVDZ   # Jun-cc-pVDZ basis set, recommended for sSAPT0 in https://doi.org/10.1063/1.4867135
}

energy('ssapt0')        # Compute sSAPT0 energy, includes also SAPT0
--------------------------------------------------------------------------

  //              Dimer HF             //
    Molecular point group: c1
  Charge       = -1
  Multiplicity = 1
  Basis Set: JUN-CC-PVDZ
    Blend: JUN-CC-PVDZ
  Basis Set: (JUN-CC-PVDZ AUX)
    Blend: JUN-CC-PVDZ-JKFIT
  @DF-RHF Final Energy: -4072.08971707728688
    Total Energy =                      -4072.0897170772877871
 Dipole X            :         -0.0021918           -0.0000548           -0.0022465
 Dipole Y            :         -0.0003507           -0.0002464           -0.0005970
 Dipole Z            :        -10.4966939           11.9018765            1.4051826
 Magnitude           :                                                    1.4051845
  //            Monomer A HF           //
    Molecular point group: c1
  Multiplicity = 1
  Basis Set: JUN-CC-PVDZ
    Blend: JUN-CC-PVDZ
  Basis Set: (JUN-CC-PVDZ AUX)
    Blend: JUN-CC-PVDZ-JKFIT
  @DF-RHF Final Energy:  -422.78092206258361
    Total Energy =                       -422.7809220625836133
  //            Monomer B HF           //
    Molecular point group: c1

    Geometry (in Angstrom), charge = 0, multiplicity = 1:

       Center              X                  Y                   Z               Mass
    ------------   -----------------  -----------------  -----------------  -----------------
      Gh(B)          -0.000201921932     0.000288800891    -1.862218093786    11.009305360000
      Gh(F)          -0.000004162732     0.000014527991    -0.449433093786    18.998403162730
      Gh(F)           1.147855837268     0.675795727991    -2.333359093786    18.998403162730
      Gh(F)           0.011913897268    -1.331996472009    -2.333157093786    18.998403162730
      Gh(F)          -1.159670162732     0.656088027991    -2.333078093786    18.998403162730
         C           -3.668445426752     7.803766698073     0.139647947549    12.000000000000
         C           -4.847602882078     7.131256359331     0.137281372617    12.000000000000
         C           -4.894963461907     5.696344931522     0.136708461519    12.000000000000
         C           -3.653744841505     4.980744868950     0.144368903248    12.000000000000
         C           -2.409429284226     7.113995564665     0.139842289809    12.000000000000
         C           -2.425481506836     5.681136478894     0.132837400939    12.000000000000
         C           -1.194748179167     7.786158722300     0.141314470351    12.000000000000
         C            0.037954866205     7.099436173748     0.139143766046    12.000000000000
         C            0.030328424687     5.669504087695     0.133660381131    12.000000000000
         C           -1.200988670637     4.969284875906     0.142630115064    12.000000000000
         C            1.277953663083     7.772873971185     0.140519614607    12.000000000000
         C            2.485353921992     7.087711413228     0.138245126702    12.000000000000
         C            2.486124522185     5.654785338231     0.131307377715    12.000000000000
         C            1.254078756912     4.956092641655     0.142935319303    12.000000000000
         C            3.751710428674     7.763926678971     0.138371978083    12.000000000000
         C            4.923561893453     7.078795304981     0.136315497375    12.000000000000
         C            4.955603108594     5.643461991360     0.136155084568    12.000000000000
         C            3.706797371473     4.941224736324     0.141246644737    12.000000000000
         H           -3.658525300490     8.890841947126     0.141332935799     1.007825032230
         H           -1.189217492488     8.874135615351     0.145286346793     1.007825032230
         H            1.284290076155     8.860847963479     0.144678438748     1.007825032230
         H            3.753537924068     8.851049806963     0.139894502398     1.007825032230
         H            5.869954540475     7.613809362646     0.135390130332     1.007825032230
         H           -5.788235870234     7.676316740925     0.135721525261     1.007825032230
         C           -6.091978121428     4.993274541634     0.134836221028    12.000000000000
         C           -6.128665643049     3.582594696789     0.136037398056    12.000000000000
         C           -3.664583902777     3.564196707735     0.133112303439    12.000000000000
         C           -4.894302367430     2.861095303891     0.142281288424    12.000000000000
         C           -2.437339157630     2.847626185075     0.144944081975    12.000000000000
         C           -1.209232020328     3.547901462969     0.131265055184    12.000000000000
         C            1.247137409430     3.534695279420     0.130456448778    12.000000000000
         C            0.015171876837     2.833126367296     0.142140632003    12.000000000000
         C            2.467641009709     2.821304505246     0.142240690126    12.000000000000
         C            3.702545311848     3.524674682415     0.128752729284    12.000000000000
         C            6.144976223652     4.927586894122     0.134921639356    12.000000000000
         C            6.166584196130     3.516599003933     0.137088192793    12.000000000000
         C            4.924605795728     2.808422453345     0.143626939030    12.000000000000
         H            7.089901346909     5.466902294214     0.131159758507     1.007825032230
         H           -7.031045913833     5.542702480848     0.130603006076     1.007825032230
         C           -7.339702203855     2.858426062570     0.134410230615    12.000000000000
         C           -7.364886120791     1.470337899574     0.136175768742    12.000000000000
         C           -4.903508771679     1.444441340151     0.131459504550    12.000000000000
         C           -6.132261315343     0.739953885044     0.143749548533    12.000000000000
         C           -3.676878963248     0.726711670664     0.142087220950    12.000000000000
         C           -2.445660748797     1.429655661253     0.131777510749    12.000000000000
         C           -1.223604844033     0.715339029625     0.143206775280    12.000000000000
         C            0.007633706582     1.417397677228     0.141672428998    12.000000000000
         C            1.231215645015     0.702131218578     0.122845843342    12.000000000000
         C            2.460816937799     1.403306564116     0.142350352233    12.000000000000
         C            3.684426091464     0.687212956203     0.141521565955    12.000000000000
         C            4.918704738807     1.391749089180     0.129119744320    12.000000000000
         C            7.369797915229     2.779496731175     0.135327773000    12.000000000000
         C            7.380158503390     1.391232035846     0.136874455846    12.000000000000
         C            6.139795376391     0.674133151191     0.143202797657    12.000000000000
         H           -8.279194962078     3.407132569115     0.130112678493     1.007825032230
         H            8.315109308748     3.318132624614     0.131117197201     1.007825032230
         C           -8.591760100313     0.724847081035     0.136516196360    12.000000000000
         C           -8.599028766435    -0.632625278238     0.138639320943    12.000000000000
         C           -6.139817301850    -0.674122109163     0.131649979608    12.000000000000
         C           -7.380188274869    -1.391251661591     0.139066041149    12.000000000000
         C           -4.918688642988    -1.391740490039     0.143990477757    12.000000000000
         C           -3.684442458416    -0.687222787745     0.132958237693    12.000000000000
         C           -2.460821202979    -1.403330650834     0.143501323882    12.000000000000
         C           -1.231166175052    -0.702159336890     0.131380945090    12.000000000000
         C           -0.007573788119    -1.417404321420     0.138837469394    12.000000000000
         C            1.223643553157    -0.715260849273     0.148843091343    12.000000000000
         C            2.445666486600    -1.429628761016     0.137093078583    12.000000000000
         C            3.676862540115    -0.726692903565     0.132952494188    12.000000000000
         C            6.132244683688    -0.739964311859     0.131424519975    12.000000000000
         C            4.903514982772    -1.444442992550     0.145265594515    12.000000000000
         C            8.599010685959     0.632618394658     0.136736571990    12.000000000000
         C            8.591741325369    -0.724836339203     0.138472952251    12.000000000000
         C            7.364858601658    -1.470318137615     0.138242775558    12.000000000000
         H           -9.528310134550     1.276861977183     0.135046269396     1.007825032230
         H            9.541406811874     1.174587016435     0.135684539729     1.007825032230
         C           -7.369842072500    -2.779530617943     0.140874249571    12.000000000000
         C           -4.924603271782    -2.808422729350     0.133142617135    12.000000000000
         C           -6.166626658399    -3.516637664835     0.139444457294    12.000000000000
         C           -3.702514522437    -3.524667021130     0.143466686320    12.000000000000
         C           -2.467651147846    -2.821311434813     0.131422047964    12.000000000000
         C           -0.015137636839    -2.833127117409     0.131703636473    12.000000000000
         C           -1.247126003958    -3.534717647572     0.143267589881    12.000000000000
         C            1.209240906912    -3.547900150653     0.145806619672    12.000000000000
         C            2.437331859423    -2.847627210185     0.131666861361    12.000000000000
         C            4.894298181039    -2.861108440295     0.132487601433    12.000000000000
         C            3.664611092309    -3.564205317541     0.145367021373    12.000000000000
         C            6.128634852014    -3.582569529727     0.138712863331    12.000000000000
         C            7.339668501964    -2.858398779380     0.140228089412    12.000000000000
         H           -9.541453273991    -1.174548938674     0.140008737116     1.007825032230
         H            9.528257705340    -1.276904545914     0.139722760012     1.007825032230
         H           -8.315169206580    -3.318135325222     0.145046478101     1.007825032230
         H            8.279150979760    -3.407126261903     0.144567645395     1.007825032230
         C           -6.144998351434    -4.927632744793     0.140770455354    12.000000000000
         C           -3.706787510729    -4.941247186127     0.130949487266    12.000000000000
         C           -4.955594220733    -5.643479445504     0.138916621911    12.000000000000
         C           -2.486125488958    -5.654771046419     0.143889158310    12.000000000000
         C           -1.254062498212    -4.956107522011     0.132713552324    12.000000000000
         C            1.201008411136    -4.969265860202     0.133894676582    12.000000000000
         C           -0.030340837145    -5.669505775148     0.141737876246    12.000000000000
         C            3.653745938597    -4.980729247424     0.134652676330    12.000000000000
         C            2.425488533144    -5.681160107537     0.144029606882    12.000000000000
         C            6.091961455079    -4.993243435396     0.141007090004    12.000000000000
         C            4.894972281879    -5.696333892967     0.139770894174    12.000000000000
         H           -7.089896550772    -5.466985314248     0.145173217035     1.007825032230
         H            7.031051046468    -5.542644008342     0.144586869768     1.007825032230
         C           -4.923549484930    -7.078806571687     0.138361853006    12.000000000000
         C           -2.485346250970    -7.087713549939     0.135851960570    12.000000000000
         C           -3.751690054511    -7.763932629646     0.136046639495    12.000000000000
         C           -0.037953119720    -7.099450346479     0.136067685718    12.000000000000
         C           -1.277960263133    -7.772889856676     0.134082992956    12.000000000000
         C            2.409440157995    -7.114007484012     0.136930886528    12.000000000000
         C            1.194745774421    -7.786170837572     0.134778595647    12.000000000000
         C            4.847616889766    -7.131247582589     0.139437701188    12.000000000000
         C            3.668467443144    -7.803773464953     0.137089266824    12.000000000000
         H           -5.869944513148    -7.613816070051     0.139905889871     1.007825032230
         H            5.788245462656    -7.676317661324     0.140564820670     1.007825032230
         H           -3.753531102181    -8.851057041246     0.134210725066     1.007825032230
         H           -1.284308568626    -8.860860864507     0.129655609098     1.007825032230
         H            1.189217411964    -8.874146092599     0.130685958956     1.007825032230
         H            3.658542452092    -8.890846106063     0.135434725402     1.007825032230

  Charge       = 0
  Multiplicity = 1
  Basis Set: JUN-CC-PVDZ
    Blend: JUN-CC-PVDZ
  Basis Set: (JUN-CC-PVDZ AUX)
    Blend: JUN-CC-PVDZ-JKFIT

    Orbital Energies [Eh]
    ---------------------

    Doubly Occupied:

       1A    -11.264000     2A    -11.263651     3A    -11.263650
       4A    -11.263251     5A    -11.263248     6A    -11.263206
       7A    -11.263067     8A    -11.263046     9A    -11.263042
      10A    -11.262820    11A    -11.262692    12A    -11.262688
      13A    -11.262205    14A    -11.262202    15A    -11.262163
      16A    -11.262161    17A    -11.262065    18A    -11.262062
      19A    -11.262024    20A    -11.261983    21A    -11.261981
      22A    -11.261864    23A    -11.261859    24A    -11.261727
      25A    -11.261713    26A    -11.261698    27A    -11.261692
      28A    -11.261648    29A    -11.261640    30A    -11.261543
      31A    -11.261521    32A    -11.261518    33A    -11.261492
      34A    -11.261490    35A    -11.261478    36A    -11.261470
      37A    -11.261311    38A    -11.261304    39A    -11.261298
      40A    -11.261292    41A    -11.261287    42A    -11.261283
      43A    -11.261259    44A    -11.261241    45A    -11.261237
      46A    -11.261212    47A    -11.261210    48A    -11.261203
      49A    -11.261005    50A    -11.260972    51A    -11.260969
      52A    -11.260892    53A    -11.260890    54A    -11.260830
      55A    -11.259884    56A    -11.259870    57A    -11.259868
      58A    -11.259838    59A    -11.259837    60A    -11.259820
      61A    -11.259254    62A    -11.259228    63A    -11.259225
      64A    -11.259172    65A    -11.259169    66A    -11.259140
      67A    -11.258886    68A    -11.258867    69A    -11.258866
      70A    -11.258837    71A    -11.258835    72A    -11.258823
      73A    -11.254515    74A    -11.254512    75A    -11.254510
      76A    -11.254509    77A    -11.254507    78A    -11.254506
      79A    -11.253632    80A    -11.253631    81A    -11.253629
      82A    -11.253625    83A    -11.253624    84A    -11.253621
      85A    -11.253548    86A    -11.253547    87A    -11.253544
      88A    -11.253541    89A    -11.253539    90A    -11.253536
      91A    -11.253042    92A    -11.253040    93A    -11.253037
      94A    -11.253037    95A    -11.253035    96A    -11.253034
      97A     -1.253798    98A     -1.238926    99A     -1.238924
     100A     -1.220416   101A     -1.220411   102A     -1.215268
     103A     -1.201007   104A     -1.195566   105A     -1.188033
     106A     -1.188031   107A     -1.173732   108A     -1.173729
     109A     -1.155552   110A     -1.155548   111A     -1.152549
     112A     -1.144693   113A     -1.144690   114A     -1.128511
     115A     -1.114640   116A     -1.113123   117A     -1.112358
     118A     -1.112343   119A     -1.111594   120A     -1.088366
     121A     -1.088352   122A     -1.076927   123A     -1.076925
     124A     -1.067545   125A     -1.067515   126A     -1.064840
     127A     -1.046747   128A     -1.046740   129A     -1.040426
     130A     -1.038705   131A     -1.038704   132A     -1.025152
     133A     -1.021229   134A     -1.021178   135A     -1.007131
     136A     -1.006763   137A     -1.003746   138A     -1.000409
     139A     -1.000361   140A     -0.991048   141A     -0.970902
     142A     -0.970854   143A     -0.955840   144A     -0.955785
     145A     -0.905524   146A     -0.905488   147A     -0.905484
     148A     -0.905445   149A     -0.904190   150A     -0.892258
     151A     -0.892198   152A     -0.890271   153A     -0.890214
     154A     -0.889394   155A     -0.872174   156A     -0.869037
     157A     -0.851496   158A     -0.847769   159A     -0.847747
     160A     -0.845510   161A     -0.842957   162A     -0.834515
     163A     -0.834502   164A     -0.828073   165A     -0.828069
     166A     -0.784493   167A     -0.784482   168A     -0.783575
     169A     -0.783549   170A     -0.782212   171A     -0.782192
     172A     -0.781939   173A     -0.766946   174A     -0.760697
     175A     -0.750483   176A     -0.733447   177A     -0.727010
     178A     -0.726997   179A     -0.725022   180A     -0.724495
     181A     -0.724477   182A     -0.718376   183A     -0.713652
     184A     -0.713645   185A     -0.699522   186A     -0.699510
     187A     -0.686002   188A     -0.685920   189A     -0.685917
     190A     -0.682133   191A     -0.682122   192A     -0.678691
     193A     -0.653565   194A     -0.650792   195A     -0.650762
     196A     -0.649711   197A     -0.649695   198A     -0.649526
     199A     -0.640786   200A     -0.640759   201A     -0.640049
     202A     -0.639131   203A     -0.635938   204A     -0.635911
     205A     -0.629089   206A     -0.617753   207A     -0.615268
     208A     -0.615248   209A     -0.608745   210A     -0.608739
     211A     -0.599103   212A     -0.599067   213A     -0.598670
     214A     -0.598540   215A     -0.598518   216A     -0.597935
     217A     -0.595028   218A     -0.595015   219A     -0.594665
     220A     -0.594134   221A     -0.591869   222A     -0.591866
     223A     -0.587284   224A     -0.577770   225A     -0.577760
     226A     -0.575627   227A     -0.575623   228A     -0.573339
     229A     -0.569603   230A     -0.567988   231A     -0.567964
     232A     -0.566675   233A     -0.566664   234A     -0.560885
     235A     -0.558637   236A     -0.558619   237A     -0.558397
     238A     -0.554310   239A     -0.550514   240A     -0.547448
     241A     -0.544225   242A     -0.534994   243A     -0.534957
     244A     -0.533467   245A     -0.533446   246A     -0.528024
     247A     -0.528009   248A     -0.527696   249A     -0.517047
     250A     -0.517013   251A     -0.515318   252A     -0.515312
     253A     -0.509597   254A     -0.509581   255A     -0.497979
     256A     -0.496384   257A     -0.496357   258A     -0.493742
     259A     -0.493732   260A     -0.489425   261A     -0.481410
     262A     -0.477387   263A     -0.477384   264A     -0.473946
     265A     -0.469376   266A     -0.466452   267A     -0.466447
     268A     -0.458739   269A     -0.446559   270A     -0.446499
     271A     -0.440980   272A     -0.440739   273A     -0.440712
     274A     -0.434655   275A     -0.433880   276A     -0.407329
     277A     -0.407306   278A     -0.386339   279A     -0.386290
     280A     -0.385707   281A     -0.385705   282A     -0.383688
     283A     -0.354285   284A     -0.354269   285A     -0.350599
     286A     -0.338001   287A     -0.335492   288A     -0.335422
     289A     -0.332685   290A     -0.332678   291A     -0.306980
     292A     -0.301856   293A     -0.301795   294A     -0.300815
     295A     -0.286121   296A     -0.256460   297A     -0.253393
     298A     -0.253339   299A     -0.204213   300A     -0.204124

  @DF-RHF Final Energy: -3650.34191998586039

   => Energetics <=

    Nuclear Repulsion Energy =          15611.4211649754324753
    One-Electron Energy =              -36072.1844423791117151
    Two-Electron Energy =               16810.4213574178174895
    Total Energy =                      -3650.3419199858617503
 Dipole X            :          0.0004778            0.0002304            0.0007083
 Dipole Y            :          0.0014300           -0.0013052            0.0001248
 Dipole Z            :       -156.1915723          156.1868822           -0.0046902
 Magnitude           :                                                    0.0047450

    SAPT Results
  --------------------------------------------------------------------------------------------------------
    Electrostatics               -820.48215346 [mEh]    -514.86032436 [kcal/mol]   -2154.17559713 [kJ/mol]
      Elst10,r                   -820.48215346 [mEh]    -514.86032436 [kcal/mol]   -2154.17559713 [kJ/mol]

    Exchange                     1809.16804679 [mEh]    1135.27008902 [kcal/mol]    4749.97005244 [kJ/mol]
      Exch10                     1809.16804679 [mEh]    1135.27008902 [kcal/mol]    4749.97005244 [kJ/mol]
      Exch10(S^2)                1574.89757348 [mEh]     988.26314759 [kcal/mol]    4134.89300951 [kJ/mol]

    Induction                      44.43907783 [mEh]      27.88594234 [kcal/mol]     116.67478277 [kJ/mol]
      Ind20,r                   -1095.75109162 [mEh]    -687.59419090 [kcal/mol]   -2876.89409471 [kJ/mol]
      Exch-Ind20,r                605.20934112 [mEh]     379.77459517 [kcal/mol]    1588.97690619 [kJ/mol]
      delta HF,r (2)              534.98082834 [mEh]     335.70553807 [kcal/mol]    1404.59197129 [kJ/mol]

    Dispersion                   -128.04911631 [mEh]     -80.35203359 [kcal/mol]    -336.19290855 [kJ/mol]
      Disp20                     -220.04791874 [mEh]    -138.08215370 [kcal/mol]    -577.73573106 [kJ/mol]
      Exch-Disp20                  91.99880243 [mEh]      57.73012010 [kcal/mol]     241.54282251 [kJ/mol]
      Disp20 (SS)                -110.02395937 [mEh]     -69.04107685 [kcal/mol]    -288.86786553 [kJ/mol]
      Disp20 (OS)                -110.02395937 [mEh]     -69.04107685 [kcal/mol]    -288.86786553 [kJ/mol]
      Exch-Disp20 (SS)             40.34781644 [mEh]      25.31863706 [kcal/mol]     105.93317747 [kJ/mol]
      Exch-Disp20 (OS)             51.65098599 [mEh]      32.41148304 [kcal/mol]     135.60964503 [kJ/mol]

  Total HF                       1033.12497116 [mEh]     648.29570700 [kcal/mol]    2712.46923808 [kJ/mol]
  Total SAPT0                     905.07585485 [mEh]     567.94367340 [kcal/mol]    2376.27632952 [kJ/mol]

  Special recipe for scaled SAPT0 (see Manual):
    Electrostatics sSAPT0        -820.48215346 [mEh]    -514.86032436 [kcal/mol]   -2154.17559713 [kJ/mol]
    Exchange sSAPT0              1809.16804679 [mEh]    1135.27008902 [kcal/mol]    4749.97005244 [kJ/mol]
    Induction sSAPT0              356.68607863 [mEh]     223.82389350 [kcal/mol]     936.47917041 [kJ/mol]
    Dispersion sSAPT0             -80.58396965 [mEh]     -50.56720439 [kcal/mol]    -211.57318317 [kJ/mol]
  Total sSAPT0                   1264.78800230 [mEh]     793.66645376 [kcal/mol]    3320.70044255 [kJ/mol]
  --------------------------------------------------------------------------------------------------------

*** Psi4 exiting successfully. Buy a developer a beer!
