                               Psi4 1.9 release

  ==> Input File <==

--------------------------------------------------------------------------
memory 47 GB # how much memory is available ! Depends on the nodes/cores !

molecule dimer {
# monomer A
+1 1    # Charge and multiplicity
C  0.680067 -0.008042 -5.615929
C -0.680504 -0.006014 -5.615545
N -1.085635 -0.005016 -4.297221
C  0.000108 -0.001740 -3.515820
C -2.477365  0.044390 -3.829242
N  1.085222 -0.005016 -4.297221
H  1.385146 -0.015870 -6.433368
H -1.385302 -0.006204 -6.433214
H -0.000009  0.000007 -2.434731
C  2.478117 -0.021908 -3.832123
H  2.490592  0.005437 -2.741870
H  2.967028 -0.935354 -4.179299
H  3.001428  0.853575 -4.223595
H -2.857359  1.066461 -3.909201
H -3.082679 -0.625694 -4.442306
H -2.518128 -0.282594 -2.789294
--
# monomer B
0 1     # Charge and multiplicity
C   -3.66844126402057      7.80375217008252      0.00190004133558
C   -4.84759871934653      7.13124183134024     -0.00046653359696
C   -4.89495929917518      5.69633040353158     -0.00103944469517
C   -3.65374067877320      4.98073034095895      0.00662099703436
C   -2.40942512149445      7.11398103667468      0.00209438359570
C   -2.42547734410473      5.68112195090346     -0.00491050527438
C   -1.19474401643570      7.78614419430947      0.00356656413763
C   0.03795902893699      7.09942164575698      0.00139585983271
C   0.03033258741920      5.66948955970466     -0.00408752508301
C   -1.20098450790502      4.96927034791531      0.00488220885047
C   1.27795782581485      7.77285944319479      0.00277170839332
C   2.48535808472416      7.08769688523756      0.00049722048857
C   2.48612868491717      5.65477081024076     -0.00644052849921
C   1.25408291964399      4.95607811366431      0.00518741308898
C   3.75171459140595      7.76391215098033      0.00062407186893
C   4.92356605618520      7.07878077698995     -0.00143240883900
C   4.95560727132542      5.64344746336949     -0.00159282164606
C   3.70680153420475      4.94121020833308      0.00349873852374
H   -3.65852113775815      8.89082741913536      0.00358502958574
H   -1.18921332975660      8.87412108735996      0.00753844057883
H   1.28429423888630      8.86083343548850      0.00693053253426
H   3.75354208679975      8.85103527897216      0.00214659618464
H   5.86995870320703      7.61379483465560     -0.00235777588134
H   -5.78823170750226      7.67630221293400     -0.00202638095293
C   -6.09197395869619      4.99326001364347     -0.00291168518608
C   -6.12866148031747      3.58258016879823     -0.00171050815740
C   -3.66457974004527      3.56418217974434     -0.00463560277484
C   -4.89429820469869      2.86108077590057      0.00453338221034
C   -2.43733499489796      2.84761165708481      0.00719617576166
C   -1.20922785759670      3.54788693497833     -0.00648285103018
C   1.24714157216223      3.53468075142962     -0.00729145743546
C   0.01517603956900      2.83311183930540      0.00439272578912
C   2.46764517244071      2.82128997725533      0.00449278391269
C   3.70254947457969      3.52466015442405     -0.00899517692985
C   6.14498038638375      4.92757236613191     -0.00282626685777
C   6.16658835886151      3.51658447594213     -0.00065971342101
C   4.92460995845939      2.80840792535402      0.00587903281610
H   7.08990550964105      5.46688776622306     -0.00658814770723
H   -7.03104175110130      5.54268795285765     -0.00714490013730
C   -7.33969804112295      2.85841153457957     -0.00333767559888
C   -7.36488195805880      1.47032337158330     -0.00157213747140
C   -4.90350460894690      1.44442681216000     -0.00628840166334
C   -6.13225715261081      0.73993935705394      0.00600164231964
C   -3.67687480051673      0.72669714267312      0.00433931473643
C   -2.44565658606518      1.42964113326212     -0.00597039546461
C   -1.22360068130162      0.71532450163492      0.00545886906656
C   0.00763786931376      1.41738314923765      0.00392452278437
C   1.23121980774686      0.70211669058719     -0.01490206287210
C   2.46082110053113      1.40329203612573      0.00460244601878
C   3.68443025419614      0.68719842821222      0.00377365974158
C   4.91870890153864      1.39173456118907     -0.00862816189375
C   7.36980207796101      2.77948220318441     -0.00242013321349
C   7.38016266612146      1.39121750785509     -0.00087345036788
C   6.13979953912259      0.67411862320065      0.00545489144369
H   -8.27919079934664      3.40711804112415     -0.00763522772059
H   8.31511347147953      3.31811809662368     -0.00663070901292
C   -8.59175593758115      0.72483255304480     -0.00123170985383
C   -8.59902460370342     -0.63263980622873      0.00089141472904
C   -6.13981313911873     -0.67413663715361     -0.00609792660607
C   -7.38018411213749     -1.39126618958160      0.00131813493501
C   -4.91868448025621     -1.39175501803000      0.00624257154343
C   -3.68443829568458     -0.68723731573599     -0.00478966852105
C   -2.46081704024768     -1.40334517882457      0.00575341766833
C   -1.23116201232071     -0.70217386488055     -0.00636696112346
C   -0.00756962538737     -1.41741884941102      0.00108956317991
C   1.22364771588843     -0.71527537726392      0.01109518512883
C   2.44567064933149     -1.42964328900682     -0.00065482763106
C   3.67686670284649     -0.72670743155550     -0.00479541202602
C   6.13224884641929     -0.73997883984993     -0.00632338623858
C   4.90351914550401     -1.44445752054090      0.00751768830159
C   8.59901484869081      0.63260386666793     -0.00101133422380
C   8.59174548810050     -0.72485086719319      0.00072504603735
C   7.36486276438985     -1.47033266560598      0.00049486934466
H   -9.52830597181814      1.27684744919284     -0.00270163681798
H   9.54141097460619      1.17457248844457     -0.00206336648518
C   -7.36983790976868     -2.77954514593389      0.00312634335708
C   -4.92459910905015     -2.80843725734101     -0.00460528907921
C   -6.16662249566744     -3.51665219282533      0.00169655107992
C   -3.70251035970491     -3.52468154912026      0.00571878010666
C   -2.46764698511392     -2.82132596280400     -0.00632585824990
C   -0.01513347410770     -2.83314164539971     -0.00604426974092
C   -1.24712184122656     -3.53473217556300      0.00551968366725
C   1.20924506964357     -3.54791467864352      0.00805871345849
C   2.43733602215464     -2.84764173817541     -0.00608104485234
C   4.89430234377080     -2.86112296828604     -0.00526030478103
C   3.66461525504104     -3.56421984553201      0.00761911515957
C   6.12863901474565     -3.58258405771778      0.00096495711699
C   7.33967266469532     -2.85841330737039      0.00248018319869
H   -9.54144911125902     -1.17456346666430      0.00226083090216
H   9.52826186807155     -1.27691907390448      0.00197485379837
H   -8.31516504384864     -3.31814985321231      0.00729857188773
H   8.27915514249207     -3.40714078989363      0.00681973918158
C   -6.14499418870218     -4.92764727278338      0.00302254913999
C   -3.70678334799751     -4.94126171411716     -0.00679841894792
C   -4.95559005800169     -5.64349397349412      0.00116871569699
C   -2.48612132622665     -5.65478557440947      0.00614125209662
C   -1.25405833548005     -4.95612205000132     -0.00503435388927
C   1.20101257386816     -4.96928038819302     -0.00385322963129
C   -0.03033667441341     -5.66952030313900      0.00398997003238
C   3.65375010132847     -4.98074377541453     -0.00309522988330
C   2.42549269587528     -5.68117463552727      0.00628170066869
C   6.09196561781097     -4.99325796338655      0.00325918379042
C   4.89497644461045     -5.69634842095790      0.00202298796027
H   -7.08989238804069     -5.46699984223871      0.00742531082125
H   7.03105520920009     -5.54265853633254      0.00683896355417
C   -4.92354532219813     -7.07882109967734      0.00061394679214
C   -2.48534208823777     -7.08772807792913     -0.00189594564379
C   -3.75168589177895     -7.76394715763627     -0.00170126671874
C   -0.03794895698805     -7.09946487446944     -0.00168022049625
C   -1.27795610040136     -7.77290438466689     -0.00366491325785
C   2.40944432072629     -7.11402201200282     -0.00081701968533
C   1.19474993715296     -7.78618536556242     -0.00296931056689
C   4.84762105249800     -7.13126211057943      0.00168979497423
C   3.66847160587561     -7.80378799294376     -0.00065863938960
H   -5.86994035041618     -7.61383059804164      0.00215798365757
H   5.78824962538815     -7.67633218931421      0.00281691445618
H   -3.75352693944918     -8.85107156923607     -0.00353718114765
H   -1.28430440589466     -8.86087539249706     -0.00809229711623
H   1.18922157469537     -8.87416062058945     -0.00706194725726
H   3.65854661482387     -8.89086063405326     -0.00231318081200

    units angstrom      # Angstroms are the default
    no_reorient         # Geometry fixed, default
    symmetry c1         # C1 symmetry, default
}

set {
    scf_type DF         # Density fitting, faster than exact integrals
    freeze_core True    # Freeze core electrons
    basis jun-cc-pVDZ   # Jun-cc-pVDZ basis set, recommended for sSAPT0 in https://doi.org/10.1063/1.4867135
}

energy('ssapt0')        # Compute sSAPT0 energy, includes also SAPT0
--------------------------------------------------------------------------

  //              Dimer HF             //
    Molecular point group: c1
  Charge       = 1
  Multiplicity = 1
  Basis Set: JUN-CC-PVDZ
    Blend: JUN-CC-PVDZ
  Basis Set: (JUN-CC-PVDZ AUX)
    Blend: JUN-CC-PVDZ-JKFIT
  @DF-RHF Final Energy: -3953.66123704450956
    Total Energy =                      -3953.6612370445109264
 Dipole X            :         -0.0022402            0.0004804           -0.0017597
 Dipole Y            :         -0.0516471            0.0561130            0.0044659
 Dipole Z            :         19.3794964          -24.8359104           -5.4564139
 Magnitude           :                                                    5.4564160
  //            Monomer A HF           //
    Molecular point group: c1
  Multiplicity = 1
  Basis Set: JUN-CC-PVDZ
    Blend: JUN-CC-PVDZ
  Basis Set: (JUN-CC-PVDZ AUX)
    Blend: JUN-CC-PVDZ-JKFIT
  @DF-RHF Final Energy:  -303.29823249536247
    Total Energy =                       -303.2982324953624698
  //            Monomer B HF           //
    Molecular point group: c1

    Geometry (in Angstrom), charge = 0, multiplicity = 1:

       Center              X                  Y                   Z               Mass
    ------------   -----------------  -----------------  -----------------  -----------------
      Gh(C)           0.680062820275    -0.008027535675    -5.280468765214    12.000000000000
      Gh(C)          -0.680508179725    -0.005999535675    -5.280084765214    12.000000000000
      Gh(N)          -1.085639179725    -0.005001535675    -3.961760765214    14.003074004430
      Gh(C)           0.000103820275    -0.001725535675    -3.180359765214    12.000000000000
      Gh(C)          -2.477369179725     0.044404464325    -3.493781765214    12.000000000000
      Gh(N)           1.085217820275    -0.005001535675    -3.961760765214    14.003074004430
      Gh(H)           1.385141820275    -0.015855535675    -6.097907765214     1.007825032230
      Gh(H)          -1.385306179725    -0.006189535675    -6.097753765214     1.007825032230
      Gh(H)          -0.000013179725     0.000021464325    -2.099270765214     1.007825032230
      Gh(C)           2.478112820275    -0.021893535675    -3.496662765214    12.000000000000
      Gh(H)           2.490587820275     0.005451464325    -2.406409765214     1.007825032230
      Gh(H)           2.967023820275    -0.935339535675    -3.843838765214     1.007825032230
      Gh(H)           3.001423820275     0.853589464325    -3.888134765214     1.007825032230
      Gh(H)          -2.857363179725     1.066475464325    -3.573740765214     1.007825032230
      Gh(H)          -3.082683179725    -0.625679535675    -4.106845765214     1.007825032230
      Gh(H)          -2.518132179725    -0.282579535675    -2.453833765214     1.007825032230
         C           -3.668445443746     7.803766634408     0.337360276121    12.000000000000
         C           -4.847602899072     7.131256295665     0.334993701189    12.000000000000
         C           -4.894963478901     5.696344867857     0.334420790091    12.000000000000
         C           -3.653744858499     4.980744805284     0.342081231820    12.000000000000
         C           -2.409429301220     7.113995501000     0.337554618381    12.000000000000
         C           -2.425481523830     5.681136415228     0.330549729511    12.000000000000
         C           -1.194748196161     7.786158658634     0.339026798923    12.000000000000
         C            0.037954849212     7.099436110082     0.336856094618    12.000000000000
         C            0.030328407694     5.669504024030     0.331372709703    12.000000000000
         C           -1.200988687630     4.969284812240     0.340342443636    12.000000000000
         C            1.277953646089     7.772873907520     0.338231943179    12.000000000000
         C            2.485353904999     7.087711349563     0.335957455274    12.000000000000
         C            2.486124505192     5.654785274566     0.329019706287    12.000000000000
         C            1.254078739919     4.956092577989     0.340647647875    12.000000000000
         C            3.751710411681     7.763926615305     0.336084306655    12.000000000000
         C            4.923561876460     7.078795241315     0.334027825947    12.000000000000
         C            4.955603091600     5.643461927694     0.333867413140    12.000000000000
         C            3.706797354479     4.941224672658     0.338958973309    12.000000000000
         H           -3.658525317484     8.890841883460     0.339045264371     1.007825032230
         H           -1.189217509482     8.874135551685     0.342998675365     1.007825032230
         H            1.284290059161     8.860847899813     0.342390767320     1.007825032230
         H            3.753537907074     8.851049743297     0.337606830970     1.007825032230
         H            5.869954523482     7.613809298981     0.333102458904     1.007825032230
         H           -5.788235887228     7.676316677259     0.333433853833     1.007825032230
         C           -6.091978138422     4.993274477968     0.332548549600    12.000000000000
         C           -6.128665660043     3.582594633123     0.333749726628    12.000000000000
         C           -3.664583919771     3.564196644069     0.330824632011    12.000000000000
         C           -4.894302384424     2.861095240226     0.339993616996    12.000000000000
         C           -2.437339174623     2.847626121410     0.342656410547    12.000000000000
         C           -1.209232037322     3.547901399303     0.328977383756    12.000000000000
         C            1.247137392437     3.534695215755     0.328168777350    12.000000000000
         C            0.015171859844     2.833126303630     0.339852960575    12.000000000000
         C            2.467640992715     2.821304441580     0.339953018698    12.000000000000
         C            3.702545294854     3.524674618749     0.326465057856    12.000000000000
         C            6.144976206658     4.927586830457     0.332633967928    12.000000000000
         C            6.166584179136     3.516598940267     0.334800521365    12.000000000000
         C            4.924605778734     2.808422389679     0.341339267602    12.000000000000
         H            7.089901329916     5.466902230548     0.328872087078     1.007825032230
         H           -7.031045930827     5.542702417183     0.328315334648     1.007825032230
         C           -7.339702220848     2.858425998905     0.332122559187    12.000000000000
         C           -7.364886137784     1.470337835908     0.333888097314    12.000000000000
         C           -4.903508788672     1.444441276485     0.329171833122    12.000000000000
         C           -6.132261332336     0.739953821379     0.341461877105    12.000000000000
         C           -3.676878980242     0.726711606998     0.339799549522    12.000000000000
         C           -2.445660765791     1.429655597587     0.329489839321    12.000000000000
         C           -1.223604861027     0.715338965960     0.340919103852    12.000000000000
         C            0.007633689588     1.417397613563     0.339384757570    12.000000000000
         C            1.231215628021     0.702131154912     0.320558171914    12.000000000000
         C            2.460816920806     1.403306500451     0.340062680805    12.000000000000
         C            3.684426074471     0.687212892537     0.339233894527    12.000000000000
         C            4.918704721813     1.391749025514     0.326832072892    12.000000000000
         C            7.369797898236     2.779496667509     0.333040101572    12.000000000000
         C            7.380158486396     1.391231972180     0.334586784418    12.000000000000
         C            6.139795359397     0.674133087526     0.340915126229    12.000000000000
         H           -8.279194979072     3.407132505449     0.327825007065     1.007825032230
         H            8.315109291754     3.318132560949     0.328829525773     1.007825032230
         C           -8.591760117307     0.724847017370     0.334228524932    12.000000000000
         C           -8.599028783429    -0.632625341904     0.336351649515    12.000000000000
         C           -6.139817318844    -0.674122172829     0.329362308180    12.000000000000
         C           -7.380188291863    -1.391251725257     0.336778369721    12.000000000000
         C           -4.918688659982    -1.391740553705     0.341702806329    12.000000000000
         C           -3.684442475410    -0.687222851411     0.330670566265    12.000000000000
         C           -2.460821219973    -1.403330714500     0.341213652454    12.000000000000
         C           -1.231166192046    -0.702159400556     0.329093273662    12.000000000000
         C           -0.007573805113    -1.417404385086     0.336549797966    12.000000000000
         C            1.223643536163    -0.715260912939     0.346555419915    12.000000000000
         C            2.445666469606    -1.429628824682     0.334805407155    12.000000000000
         C            3.676862523121    -0.726692967231     0.330664822760    12.000000000000
         C            6.132244666694    -0.739964375525     0.329136848547    12.000000000000
         C            4.903514965779    -1.444443056216     0.342977923087    12.000000000000
         C            8.599010668965     0.632618330993     0.334448900562    12.000000000000
         C            8.591741308375    -0.724836402868     0.336185280823    12.000000000000
         C            7.364858584664    -1.470318201281     0.335955104130    12.000000000000
         H           -9.528310151544     1.276861913518     0.332758597968     1.007825032230
         H            9.541406794881     1.174586952770     0.333396868301     1.007825032230
         C           -7.369842089494    -2.779530681609     0.338586578143    12.000000000000
         C           -4.924603288776    -2.808422793016     0.330854945707    12.000000000000
         C           -6.166626675393    -3.516637728500     0.337156785866    12.000000000000
         C           -3.702514539430    -3.524667084795     0.341179014892    12.000000000000
         C           -2.467651164839    -2.821311498479     0.329134376536    12.000000000000
         C           -0.015137653833    -2.833127181075     0.329415965045    12.000000000000
         C           -1.247126020952    -3.534717711238     0.340979918453    12.000000000000
         C            1.209240889918    -3.547900214319     0.343518948244    12.000000000000
         C            2.437331842429    -2.847627273850     0.329379189933    12.000000000000
         C            4.894298164045    -2.861108503961     0.330199930005    12.000000000000
         C            3.664611075316    -3.564205381207     0.343079349945    12.000000000000
         C            6.128634835020    -3.582569593393     0.336425191903    12.000000000000
         C            7.339668484970    -2.858398843045     0.337940417984    12.000000000000
         H           -9.541453290984    -1.174549002339     0.337721065688     1.007825032230
         H            9.528257688346    -1.276904609579     0.337435088584     1.007825032230
         H           -8.315169223574    -3.318135388887     0.342758806673     1.007825032230
         H            8.279150962767    -3.407126325569     0.342279973967     1.007825032230
         C           -6.144998368428    -4.927632808458     0.338482783926    12.000000000000
         C           -3.706787527723    -4.941247249792     0.328661815838    12.000000000000
         C           -4.955594237727    -5.643479509169     0.336628950483    12.000000000000
         C           -2.486125505952    -5.654771110084     0.341601486882    12.000000000000
         C           -1.254062515205    -4.956107585676     0.330425880896    12.000000000000
         C            1.201008394143    -4.969265923868     0.331607005154    12.000000000000
         C           -0.030340854139    -5.669505838814     0.339450204818    12.000000000000
         C            3.653745921603    -4.980729311090     0.332365004902    12.000000000000
         C            2.425488516150    -5.681160171202     0.341741935454    12.000000000000
         C            6.091961438086    -4.993243499062     0.338719418576    12.000000000000
         C            4.894972264885    -5.696333956633     0.337483222746    12.000000000000
         H           -7.089896567766    -5.466985377914     0.342885545607     1.007825032230
         H            7.031051029475    -5.542644072008     0.342299198340     1.007825032230
         C           -4.923549501924    -7.078806635352     0.336074181578    12.000000000000
         C           -2.485346267963    -7.087713613604     0.333564289142    12.000000000000
         C           -3.751690071504    -7.763932693311     0.333758968067    12.000000000000
         C           -0.037953136713    -7.099450410144     0.333780014289    12.000000000000
         C           -1.277960280127    -7.772889920342     0.331795321528    12.000000000000
         C            2.409440141001    -7.114007547678     0.334643215100    12.000000000000
         C            1.194745757428    -7.786170901237     0.332490924219    12.000000000000
         C            4.847616872773    -7.131247646254     0.337150029760    12.000000000000
         C            3.668467426150    -7.803773528619     0.334801595396    12.000000000000
         H           -5.869944530142    -7.613816133717     0.337618218443     1.007825032230
         H            5.788245445663    -7.676317724989     0.338277149242     1.007825032230
         H           -3.753531119175    -8.851057104911     0.331923053638     1.007825032230
         H           -1.284308585620    -8.860860928172     0.327367937669     1.007825032230
         H            1.189217394970    -8.874146156264     0.328398287528     1.007825032230
         H            3.658542435098    -8.890846169728     0.333147053974     1.007825032230

  Charge       = 0
  Multiplicity = 1
  Basis Set: JUN-CC-PVDZ
    Blend: JUN-CC-PVDZ
  Basis Set: (JUN-CC-PVDZ AUX)
    Blend: JUN-CC-PVDZ-JKFIT

    Orbital Energies [Eh]
    ---------------------

    Doubly Occupied:

       1A    -11.264034     2A    -11.263717     3A    -11.263650
       4A    -11.263303     5A    -11.263294     6A    -11.263240
       7A    -11.263131     8A    -11.263099     9A    -11.263058
      10A    -11.262874    11A    -11.262746    12A    -11.262731
      13A    -11.262254    14A    -11.262241    15A    -11.262228
      16A    -11.262172    17A    -11.262101    18A    -11.262082
      19A    -11.262041    20A    -11.261997    21A    -11.261992
      22A    -11.261886    23A    -11.261864    24A    -11.261720
      25A    -11.261717    26A    -11.261689    27A    -11.261685
      28A    -11.261645    29A    -11.261641    30A    -11.261551
      31A    -11.261532    32A    -11.261525    33A    -11.261510
      34A    -11.261506    35A    -11.261485    36A    -11.261477
      37A    -11.261299    38A    -11.261290    39A    -11.261284
      40A    -11.261281    41A    -11.261267    42A    -11.261262
      43A    -11.261252    44A    -11.261240    45A    -11.261231
      46A    -11.261209    47A    -11.261205    48A    -11.261200
      49A    -11.261048    50A    -11.261030    51A    -11.260990
      52A    -11.260950    53A    -11.260908    54A    -11.260867
      55A    -11.259880    56A    -11.259866    57A    -11.259864
      58A    -11.259836    59A    -11.259833    60A    -11.259817
      61A    -11.259250    62A    -11.259228    63A    -11.259219
      64A    -11.259172    65A    -11.259165    66A    -11.259138
      67A    -11.258883    68A    -11.258866    69A    -11.258862
      70A    -11.258835    71A    -11.258832    72A    -11.258821
      73A    -11.254500    74A    -11.254499    75A    -11.254493
      76A    -11.254491    77A    -11.254480    78A    -11.254472
      79A    -11.253623    80A    -11.253623    81A    -11.253610
      82A    -11.253607    83A    -11.253605    84A    -11.253599
      85A    -11.253539    86A    -11.253538    87A    -11.253525
      88A    -11.253521    89A    -11.253520    90A    -11.253513
      91A    -11.253028    92A    -11.253027    93A    -11.253021
      94A    -11.253019    95A    -11.253008    96A    -11.253000
      97A     -1.253856    98A     -1.238934    99A     -1.238903
     100A     -1.220402   101A     -1.220387   102A     -1.215362
     103A     -1.200981   104A     -1.195543   105A     -1.188071
     106A     -1.188049   107A     -1.173707   108A     -1.173705
     109A     -1.155551   110A     -1.155547   111A     -1.152639
     112A     -1.144668   113A     -1.144666   114A     -1.128495
     115A     -1.114637   116A     -1.113110   117A     -1.112414
     118A     -1.112382   119A     -1.111567   120A     -1.088360
     121A     -1.088339   122A     -1.076909   123A     -1.076908
     124A     -1.067546   125A     -1.067507   126A     -1.064894
     127A     -1.046736   128A     -1.046725   129A     -1.040409
     130A     -1.038686   131A     -1.038679   132A     -1.025160
     133A     -1.021304   134A     -1.021236   135A     -1.007119
     136A     -1.006735   137A     -1.003732   138A     -1.000415
     139A     -1.000357   140A     -0.991027   141A     -0.970920
     142A     -0.970865   143A     -0.955827   144A     -0.955767
     145A     -0.905501   146A     -0.905496   147A     -0.905462
     148A     -0.905458   149A     -0.904237   150A     -0.892269
     151A     -0.892218   152A     -0.890280   153A     -0.890225
     154A     -0.889373   155A     -0.872162   156A     -0.869013
     157A     -0.851475   158A     -0.847778   159A     -0.847770
     160A     -0.845514   161A     -0.842935   162A     -0.834493
     163A     -0.834483   164A     -0.828067   165A     -0.828057
     166A     -0.784483   167A     -0.784473   168A     -0.783585
     169A     -0.783569   170A     -0.782209   171A     -0.782192
     172A     -0.781951   173A     -0.766919   174A     -0.760706
     175A     -0.750492   176A     -0.733428   177A     -0.727012
     178A     -0.726969   179A     -0.725004   180A     -0.724477
     181A     -0.724442   182A     -0.718404   183A     -0.713689
     184A     -0.713682   185A     -0.699513   186A     -0.699487
     187A     -0.686037   188A     -0.685895   189A     -0.685883
     190A     -0.682104   191A     -0.682095   192A     -0.678704
     193A     -0.653558   194A     -0.650803   195A     -0.650767
     196A     -0.649722   197A     -0.649717   198A     -0.649502
     199A     -0.640853   200A     -0.640803   201A     -0.640020
     202A     -0.639099   203A     -0.635944   204A     -0.635912
     205A     -0.629064   206A     -0.617729   207A     -0.615245
     208A     -0.615216   209A     -0.608731   210A     -0.608725
     211A     -0.599166   212A     -0.599076   213A     -0.598670
     214A     -0.598514   215A     -0.598498   216A     -0.597951
     217A     -0.595002   218A     -0.594989   219A     -0.594649
     220A     -0.594134   221A     -0.591877   222A     -0.591874
     223A     -0.587296   224A     -0.577749   225A     -0.577727
     226A     -0.575685   227A     -0.575643   228A     -0.573310
     229A     -0.569555   230A     -0.568060   231A     -0.568034
     232A     -0.566674   233A     -0.566668   234A     -0.560859
     235A     -0.558647   236A     -0.558599   237A     -0.558372
     238A     -0.554292   239A     -0.550544   240A     -0.547421
     241A     -0.544229   242A     -0.534986   243A     -0.534938
     244A     -0.533468   245A     -0.533451   246A     -0.528014
     247A     -0.527993   248A     -0.527695   249A     -0.517078
     250A     -0.517054   251A     -0.515313   252A     -0.515308
     253A     -0.509574   254A     -0.509562   255A     -0.497952
     256A     -0.496384   257A     -0.496335   258A     -0.493776
     259A     -0.493709   260A     -0.489408   261A     -0.481382
     262A     -0.477372   263A     -0.477371   264A     -0.473921
     265A     -0.469349   266A     -0.466441   267A     -0.466437
     268A     -0.458770   269A     -0.446578   270A     -0.446528
     271A     -0.440977   272A     -0.440741   273A     -0.440677
     274A     -0.434641   275A     -0.433861   276A     -0.407315
     277A     -0.407304   278A     -0.386356   279A     -0.386292
     280A     -0.385686   281A     -0.385681   282A     -0.383697
     283A     -0.354266   284A     -0.354247   285A     -0.350609
     286A     -0.338023   287A     -0.335513   288A     -0.335487
     289A     -0.332669   290A     -0.332656   291A     -0.307000
     292A     -0.301870   293A     -0.301811   294A     -0.300800
     295A     -0.286112   296A     -0.256434   297A     -0.253419
     298A     -0.253382   299A     -0.204198   300A     -0.204121

  @DF-RHF Final Energy: -3650.34117310212787

   => Energetics <=

    Nuclear Repulsion Energy =          15611.4211649754306563
    One-Electron Energy =              -36072.1824213948639226
    Two-Electron Energy =               16810.4200833173090359
    Total Energy =                      -3650.3411731021260493
 Dipole X            :         -0.0006236            0.0002112           -0.0004124
 Dipole Y            :          0.0012921           -0.0013774           -0.0000853
 Dipole Z            :       -380.3540632          380.3601737            0.0061106
 Magnitude           :                                                    0.0061251

    SAPT Results
  --------------------------------------------------------------------------------------------------------
    Electrostatics                -14.15664397 [mEh]      -8.88342821 [kcal/mol]     -37.16826363 [kJ/mol]
      Elst10,r                    -14.15664397 [mEh]      -8.88342821 [kcal/mol]     -37.16826363 [kJ/mol]

    Exchange                        9.01893257 [mEh]       5.65946563 [kcal/mol]      23.67920420 [kJ/mol]
      Exch10                        9.01893257 [mEh]       5.65946563 [kcal/mol]      23.67920420 [kJ/mol]
      Exch10(S^2)                   8.99268974 [mEh]       5.64299800 [kcal/mol]      23.61030365 [kJ/mol]

    Induction                     -16.69373562 [mEh]     -10.47547725 [kcal/mol]     -43.82939683 [kJ/mol]
      Ind20,r                     -16.46042967 [mEh]     -10.32907556 [kcal/mol]     -43.21685215 [kJ/mol]
      Exch-Ind20,r                  2.00753072 [mEh]       1.25974455 [kcal/mol]       5.27077118 [kJ/mol]
      delta HF,r (2)               -2.24083667 [mEh]      -1.40614624 [kcal/mol]      -5.88331586 [kJ/mol]

    Dispersion                    -19.79741946 [mEh]     -12.42306826 [kcal/mol]     -51.97811762 [kJ/mol]
      Disp20                      -20.67800323 [mEh]     -12.97564293 [kcal/mol]     -54.29009000 [kJ/mol]
      Exch-Disp20                   0.88058378 [mEh]       0.55257466 [kcal/mol]       2.31197238 [kJ/mol]
      Disp20 (SS)                 -10.33900162 [mEh]      -6.48782146 [kcal/mol]     -27.14504500 [kJ/mol]
      Disp20 (OS)                 -10.33900162 [mEh]      -6.48782146 [kcal/mol]     -27.14504500 [kJ/mol]
      Exch-Disp20 (SS)              0.53639340 [mEh]       0.33659194 [kcal/mol]       1.40830068 [kJ/mol]
      Exch-Disp20 (OS)              0.34419037 [mEh]       0.21598272 [kcal/mol]       0.90367170 [kJ/mol]

  Total HF                        -21.83144702 [mEh]     -13.69943983 [kcal/mol]     -57.31845625 [kJ/mol]
  Total SAPT0                     -41.62886648 [mEh]     -26.12250810 [kcal/mol]    -109.29657387 [kJ/mol]

  Special recipe for scaled SAPT0 (see Manual):
    Electrostatics sSAPT0         -14.15664397 [mEh]      -8.88342821 [kcal/mol]     -37.16826363 [kJ/mol]
    Exchange sSAPT0                 9.01893257 [mEh]       5.65946563 [kcal/mol]      23.67920420 [kJ/mol]
    Induction sSAPT0              -16.67610891 [mEh]     -10.46441632 [kcal/mol]     -43.78311790 [kJ/mol]
    Dispersion sSAPT0             -19.78968767 [mEh]     -12.41821650 [kcal/mol]     -51.95781782 [kJ/mol]
  Total sSAPT0                    -41.60350798 [mEh]     -26.10659540 [kcal/mol]    -109.22999514 [kJ/mol]
  --------------------------------------------------------------------------------------------------------

*** Psi4 exiting successfully. Buy a developer a beer!
