                               Psi4 1.9 release

  ==> Input File <==

--------------------------------------------------------------------------
memory 64 GB # how much memory is available ! Depends on the nodes/cores !

molecule dimer {
# monomer A
-1 1    # Charge and multiplicity
B -0.000046  0.000337 3.599994
F -1.153597  0.000048 4.415641
F  1.153661 -0.000581 4.415641
F -0.000019 -1.153637 2.784360
F -0.000019  1.153978 2.784360
--
# monomer B
0 1     # Charge and multiplicity
C   -3.66844126402057      7.80375217008252      0.00190004133558
C   -4.84759871934653      7.13124183134024     -0.00046653359696
C   -4.89495929917518      5.69633040353158     -0.00103944469517
C   -3.65374067877320      4.98073034095895      0.00662099703436
C   -2.40942512149445      7.11398103667468      0.00209438359570
C   -2.42547734410473      5.68112195090346     -0.00491050527438
C   -1.19474401643570      7.78614419430947      0.00356656413763
C   0.03795902893699      7.09942164575698      0.00139585983271
C   0.03033258741920      5.66948955970466     -0.00408752508301
C   -1.20098450790502      4.96927034791531      0.00488220885047
C   1.27795782581485      7.77285944319479      0.00277170839332
C   2.48535808472416      7.08769688523756      0.00049722048857
C   2.48612868491717      5.65477081024076     -0.00644052849921
C   1.25408291964399      4.95607811366431      0.00518741308898
C   3.75171459140595      7.76391215098033      0.00062407186893
C   4.92356605618520      7.07878077698995     -0.00143240883900
C   4.95560727132542      5.64344746336949     -0.00159282164606
C   3.70680153420475      4.94121020833308      0.00349873852374
H   -3.65852113775815      8.89082741913536      0.00358502958574
H   -1.18921332975660      8.87412108735996      0.00753844057883
H   1.28429423888630      8.86083343548850      0.00693053253426
H   3.75354208679975      8.85103527897216      0.00214659618464
H   5.86995870320703      7.61379483465560     -0.00235777588134
H   -5.78823170750226      7.67630221293400     -0.00202638095293
C   -6.09197395869619      4.99326001364347     -0.00291168518608
C   -6.12866148031747      3.58258016879823     -0.00171050815740
C   -3.66457974004527      3.56418217974434     -0.00463560277484
C   -4.89429820469869      2.86108077590057      0.00453338221034
C   -2.43733499489796      2.84761165708481      0.00719617576166
C   -1.20922785759670      3.54788693497833     -0.00648285103018
C   1.24714157216223      3.53468075142962     -0.00729145743546
C   0.01517603956900      2.83311183930540      0.00439272578912
C   2.46764517244071      2.82128997725533      0.00449278391269
C   3.70254947457969      3.52466015442405     -0.00899517692985
C   6.14498038638375      4.92757236613191     -0.00282626685777
C   6.16658835886151      3.51658447594213     -0.00065971342101
C   4.92460995845939      2.80840792535402      0.00587903281610
H   7.08990550964105      5.46688776622306     -0.00658814770723
H   -7.03104175110130      5.54268795285765     -0.00714490013730
C   -7.33969804112295      2.85841153457957     -0.00333767559888
C   -7.36488195805880      1.47032337158330     -0.00157213747140
C   -4.90350460894690      1.44442681216000     -0.00628840166334
C   -6.13225715261081      0.73993935705394      0.00600164231964
C   -3.67687480051673      0.72669714267312      0.00433931473643
C   -2.44565658606518      1.42964113326212     -0.00597039546461
C   -1.22360068130162      0.71532450163492      0.00545886906656
C   0.00763786931376      1.41738314923765      0.00392452278437
C   1.23121980774686      0.70211669058719     -0.01490206287210
C   2.46082110053113      1.40329203612573      0.00460244601878
C   3.68443025419614      0.68719842821222      0.00377365974158
C   4.91870890153864      1.39173456118907     -0.00862816189375
C   7.36980207796101      2.77948220318441     -0.00242013321349
C   7.38016266612146      1.39121750785509     -0.00087345036788
C   6.13979953912259      0.67411862320065      0.00545489144369
H   -8.27919079934664      3.40711804112415     -0.00763522772059
H   8.31511347147953      3.31811809662368     -0.00663070901292
C   -8.59175593758115      0.72483255304480     -0.00123170985383
C   -8.59902460370342     -0.63263980622873      0.00089141472904
C   -6.13981313911873     -0.67413663715361     -0.00609792660607
C   -7.38018411213749     -1.39126618958160      0.00131813493501
C   -4.91868448025621     -1.39175501803000      0.00624257154343
C   -3.68443829568458     -0.68723731573599     -0.00478966852105
C   -2.46081704024768     -1.40334517882457      0.00575341766833
C   -1.23116201232071     -0.70217386488055     -0.00636696112346
C   -0.00756962538737     -1.41741884941102      0.00108956317991
C   1.22364771588843     -0.71527537726392      0.01109518512883
C   2.44567064933149     -1.42964328900682     -0.00065482763106
C   3.67686670284649     -0.72670743155550     -0.00479541202602
C   6.13224884641929     -0.73997883984993     -0.00632338623858
C   4.90351914550401     -1.44445752054090      0.00751768830159
C   8.59901484869081      0.63260386666793     -0.00101133422380
C   8.59174548810050     -0.72485086719319      0.00072504603735
C   7.36486276438985     -1.47033266560598      0.00049486934466
H   -9.52830597181814      1.27684744919284     -0.00270163681798
H   9.54141097460619      1.17457248844457     -0.00206336648518
C   -7.36983790976868     -2.77954514593389      0.00312634335708
C   -4.92459910905015     -2.80843725734101     -0.00460528907921
C   -6.16662249566744     -3.51665219282533      0.00169655107992
C   -3.70251035970491     -3.52468154912026      0.00571878010666
C   -2.46764698511392     -2.82132596280400     -0.00632585824990
C   -0.01513347410770     -2.83314164539971     -0.00604426974092
C   -1.24712184122656     -3.53473217556300      0.00551968366725
C   1.20924506964357     -3.54791467864352      0.00805871345849
C   2.43733602215464     -2.84764173817541     -0.00608104485234
C   4.89430234377080     -2.86112296828604     -0.00526030478103
C   3.66461525504104     -3.56421984553201      0.00761911515957
C   6.12863901474565     -3.58258405771778      0.00096495711699
C   7.33967266469532     -2.85841330737039      0.00248018319869
H   -9.54144911125902     -1.17456346666430      0.00226083090216
H   9.52826186807155     -1.27691907390448      0.00197485379837
H   -8.31516504384864     -3.31814985321231      0.00729857188773
H   8.27915514249207     -3.40714078989363      0.00681973918158
C   -6.14499418870218     -4.92764727278338      0.00302254913999
C   -3.70678334799751     -4.94126171411716     -0.00679841894792
C   -4.95559005800169     -5.64349397349412      0.00116871569699
C   -2.48612132622665     -5.65478557440947      0.00614125209662
C   -1.25405833548005     -4.95612205000132     -0.00503435388927
C   1.20101257386816     -4.96928038819302     -0.00385322963129
C   -0.03033667441341     -5.66952030313900      0.00398997003238
C   3.65375010132847     -4.98074377541453     -0.00309522988330
C   2.42549269587528     -5.68117463552727      0.00628170066869
C   6.09196561781097     -4.99325796338655      0.00325918379042
C   4.89497644461045     -5.69634842095790      0.00202298796027
H   -7.08989238804069     -5.46699984223871      0.00742531082125
H   7.03105520920009     -5.54265853633254      0.00683896355417
C   -4.92354532219813     -7.07882109967734      0.00061394679214
C   -2.48534208823777     -7.08772807792913     -0.00189594564379
C   -3.75168589177895     -7.76394715763627     -0.00170126671874
C   -0.03794895698805     -7.09946487446944     -0.00168022049625
C   -1.27795610040136     -7.77290438466689     -0.00366491325785
C   2.40944432072629     -7.11402201200282     -0.00081701968533
C   1.19474993715296     -7.78618536556242     -0.00296931056689
C   4.84762105249800     -7.13126211057943      0.00168979497423
C   3.66847160587561     -7.80378799294376     -0.00065863938960
H   -5.86994035041618     -7.61383059804164      0.00215798365757
H   5.78824962538815     -7.67633218931421      0.00281691445618
H   -3.75352693944918     -8.85107156923607     -0.00353718114765
H   -1.28430440589466     -8.86087539249706     -0.00809229711623
H   1.18922157469537     -8.87416062058945     -0.00706194725726
H   3.65854661482387     -8.89086063405326     -0.00231318081200

    units angstrom      # Angstroms are the default
    no_reorient         # Geometry fixed, default
    symmetry c1         # C1 symmetry, default
}

set {
    scf_type DF         # Density fitting, faster than exact integrals
    freeze_core True    # Freeze core electrons
    basis jun-cc-pVDZ   # Jun-cc-pVDZ basis set, recommended for sSAPT0 in https://doi.org/10.1063/1.4867135
}

energy('ssapt0')        # Compute sSAPT0 energy, includes also SAPT0
--------------------------------------------------------------------------

  //              Dimer HF             //
    Molecular point group: c1
  Charge       = -1
  Multiplicity = 1
  Basis Set: JUN-CC-PVDZ
    Blend: JUN-CC-PVDZ
  Basis Set: (JUN-CC-PVDZ AUX)
    Blend: JUN-CC-PVDZ-JKFIT
  @DF-RHF Final Energy: -4073.11067195184933
    Total Energy =                      -4073.1106719518502359
 Dipole X            :          0.0015229           -0.0001188            0.0014041
 Dipole Y            :          0.0014844           -0.0002727            0.0012117
 Dipole Z            :         16.6712173          -21.4244976           -4.7532804
 Magnitude           :                                                    4.7532807
  //            Monomer A HF           //
    Molecular point group: c1
  Multiplicity = 1
  Basis Set: JUN-CC-PVDZ
    Blend: JUN-CC-PVDZ
  Basis Set: (JUN-CC-PVDZ AUX)
    Blend: JUN-CC-PVDZ-JKFIT
  @DF-RHF Final Energy:  -422.77381846108574
    Total Energy =                       -422.7738184610857388
  //            Monomer B HF           //
    Molecular point group: c1

    Geometry (in Angstrom), charge = 0, multiplicity = 1:

       Center              X                  Y                   Z               Mass
    ------------   -----------------  -----------------  -----------------  -----------------
      Gh(B)          -0.000050191042     0.000351518223     3.352039025239    11.009305360000
      Gh(F)          -1.153601191042     0.000062518223     4.167686025239    18.998403162730
      Gh(F)           1.153656808958    -0.000566481777     4.167686025239    18.998403162730
      Gh(F)          -0.000023191042    -1.153622481777     2.536405025239    18.998403162730
      Gh(F)          -0.000023191042     1.153992518223     2.536405025239    18.998403162730
         C           -3.668445455062     7.803766688305    -0.246054933425    12.000000000000
         C           -4.847602910388     7.131256349563    -0.248421508358    12.000000000000
         C           -4.894963490217     5.696344921754    -0.248994419456    12.000000000000
         C           -3.653744869815     4.980744859182    -0.241333977726    12.000000000000
         C           -2.409429312536     7.113995554897    -0.245860591165    12.000000000000
         C           -2.425481535146     5.681136469126    -0.252865480035    12.000000000000
         C           -1.194748207477     7.786158712532    -0.244388410623    12.000000000000
         C            0.037954837895     7.099436163980    -0.246559114928    12.000000000000
         C            0.030328396378     5.669504077927    -0.252042499844    12.000000000000
         C           -1.200988698947     4.969284866138    -0.243072765910    12.000000000000
         C            1.277953634773     7.772873961417    -0.245183266367    12.000000000000
         C            2.485353893683     7.087711403460    -0.247457754272    12.000000000000
         C            2.486124493876     5.654785328463    -0.254395503260    12.000000000000
         C            1.254078728602     4.956092631887    -0.242767561672    12.000000000000
         C            3.751710400364     7.763926669203    -0.247330902892    12.000000000000
         C            4.923561865144     7.078795295213    -0.249387383600    12.000000000000
         C            4.955603080284     5.643461981592    -0.249547796407    12.000000000000
         C            3.706797343163     4.941224726556    -0.244456236237    12.000000000000
         H           -3.658525328800     8.890841937358    -0.244369945175     1.007825032230
         H           -1.189217520798     8.874135605583    -0.240416534182     1.007825032230
         H            1.284290047845     8.860847953711    -0.241024442226     1.007825032230
         H            3.753537895758     8.851049797195    -0.245808378576     1.007825032230
         H            5.869954512165     7.613809352878    -0.250312750642     1.007825032230
         H           -5.788235898544     7.676316731157    -0.249981355714     1.007825032230
         C           -6.091978149738     4.993274531866    -0.250866659947    12.000000000000
         C           -6.128665671359     3.582594687021    -0.249665482918    12.000000000000
         C           -3.664583931087     3.564196697967    -0.252590577536    12.000000000000
         C           -4.894302395740     2.861095294123    -0.243421592550    12.000000000000
         C           -2.437339185940     2.847626175307    -0.240758798999    12.000000000000
         C           -1.209232048638     3.547901453201    -0.254437825791    12.000000000000
         C            1.247137381121     3.534695269652    -0.255246432196    12.000000000000
         C            0.015171848527     2.833126357528    -0.243562248972    12.000000000000
         C            2.467640981399     2.821304495478    -0.243462190848    12.000000000000
         C            3.702545283538     3.524674672647    -0.256950151691    12.000000000000
         C            6.144976195342     4.927586884354    -0.250781241619    12.000000000000
         C            6.166584167820     3.516598994165    -0.248614688182    12.000000000000
         C            4.924605767418     2.808422443577    -0.242075941945    12.000000000000
         H            7.089901318599     5.466902284446    -0.254543122468     1.007825032230
         H           -7.031045942143     5.542702471080    -0.255099874898     1.007825032230
         C           -7.339702232165     2.858426052802    -0.251292650360    12.000000000000
         C           -7.364886149100     1.470337889806    -0.249527112232    12.000000000000
         C           -4.903508799989     1.444441330383    -0.254243376424    12.000000000000
         C           -6.132261343652     0.739953875277    -0.241953332441    12.000000000000
         C           -3.676878991558     0.726711660896    -0.243615660024    12.000000000000
         C           -2.445660777107     1.429655651485    -0.253925370225    12.000000000000
         C           -1.223604872343     0.715339019858    -0.242496105694    12.000000000000
         C            0.007633678272     1.417397667460    -0.244030451976    12.000000000000
         C            1.231215616705     0.702131208810    -0.262857037633    12.000000000000
         C            2.460816909489     1.403306554348    -0.243352528742    12.000000000000
         C            3.684426063155     0.687212946435    -0.244181315019    12.000000000000
         C            4.918704710497     1.391749079412    -0.256583136654    12.000000000000
         C            7.369797886919     2.779496721407    -0.250375107974    12.000000000000
         C            7.380158475080     1.391232026078    -0.248828425129    12.000000000000
         C            6.139795348081     0.674133141423    -0.242500083317    12.000000000000
         H           -8.279194990388     3.407132559347    -0.255590202481     1.007825032230
         H            8.315109280438     3.318132614846    -0.254585683774     1.007825032230
         C           -8.591760128623     0.724847071267    -0.249186684615    12.000000000000
         C           -8.599028794745    -0.632625288006    -0.247063560032    12.000000000000
         C           -6.139817330160    -0.674122118931    -0.254052901367    12.000000000000
         C           -7.380188303179    -1.391251671359    -0.246636839826    12.000000000000
         C           -4.918688671298    -1.391740499807    -0.241712403217    12.000000000000
         C           -3.684442486726    -0.687222797513    -0.252744643282    12.000000000000
         C           -2.460821231289    -1.403330660602    -0.242201557092    12.000000000000
         C           -1.231166203362    -0.702159346658    -0.254321935884    12.000000000000
         C           -0.007573816429    -1.417404331188    -0.246865411581    12.000000000000
         C            1.223643524847    -0.715260859041    -0.236859789632    12.000000000000
         C            2.445666458290    -1.429628770784    -0.248609802392    12.000000000000
         C            3.676862511805    -0.726692913333    -0.252750386787    12.000000000000
         C            6.132244655378    -0.739964321627    -0.254278360999    12.000000000000
         C            4.903514954462    -1.444443002318    -0.240437286459    12.000000000000
         C            8.599010657649     0.632618384891    -0.248966308985    12.000000000000
         C            8.591741297059    -0.724836348971    -0.247229928723    12.000000000000
         C            7.364858573348    -1.470318147383    -0.247460105416    12.000000000000
         H           -9.528310162860     1.276861967415    -0.250656611579     1.007825032230
         H            9.541406783565     1.174587006667    -0.250018341246     1.007825032230
         C           -7.369842100810    -2.779530627711    -0.244828631404    12.000000000000
         C           -4.924603300092    -2.808422739118    -0.252560263840    12.000000000000
         C           -6.166626686709    -3.516637674603    -0.246258423681    12.000000000000
         C           -3.702514550747    -3.524667030898    -0.242236194654    12.000000000000
         C           -2.467651176156    -2.821311444581    -0.254280833011    12.000000000000
         C           -0.015137665149    -2.833127127177    -0.253999244502    12.000000000000
         C           -1.247126032268    -3.534717657340    -0.242435291093    12.000000000000
         C            1.209240878602    -3.547900160421    -0.239896261302    12.000000000000
         C            2.437331831113    -2.847627219953    -0.254036019613    12.000000000000
         C            4.894298152729    -2.861108450063    -0.253215279542    12.000000000000
         C            3.664611063999    -3.564205327309    -0.240335859601    12.000000000000
         C            6.128634823704    -3.582569539495    -0.246990017644    12.000000000000
         C            7.339668473654    -2.858398789148    -0.245474791562    12.000000000000
         H           -9.541453302301    -1.174548948442    -0.245694143859     1.007825032230
         H            9.528257677030    -1.276904555682    -0.245980120962     1.007825032230
         H           -8.315169234890    -3.318135334990    -0.240656402873     1.007825032230
         H            8.279150951450    -3.407126271671    -0.241135235579     1.007825032230
         C           -6.144998379744    -4.927632754561    -0.244932425621    12.000000000000
         C           -3.706787539039    -4.941247195895    -0.254753393709    12.000000000000
         C           -4.955594249043    -5.643479455272    -0.246786259064    12.000000000000
         C           -2.486125517268    -5.654771056187    -0.241813722664    12.000000000000
         C           -1.254062526522    -4.956107531779    -0.252989328650    12.000000000000
         C            1.201008382827    -4.969265869970    -0.251808204392    12.000000000000
         C           -0.030340865455    -5.669505784916    -0.243965004728    12.000000000000
         C            3.653745910287    -4.980729257192    -0.251050204644    12.000000000000
         C            2.425488504834    -5.681160117305    -0.241673274092    12.000000000000
         C            6.091961426769    -4.993243445164    -0.244695790970    12.000000000000
         C            4.894972253569    -5.696333902735    -0.245931986800    12.000000000000
         H           -7.089896579082    -5.466985324016    -0.240529663939     1.007825032230
         H            7.031051018158    -5.542644018110    -0.241116011207     1.007825032230
         C           -4.923549513240    -7.078806581455    -0.247341027969    12.000000000000
         C           -2.485346279279    -7.087713559707    -0.249850920405    12.000000000000
         C           -3.751690082821    -7.763932639414    -0.249656241479    12.000000000000
         C           -0.037953148030    -7.099450356247    -0.249635195257    12.000000000000
         C           -1.277960291443    -7.772889866444    -0.251619888019    12.000000000000
         C            2.409440129685    -7.114007493780    -0.248771994446    12.000000000000
         C            1.194745746111    -7.786170847340    -0.250924285328    12.000000000000
         C            4.847616861456    -7.131247592357    -0.246265179787    12.000000000000
         C            3.668467414834    -7.803773474721    -0.248613614150    12.000000000000
         H           -5.869944541458    -7.613816079819    -0.245796991103     1.007825032230
         H            5.788245434347    -7.676317671092    -0.245138060305     1.007825032230
         H           -3.753531130491    -8.851057051013    -0.251492155908     1.007825032230
         H           -1.284308596936    -8.860860874274    -0.256047271877     1.007825032230
         H            1.189217383654    -8.874146102367    -0.255016922018     1.007825032230
         H            3.658542423782    -8.890846115831    -0.250268155573     1.007825032230

  Charge       = 0
  Multiplicity = 1
  Basis Set: JUN-CC-PVDZ
    Blend: JUN-CC-PVDZ
  Basis Set: (JUN-CC-PVDZ AUX)
    Blend: JUN-CC-PVDZ-JKFIT

    Orbital Energies [Eh]
    ---------------------

    Doubly Occupied:

       1A    -11.264098     2A    -11.263771     3A    -11.263713
       4A    -11.263362     5A    -11.263316     6A    -11.263287
       7A    -11.263167     8A    -11.263141     9A    -11.263118
      10A    -11.262912    11A    -11.262786    12A    -11.262776
      13A    -11.262288    14A    -11.262285    15A    -11.262259
      16A    -11.262238    17A    -11.262142    18A    -11.262132
      19A    -11.262091    20A    -11.262052    21A    -11.262034
      22A    -11.261942    23A    -11.261916    24A    -11.261777
      25A    -11.261772    26A    -11.261750    27A    -11.261733
      28A    -11.261705    29A    -11.261687    30A    -11.261598
      31A    -11.261579    32A    -11.261574    33A    -11.261565
      34A    -11.261551    35A    -11.261544    36A    -11.261527
      37A    -11.261350    38A    -11.261342    39A    -11.261334
      40A    -11.261330    41A    -11.261322    42A    -11.261319
      43A    -11.261305    44A    -11.261288    45A    -11.261285
      46A    -11.261261    47A    -11.261256    48A    -11.261250
      49A    -11.261081    50A    -11.261054    51A    -11.261044
      52A    -11.260988    53A    -11.260958    54A    -11.260911
      55A    -11.259934    56A    -11.259920    57A    -11.259918
      58A    -11.259890    59A    -11.259886    60A    -11.259870
      61A    -11.259304    62A    -11.259279    63A    -11.259275
      64A    -11.259224    65A    -11.259219    66A    -11.259191
      67A    -11.258937    68A    -11.258920    69A    -11.258915
      70A    -11.258889    71A    -11.258885    72A    -11.258874
      73A    -11.254543    74A    -11.254541    75A    -11.254536
      76A    -11.254534    77A    -11.254533    78A    -11.254531
      79A    -11.253674    80A    -11.253670    81A    -11.253667
      82A    -11.253664    83A    -11.253662    84A    -11.253660
      85A    -11.253589    86A    -11.253585    87A    -11.253582
      88A    -11.253579    89A    -11.253577    90A    -11.253576
      91A    -11.253071    92A    -11.253069    93A    -11.253063
      94A    -11.253062    95A    -11.253061    96A    -11.253059
      97A     -1.253950    98A     -1.239013    99A     -1.239011
     100A     -1.220478   101A     -1.220477   102A     -1.215440
     103A     -1.201058   104A     -1.195622   105A     -1.188151
     106A     -1.188148   107A     -1.173782   108A     -1.173778
     109A     -1.155643   110A     -1.155639   111A     -1.152718
     112A     -1.144741   113A     -1.144736   114A     -1.128584
     115A     -1.114727   116A     -1.113179   117A     -1.112484
     118A     -1.112474   119A     -1.111636   120A     -1.088444
     121A     -1.088426   122A     -1.076977   123A     -1.076976
     124A     -1.067629   125A     -1.067599   126A     -1.064978
     127A     -1.046815   128A     -1.046809   129A     -1.040497
     130A     -1.038751   131A     -1.038750   132A     -1.025252
     133A     -1.021386   134A     -1.021340   135A     -1.007196
     136A     -1.006827   137A     -1.003810   138A     -1.000500
     139A     -1.000453   140A     -0.991091   141A     -0.971000
     142A     -0.970952   143A     -0.955898   144A     -0.955842
     145A     -0.905600   146A     -0.905566   147A     -0.905558
     148A     -0.905526   149A     -0.904337   150A     -0.892374
     151A     -0.892322   152A     -0.890374   153A     -0.890313
     154A     -0.889471   155A     -0.872232   156A     -0.869072
     157A     -0.851555   158A     -0.847876   159A     -0.847857
     160A     -0.845607   161A     -0.843033   162A     -0.834581
     163A     -0.834566   164A     -0.828130   165A     -0.828127
     166A     -0.784562   167A     -0.784551   168A     -0.783669
     169A     -0.783643   170A     -0.782298   171A     -0.782283
     172A     -0.782044   173A     -0.767007   174A     -0.760802
     175A     -0.750582   176A     -0.733499   177A     -0.727085
     178A     -0.727072   179A     -0.725097   180A     -0.724555
     181A     -0.724538   182A     -0.718494   183A     -0.713780
     184A     -0.713774   185A     -0.699587   186A     -0.699578
     187A     -0.686127   188A     -0.685971   189A     -0.685969
     190A     -0.682189   191A     -0.682177   192A     -0.678777
     193A     -0.653633   194A     -0.650881   195A     -0.650853
     196A     -0.649817   197A     -0.649802   198A     -0.649579
     199A     -0.640930   200A     -0.640909   201A     -0.640102
     202A     -0.639176   203A     -0.636027   204A     -0.636002
     205A     -0.629155   206A     -0.617722   207A     -0.615317
     208A     -0.615298   209A     -0.608814   210A     -0.608807
     211A     -0.599148   212A     -0.599081   213A     -0.598752
     214A     -0.598621   215A     -0.598593   216A     -0.598035
     217A     -0.595081   218A     -0.595068   219A     -0.594733
     220A     -0.594237   221A     -0.591963   222A     -0.591960
     223A     -0.587396   224A     -0.577808   225A     -0.577798
     226A     -0.575667   227A     -0.575663   228A     -0.573394
     229A     -0.569575   230A     -0.568140   231A     -0.568121
     232A     -0.566763   233A     -0.566751   234A     -0.560925
     235A     -0.558722   236A     -0.558706   237A     -0.558439
     238A     -0.554378   239A     -0.550556   240A     -0.547486
     241A     -0.544266   242A     -0.535042   243A     -0.534965
     244A     -0.533542   245A     -0.533523   246A     -0.528087
     247A     -0.528072   248A     -0.527794   249A     -0.517163
     250A     -0.517129   251A     -0.515354   252A     -0.515348
     253A     -0.509654   254A     -0.509637   255A     -0.498038
     256A     -0.496458   257A     -0.496430   258A     -0.493788
     259A     -0.493775   260A     -0.489439   261A     -0.481462
     262A     -0.477423   263A     -0.477415   264A     -0.474005
     265A     -0.469449   266A     -0.466533   267A     -0.466528
     268A     -0.458800   269A     -0.446687   270A     -0.446626
     271A     -0.441033   272A     -0.440765   273A     -0.440747
     274A     -0.434689   275A     -0.433913   276A     -0.407378
     277A     -0.407345   278A     -0.386400   279A     -0.386339
     280A     -0.385737   281A     -0.385731   282A     -0.383740
     283A     -0.354311   284A     -0.354305   285A     -0.350660
     286A     -0.338086   287A     -0.335584   288A     -0.335511
     289A     -0.332713   290A     -0.332709   291A     -0.307047
     292A     -0.301925   293A     -0.301867   294A     -0.300850
     295A     -0.286170   296A     -0.256483   297A     -0.253483
     298A     -0.253430   299A     -0.204262   300A     -0.204171

  @DF-RHF Final Energy: -3650.33981391164070

   => Energetics <=

    Nuclear Repulsion Energy =          15611.4211649754324753
    One-Electron Energy =              -36072.1398894562153146
    Two-Electron Energy =               16810.3789105691430450
    Total Energy =                      -3650.3398139116397942
 Dipole X            :          0.0000849            0.0001983            0.0002833
 Dipole Y            :          0.0013298           -0.0013163            0.0000135
 Dipole Z            :        281.1363489         -281.1368043           -0.0004554
 Magnitude           :                                                    0.0005365

    SAPT Results
  --------------------------------------------------------------------------------------------------------
    Electrostatics                  4.88684913 [mEh]       3.06654413 [kcal/mol]      12.83042062 [kJ/mol]
      Elst10,r                      4.88684913 [mEh]       3.06654413 [kcal/mol]      12.83042062 [kJ/mol]

    Exchange                       18.56208109 [mEh]      11.64788174 [kcal/mol]      48.73473719 [kJ/mol]
      Exch10                       18.56208109 [mEh]      11.64788174 [kcal/mol]      48.73473719 [kJ/mol]
      Exch10(S^2)                  18.50788229 [mEh]      11.61387148 [kcal/mol]      48.59243827 [kJ/mol]

    Induction                     -20.48850934 [mEh]     -12.85673372 [kcal/mol]     -53.79257387 [kJ/mol]
      Ind20,r                     -25.22427117 [mEh]     -15.82846913 [kcal/mol]     -66.22631484 [kJ/mol]
      Exch-Ind20,r                  6.37051013 [mEh]       3.99755546 [kcal/mol]      16.72577205 [kJ/mol]
      delta HF,r (2)               -1.63474831 [mEh]      -1.02582005 [kcal/mol]      -4.29203109 [kJ/mol]

    Dispersion                    -12.35117404 [mEh]      -7.75047873 [kcal/mol]     -32.42800299 [kJ/mol]
      Disp20                      -14.60604988 [mEh]      -9.16543467 [kcal/mol]     -38.34817867 [kJ/mol]
      Exch-Disp20                   2.25487583 [mEh]       1.41495595 [kcal/mol]       5.92017568 [kJ/mol]
      Disp20 (SS)                  -7.30302494 [mEh]      -4.58271734 [kcal/mol]     -19.17408933 [kJ/mol]
      Disp20 (OS)                  -7.30302494 [mEh]      -4.58271734 [kcal/mol]     -19.17408933 [kJ/mol]
      Exch-Disp20 (SS)              1.28365697 [mEh]       0.80550691 [kcal/mol]       3.37024090 [kJ/mol]
      Exch-Disp20 (OS)              0.97121886 [mEh]       0.60944904 [kcal/mol]       2.54993478 [kJ/mol]

  Total HF                          2.96042088 [mEh]       1.85769215 [kcal/mol]       7.77258394 [kJ/mol]
  Total SAPT0                      -9.39075317 [mEh]      -5.89278658 [kcal/mol]     -24.65541904 [kJ/mol]

  Special recipe for scaled SAPT0 (see Manual):
    Electrostatics sSAPT0           4.88684913 [mEh]       3.06654413 [kcal/mol]      12.83042062 [kJ/mol]
    Exchange sSAPT0                18.56208109 [mEh]      11.64788174 [kcal/mol]      48.73473719 [kJ/mol]
    Induction sSAPT0              -20.43237876 [mEh]     -12.82151124 [kcal/mol]     -53.64520305 [kJ/mol]
    Dispersion sSAPT0             -12.33130633 [mEh]      -7.73801154 [kcal/mol]     -32.37584030 [kJ/mol]
  Total sSAPT0                     -9.31475487 [mEh]      -5.84509692 [kcal/mol]     -24.45588553 [kJ/mol]
  --------------------------------------------------------------------------------------------------------

*** Psi4 exiting successfully. Buy a developer a beer!
