                               Psi4 1.9 release

  ==> Input File <==

--------------------------------------------------------------------------
memory 48 GB # how much memory is available ! Depends on the nodes/cores !

molecule dimer {
# monomer A
+1 1    # Charge and multiplicity
C  0.680067 1.417258 -5.915929
C -0.680504 1.419286 -5.915545
N -1.085635 1.420284 -4.597221
C  0.000108 1.423560 -3.815820
C -2.477365 1.469690 -4.129242
N  1.085222 1.420284 -4.597221
H  1.385146 1.409430 -6.733368
H -1.385302 1.419096 -6.733214
H -0.000009 1.425307 -2.734731
C  2.478117 1.403392 -4.132123
H  2.490592 1.430737 -3.041870
H  2.967028 0.489946 -4.479299
H  3.001428 2.278875 -4.523595
H -2.857359 2.491761 -4.209201
H -3.082679 0.799606 -4.742306
H -2.518128 1.142706 -3.089294
--
# monomer B
0 1     # Charge and multiplicity
C   1.22531237526482      0.70753866091955      0.00613762728373
C   1.22532433589282     -0.70753852257020     -0.00619318228664
C   -0.00000567409046      1.41496628609039     -0.00672680580738
C   2.45644923379077      1.41832825917820      0.00902448468363
C   0.00001130712078     -1.41497612663474      0.00347275151708
C   -1.22530046906674      0.70754574598412      0.00838914760619
C   2.45643823516184     -1.41832293188077     -0.00843833914343
C   -0.00000085313587      2.83680140328112     -0.00913035594137
C   3.68182717731192      0.70931832800114     -0.00808954934571
C   2.45512052870677      2.83422403348893     -0.00819210630633
C   3.68182158506039     -0.70933346742900      0.00798293467272
C   -1.22531311884624     -0.70752714354401     -0.00512042085974
C   1.22670006104402      3.54346985599427      0.00816696660346
C   0.00000526469929     -2.83678176723568      0.00832091913869
C   -2.45643555300670      1.41831729028492      0.00842454345199
C   2.45512389762097     -2.83422965658853      0.00783102630520
C   -1.22671388474763      3.54346943575023      0.00827029982280
C   4.91451777504333      1.42717324448953     -0.00160886631602
C   3.69315067131765      3.54279566454522     -0.00155906667985
C   -2.45643712022637     -1.41831290883911     -0.00846337726810
C   1.22670532178455     -3.54347386990643     -0.00780316414624
C   -2.45512491866593      2.83421703463423     -0.00818572995999
C   4.91452486062398     -1.42718653794377      0.00136387641845
C   1.22142509354026      4.97013443726031      0.00150231067809
C   4.89300870916237      2.82518837202648     -0.00039219795739
C   -1.22669652864725     -3.54347062507680     -0.00753595973677
C   -3.68181849668397      0.70932533873199     -0.00807686886569
C   3.69314758099218     -3.54280096939050      0.00148176697923
C   -1.22143177215231      4.97012866986289      0.00168580605083
C   6.13477145276790      0.68054831910577     -0.00083909176631
C   3.65678936045204      4.97295361556775     -0.00065042889723
C   -2.45512642789169     -2.83421472106065      0.00758666850712
C   -3.68181869921921     -0.70932533146830      0.00810055625144
C   4.89301309775526     -2.82519973363176      0.00021895393805
C   -0.00000059327114      5.65044773803267      0.00045449734393
C   6.13477559217374     -0.68055448207492      0.00042622874941
C   2.47813196269732      5.65357712333155      0.00063835075260
C   1.22142288457925     -4.97012668293268     -0.00129718634452
C   -3.69316190412301      3.54279732619245     -0.00139355922051
C   -1.22142804110313     -4.97011793159564     -0.00140994817719
C   -4.91452132810043      1.42717581899491     -0.00153192130862
C   3.65678749952045     -4.97295485423912      0.00080007163680
C   -2.47813805026426      5.65357479452875      0.00092287576113
C   -3.69314125872231     -3.54278984697859      0.00136564082345
C   -4.91451200321153     -1.42718062802730      0.00139857359209
C   -0.00000552908399     -5.65043791501335      0.00005899322272
C   -4.89302000425900      2.82518897091939     -0.00040227981744
C   2.47812647313991     -5.65357317188818     -0.00029052915548
C   -3.65679823041642      4.97295655404175     -0.00047374852278
C   -4.89299899901461     -2.82519139505969      0.00006491824035
C   -2.47812801824129     -5.65356579800621     -0.00056571680280
C   -6.13477002348955      0.68054913825639     -0.00086464346868
C   -3.65678835334731     -4.97294365097028      0.00058578382008
C   -6.13476456307132     -0.68055354348201      0.00040575295444
H   5.83528897565761      3.36927626695423      0.00396712770529
H   7.07385965258860      1.22821762089947     -0.00037744837300
H   4.60066374401555      5.51238117445323     -0.00014522814529
H   5.83528386714679     -3.36930568472863     -0.00423551337640
H   -0.00001167146422      6.73853104613662     -0.00389474766392
H   7.07386165167227     -1.22822657074368     -0.00008250934481
H   2.47331421164041      6.74068466339473      0.00017162982210
H   4.60066897122302     -5.51237575717576      0.00039007446835
H   -2.47331820069565      6.74068209160650      0.00047297644710
H   -0.00000978838621     -6.73852780445195      0.00458867820736
H   -5.83530143450167      3.36927132229595      0.00410314985360
H   2.47330840367253     -6.74068500242887      0.00027980126949
H   -4.60067436136587      5.51237839860371      0.00002010017831
H   -5.83527902699321     -3.36928859177951     -0.00451481925734
H   -2.47329986759855     -6.74067870613986     -0.00016951527498
H   -7.07385728692578      1.22822084484047     -0.00046143985387
H   -4.60067330624313     -5.51236229778631      0.00021776644566
H   -7.07385645456741     -1.22822025997701     -0.00017736581114

    units angstrom      # Angstroms are the default
    no_reorient         # Geometry fixed, default
    symmetry c1         # C1 symmetry, default
}

set {
    scf_type DF         # Density fitting, faster than exact integrals
    freeze_core True    # Freeze core electrons
    basis jun-cc-pVDZ   # Jun-cc-pVDZ basis set, recommended for sSAPT0 in https://doi.org/10.1063/1.4867135
}

energy('ssapt0')        # Compute sSAPT0 energy, includes also SAPT0
--------------------------------------------------------------------------

  //              Dimer HF             //
    Molecular point group: c1
  Charge       = 1
  Multiplicity = 1
  Basis Set: JUN-CC-PVDZ
    Blend: JUN-CC-PVDZ
  Basis Set: (JUN-CC-PVDZ AUX)
    Blend: JUN-CC-PVDZ-JKFIT
  @DF-RHF Final Energy: -2359.21249245310264
    Total Energy =                      -2359.2124924531017314
 Dipole X            :         -0.0022543            0.0006313           -0.0016230
 Dipole Y            :         -5.9984207            7.4856329            1.4872122
 Dipole Z            :         16.8063789          -22.6127977           -5.8064188
 Magnitude           :                                                    5.9938554
  //            Monomer A HF           //
    Molecular point group: c1
  Multiplicity = 1
  Basis Set: JUN-CC-PVDZ
    Blend: JUN-CC-PVDZ
  Basis Set: (JUN-CC-PVDZ AUX)
    Blend: JUN-CC-PVDZ-JKFIT
  @DF-RHF Final Energy:  -303.29794304962979
    Total Energy =                       -303.2979430496297937
  //            Monomer B HF           //
    Molecular point group: c1

    Geometry (in Angstrom), charge = 0, multiplicity = 1:

       Center              X                  Y                   Z               Mass
    ------------   -----------------  -----------------  -----------------  -----------------
      Gh(C)           0.680066520158     1.235968212970    -5.318120107941    12.000000000000
      Gh(C)          -0.680504479842     1.237996212970    -5.317736107941    12.000000000000
      Gh(N)          -1.085635479842     1.238994212970    -3.999412107941    14.003074004430
      Gh(C)           0.000107520158     1.242270212970    -3.218011107941    12.000000000000
      Gh(C)          -2.477365479842     1.288400212970    -3.531433107941    12.000000000000
      Gh(N)           1.085221520158     1.238994212970    -3.999412107941    14.003074004430
      Gh(H)           1.385145520158     1.228140212970    -6.135559107941     1.007825032230
      Gh(H)          -1.385302479842     1.237806212970    -6.135405107941     1.007825032230
      Gh(H)          -0.000009479842     1.244017212970    -2.136922107941     1.007825032230
      Gh(C)           2.478116520158     1.222102212970    -3.534314107941    12.000000000000
      Gh(H)           2.490591520158     1.249447212970    -2.444061107941     1.007825032230
      Gh(H)           2.967027520158     0.308656212970    -3.881490107941     1.007825032230
      Gh(H)           3.001427520158     2.097585212970    -3.925786107941     1.007825032230
      Gh(H)          -2.857359479842     2.310471212970    -3.611392107941     1.007825032230
      Gh(H)          -3.082679479842     0.618316212970    -4.144497107941     1.007825032230
      Gh(H)          -2.518128479842     0.961416212970    -2.491485107941     1.007825032230
         C            1.225311895423     0.526248873889     0.603946519343    12.000000000000
         C            1.225323856051    -0.888828309601     0.591615709773    12.000000000000
         C           -0.000006153932     1.233676499060     0.591082086252    12.000000000000
         C            2.456448753949     1.237038472148     0.606833376743    12.000000000000
         C            0.000010827279    -1.596265913665     0.601281643576    12.000000000000
         C           -1.225300948908     0.526255958954     0.606198039665    12.000000000000
         C            2.456437755320    -1.599612718911     0.589370552916    12.000000000000
         C           -0.000001332978     2.655511616251     0.588678536118    12.000000000000
         C            3.681826697470     0.528028540971     0.589719342714    12.000000000000
         C            2.455120048865     2.652934246459     0.589616785753    12.000000000000
         C            3.681821105219    -0.890623254459     0.605791826732    12.000000000000
         C           -1.225313598688    -0.888816930574     0.592688471200    12.000000000000
         C            1.226699581202     3.362180068964     0.605975858663    12.000000000000
         C            0.000004784858    -3.018071554266     0.606129811198    12.000000000000
         C           -2.456436032848     1.237027503255     0.606233435511    12.000000000000
         C            2.455123417779    -3.015519443619     0.605639918364    12.000000000000
         C           -1.226714364589     3.362179648720     0.606079191882    12.000000000000
         C            4.914517295202     1.245883457459     0.596200025743    12.000000000000
         C            3.693150191476     3.361505877515     0.596249825379    12.000000000000
         C           -2.456437600068    -1.599602695869     0.589345514791    12.000000000000
         C            1.226704841943    -3.724763656937     0.590005727913    12.000000000000
         C           -2.455125398508     2.652927247604     0.589623162099    12.000000000000
         C            4.914524380782    -1.608476324974     0.599172768478    12.000000000000
         C            1.221424613699     4.788844650230     0.599311202737    12.000000000000
         C            4.893008229321     2.643898584996     0.597416694102    12.000000000000
         C           -1.226697008489    -3.724760412107     0.590272932323    12.000000000000
         C           -3.681818976526     0.528035551702     0.589732023194    12.000000000000
         C            3.693147101150    -3.724090756421     0.599290659039    12.000000000000
         C           -1.221432251994     4.788838882833     0.599494698110    12.000000000000
         C            6.134770972926     0.499258532075     0.596969800293    12.000000000000
         C            3.656788880610     4.791663828537     0.597158463162    12.000000000000
         C           -2.455126907733    -3.015504508091     0.605395560566    12.000000000000
         C           -3.681819179061    -0.890615118499     0.605909448311    12.000000000000
         C            4.893012617914    -3.006489520662     0.598027845997    12.000000000000
         C           -0.000001073113     5.469157951002     0.598263389403    12.000000000000
         C            6.134775112332    -0.861844269105     0.598235120809    12.000000000000
         C            2.478131482856     5.472287336301     0.598447242812    12.000000000000
         C            1.221422404738    -5.151416469963     0.596511705715    12.000000000000
         C           -3.693162383965     3.361507539162     0.596415332839    12.000000000000
         C           -1.221428520945    -5.151407718626     0.596398943882    12.000000000000
         C           -4.914521807942     1.245886031965     0.596276970751    12.000000000000
         C            3.656787019679    -5.154244641269     0.598608963696    12.000000000000
         C           -2.478138530106     5.472285007498     0.598731767820    12.000000000000
         C           -3.693141738564    -3.724079634009     0.599174532883    12.000000000000
         C           -4.914512483053    -1.608470415058     0.599207465651    12.000000000000
         C           -0.000006008926    -5.831727702044     0.597867885282    12.000000000000
         C           -4.893020484101     2.643899183889     0.597406612242    12.000000000000
         C            2.478125993298    -5.834862958919     0.597518362904    12.000000000000
         C           -3.656798710258     4.791666767011     0.597335143536    12.000000000000
         C           -4.892999478856    -3.006481182090     0.597873810300    12.000000000000
         C           -2.478128498083    -5.834855585037     0.597243175256    12.000000000000
         C           -6.134770503331     0.499259351226     0.596944248591    12.000000000000
         C           -3.656788833189    -5.154233438001     0.598394675879    12.000000000000
         C           -6.134765042913    -0.861843330512     0.598214645014    12.000000000000
         H            5.835288495816     3.187986479924     0.601776019765     1.007825032230
         H            7.073859172747     1.046927833869     0.597431443686     1.007825032230
         H            4.600663264174     5.331091387423     0.597663663914     1.007825032230
         H            5.835283387305    -3.550595471759     0.593573378683     1.007825032230
         H           -0.000012151306     6.557241259106     0.593914144395     1.007825032230
         H            7.073861171831    -1.409516357774     0.597726382714     1.007825032230
         H            2.473313731799     6.559394876364     0.597980521881     1.007825032230
         H            4.600668491381    -5.693665544206     0.598198966528     1.007825032230
         H           -2.473318680537     6.559392304576     0.598281868506     1.007825032230
         H           -0.000010268228    -6.919817591482     0.602397570267     1.007825032230
         H           -5.835301914343     3.187981535266     0.601912041913     1.007825032230
         H            2.473307923831    -6.921974789459     0.598088693329     1.007825032230
         H           -4.600674841208     5.331088611573     0.597828992238     1.007825032230
         H           -5.835279506835    -3.550578378810     0.593294072802     1.007825032230
         H           -2.473300347440    -6.921968493170     0.597639376784     1.007825032230
         H           -7.073857766768     1.046931057810     0.597347452205     1.007825032230
         H           -4.600673786085    -5.693652084817     0.598026658505     1.007825032230
         H           -7.073856934409    -1.409510047007     0.597631526248     1.007825032230

  Charge       = 0
  Multiplicity = 1
  Basis Set: JUN-CC-PVDZ
    Blend: JUN-CC-PVDZ
  Basis Set: (JUN-CC-PVDZ AUX)
    Blend: JUN-CC-PVDZ-JKFIT

    Orbital Energies [Eh]
    ---------------------

    Doubly Occupied:

       1A    -11.260573     2A    -11.260119     3A    -11.260112
       4A    -11.259422     5A    -11.259409     6A    -11.259222
       7A    -11.259029     8A    -11.258954     9A    -11.258905
      10A    -11.258597    11A    -11.258581    12A    -11.258505
      13A    -11.258443    14A    -11.258439    15A    -11.258434
      16A    -11.258404    17A    -11.258397    18A    -11.258384
      19A    -11.258378    20A    -11.258372    21A    -11.258354
      22A    -11.258286    23A    -11.258274    24A    -11.257991
      25A    -11.257314    26A    -11.257261    27A    -11.257236
      28A    -11.257126    29A    -11.257111    30A    -11.257028
      31A    -11.256410    32A    -11.256348    33A    -11.256329
      34A    -11.256233    35A    -11.256229    36A    -11.256166
      37A    -11.252258    38A    -11.252255    39A    -11.252220
      40A    -11.252219    41A    -11.252216    42A    -11.252211
      43A    -11.251367    44A    -11.251360    45A    -11.251354
      46A    -11.251346    47A    -11.251343    48A    -11.251323
      49A    -11.250820    50A    -11.250816    51A    -11.250782
      52A    -11.250780    53A    -11.250777    54A    -11.250772
      55A     -1.243983    56A     -1.219745    57A     -1.219723
      58A     -1.189470    59A     -1.189452    60A     -1.180861
      61A     -1.157482    62A     -1.148904    63A     -1.135421
      64A     -1.135394    65A     -1.113118    66A     -1.113113
      67A     -1.082347    68A     -1.082343    69A     -1.078520
      70A     -1.065908    71A     -1.065901    72A     -1.039317
      73A     -1.024189    74A     -1.021688    75A     -1.021626
      76A     -1.017649    77A     -1.012724    78A     -0.986943
      79A     -0.986887    80A     -0.961804    81A     -0.961751
      82A     -0.894208    83A     -0.894186    84A     -0.887840
      85A     -0.886089    86A     -0.886042    87A     -0.881305
      88A     -0.881258    89A     -0.861819    90A     -0.837335
      91A     -0.818124    92A     -0.816524    93A     -0.812042
      94A     -0.812041    95A     -0.794611    96A     -0.794597
      97A     -0.746527    98A     -0.744766    99A     -0.733326
     100A     -0.733320   101A     -0.732101   102A     -0.732077
     103A     -0.716409   104A     -0.698895   105A     -0.698867
     106A     -0.693507   107A     -0.693470   108A     -0.661151
     109A     -0.653025   110A     -0.651065   111A     -0.650174
     112A     -0.650165   113A     -0.639283   114A     -0.639263
     115A     -0.629625   116A     -0.627429   117A     -0.627420
     118A     -0.606423   119A     -0.605741   120A     -0.601564
     121A     -0.599665   122A     -0.599604   123A     -0.593536
     124A     -0.591129   125A     -0.591100   126A     -0.585205
     127A     -0.576457   128A     -0.576351   129A     -0.567248
     130A     -0.567225   131A     -0.565867   132A     -0.565853
     133A     -0.558632   134A     -0.554767   135A     -0.554763
     136A     -0.538511   137A     -0.538509   138A     -0.538209
     139A     -0.538194   140A     -0.529627   141A     -0.528138
     142A     -0.522793   143A     -0.522767   144A     -0.500422
     145A     -0.495591   146A     -0.493151   147A     -0.487825
     148A     -0.484975   149A     -0.481661   150A     -0.481660
     151A     -0.470307   152A     -0.470305   153A     -0.450917
     154A     -0.450849   155A     -0.439038   156A     -0.439029
     157A     -0.404717   158A     -0.404696   159A     -0.403325
     160A     -0.375387   161A     -0.375380   162A     -0.349084
     163A     -0.337578   164A     -0.336516   165A     -0.336457
     166A     -0.311059   167A     -0.298058   168A     -0.284311
     169A     -0.284256   170A     -0.224870   171A     -0.224811

  @DF-RHF Final Energy: -2055.89448364762347

   => Energetics <=

    Nuclear Repulsion Energy =           6452.5568002797781446
    One-Electron Energy =              -15636.5048109107174241
    Two-Electron Energy =                7128.0535269833144412
    Total Energy =                      -2055.8944836476239288
 Dipole X            :         -0.0001908           -0.0000085           -0.0001993
 Dipole Y            :        117.1717911         -117.1648546            0.0069365
 Dipole Z            :       -386.3501276          386.3542749            0.0041473
 Magnitude           :                                                    0.0080842

    SAPT Results
  --------------------------------------------------------------------------------------------------------
    Electrostatics                -13.32858649 [mEh]      -8.36381429 [kcal/mol]     -34.99419900 [kJ/mol]
      Elst10,r                    -13.32858649 [mEh]      -8.36381429 [kcal/mol]     -34.99419900 [kJ/mol]

    Exchange                        4.51320955 [mEh]       2.83208175 [kcal/mol]      11.84943003 [kJ/mol]
      Exch10                        4.51320955 [mEh]       2.83208175 [kcal/mol]      11.84943003 [kJ/mol]
      Exch10(S^2)                   4.50658104 [mEh]       2.82792230 [kcal/mol]      11.83202689 [kJ/mol]

    Induction                     -11.25037891 [mEh]      -7.05971935 [kcal/mol]     -29.53786575 [kJ/mol]
      Ind20,r                     -10.91203501 [mEh]      -6.84740535 [kcal/mol]     -28.64954398 [kJ/mol]
      Exch-Ind20,r                  1.08308820 [mEh]       0.67964811 [kcal/mol]       2.84364768 [kJ/mol]
      delta HF,r (2)               -1.42143210 [mEh]      -0.89196211 [kcal/mol]      -3.73196946 [kJ/mol]

    Dispersion                    -13.00163190 [mEh]      -8.15864719 [kcal/mol]     -34.13577984 [kJ/mol]
      Disp20                      -13.42300884 [mEh]      -8.42306521 [kcal/mol]     -35.24210485 [kJ/mol]
      Exch-Disp20                   0.42137694 [mEh]       0.26441802 [kcal/mol]       1.10632501 [kJ/mol]
      Disp20 (SS)                  -6.71150442 [mEh]      -4.21153261 [kcal/mol]     -17.62105242 [kJ/mol]
      Disp20 (OS)                  -6.71150442 [mEh]      -4.21153261 [kcal/mol]     -17.62105242 [kJ/mol]
      Exch-Disp20 (SS)              0.26266236 [mEh]       0.16482312 [kcal/mol]       0.68961992 [kJ/mol]
      Exch-Disp20 (OS)              0.15871458 [mEh]       0.09959490 [kcal/mol]       0.41670508 [kJ/mol]

  Total HF                        -20.06575585 [mEh]     -12.59145189 [kcal/mol]     -52.68263472 [kJ/mol]
  Total SAPT0                     -33.06738774 [mEh]     -20.75009908 [kcal/mol]     -86.81841456 [kJ/mol]

  Special recipe for scaled SAPT0 (see Manual):
    Electrostatics sSAPT0         -13.32858649 [mEh]      -8.36381429 [kcal/mol]     -34.99419900 [kJ/mol]
    Exchange sSAPT0                 4.51320955 [mEh]       2.83208175 [kcal/mol]      11.84943003 [kJ/mol]
    Induction sSAPT0              -11.24559270 [mEh]      -7.05671595 [kcal/mol]     -29.52529955 [kJ/mol]
    Dispersion sSAPT0             -12.99976981 [mEh]      -8.15747871 [kcal/mol]     -34.13089094 [kJ/mol]
  Total sSAPT0                    -33.06073945 [mEh]     -20.74592721 [kcal/mol]     -86.80095946 [kJ/mol]
  --------------------------------------------------------------------------------------------------------

*** Psi4 exiting successfully. Buy a developer a beer!
