                               Psi4 1.9 release

  ==> Input File <==

--------------------------------------------------------------------------
memory 32 GB # how much memory is available ! Depends on the nodes/cores !

molecule dimer {
# monomer A
-1 1    # Charge and multiplicity
B -1.977592e-04  2.742729e-04 -5.799966
F  1.123153e-16  1.430594e-17 -4.387181
F  1.147860e+00  6.757812e-01 -6.271107
F  1.191806e-02 -1.332011e+00 -6.270905
F -1.159666e+00  6.560735e-01 -6.270826
--
# monomer B
0 1     # Charge and multiplicity
C   1.22531237526482      0.70753866091955      0.00613762728373
C   1.22532433589282     -0.70753852257020     -0.00619318228664
C   -0.00000567409046      1.41496628609039     -0.00672680580738
C   2.45644923379077      1.41832825917820      0.00902448468363
C   0.00001130712078     -1.41497612663474      0.00347275151708
C   -1.22530046906674      0.70754574598412      0.00838914760619
C   2.45643823516184     -1.41832293188077     -0.00843833914343
C   -0.00000085313587      2.83680140328112     -0.00913035594137
C   3.68182717731192      0.70931832800114     -0.00808954934571
C   2.45512052870677      2.83422403348893     -0.00819210630633
C   3.68182158506039     -0.70933346742900      0.00798293467272
C   -1.22531311884624     -0.70752714354401     -0.00512042085974
C   1.22670006104402      3.54346985599427      0.00816696660346
C   0.00000526469929     -2.83678176723568      0.00832091913869
C   -2.45643555300670      1.41831729028492      0.00842454345199
C   2.45512389762097     -2.83422965658853      0.00783102630520
C   -1.22671388474763      3.54346943575023      0.00827029982280
C   4.91451777504333      1.42717324448953     -0.00160886631602
C   3.69315067131765      3.54279566454522     -0.00155906667985
C   -2.45643712022637     -1.41831290883911     -0.00846337726810
C   1.22670532178455     -3.54347386990643     -0.00780316414624
C   -2.45512491866593      2.83421703463423     -0.00818572995999
C   4.91452486062398     -1.42718653794377      0.00136387641845
C   1.22142509354026      4.97013443726031      0.00150231067809
C   4.89300870916237      2.82518837202648     -0.00039219795739
C   -1.22669652864725     -3.54347062507680     -0.00753595973677
C   -3.68181849668397      0.70932533873199     -0.00807686886569
C   3.69314758099218     -3.54280096939050      0.00148176697923
C   -1.22143177215231      4.97012866986289      0.00168580605083
C   6.13477145276790      0.68054831910577     -0.00083909176631
C   3.65678936045204      4.97295361556775     -0.00065042889723
C   -2.45512642789169     -2.83421472106065      0.00758666850712
C   -3.68181869921921     -0.70932533146830      0.00810055625144
C   4.89301309775526     -2.82519973363176      0.00021895393805
C   -0.00000059327114      5.65044773803267      0.00045449734393
C   6.13477559217374     -0.68055448207492      0.00042622874941
C   2.47813196269732      5.65357712333155      0.00063835075260
C   1.22142288457925     -4.97012668293268     -0.00129718634452
C   -3.69316190412301      3.54279732619245     -0.00139355922051
C   -1.22142804110313     -4.97011793159564     -0.00140994817719
C   -4.91452132810043      1.42717581899491     -0.00153192130862
C   3.65678749952045     -4.97295485423912      0.00080007163680
C   -2.47813805026426      5.65357479452875      0.00092287576113
C   -3.69314125872231     -3.54278984697859      0.00136564082345
C   -4.91451200321153     -1.42718062802730      0.00139857359209
C   -0.00000552908399     -5.65043791501335      0.00005899322272
C   -4.89302000425900      2.82518897091939     -0.00040227981744
C   2.47812647313991     -5.65357317188818     -0.00029052915548
C   -3.65679823041642      4.97295655404175     -0.00047374852278
C   -4.89299899901461     -2.82519139505969      0.00006491824035
C   -2.47812801824129     -5.65356579800621     -0.00056571680280
C   -6.13477002348955      0.68054913825639     -0.00086464346868
C   -3.65678835334731     -4.97294365097028      0.00058578382008
C   -6.13476456307132     -0.68055354348201      0.00040575295444
H   5.83528897565761      3.36927626695423      0.00396712770529
H   7.07385965258860      1.22821762089947     -0.00037744837300
H   4.60066374401555      5.51238117445323     -0.00014522814529
H   5.83528386714679     -3.36930568472863     -0.00423551337640
H   -0.00001167146422      6.73853104613662     -0.00389474766392
H   7.07386165167227     -1.22822657074368     -0.00008250934481
H   2.47331421164041      6.74068466339473      0.00017162982210
H   4.60066897122302     -5.51237575717576      0.00039007446835
H   -2.47331820069565      6.74068209160650      0.00047297644710
H   -0.00000978838621     -6.73852780445195      0.00458867820736
H   -5.83530143450167      3.36927132229595      0.00410314985360
H   2.47330840367253     -6.74068500242887      0.00027980126949
H   -4.60067436136587      5.51237839860371      0.00002010017831
H   -5.83527902699321     -3.36928859177951     -0.00451481925734
H   -2.47329986759855     -6.74067870613986     -0.00016951527498
H   -7.07385728692578      1.22822084484047     -0.00046143985387
H   -4.60067330624313     -5.51236229778631      0.00021776644566
H   -7.07385645456741     -1.22822025997701     -0.00017736581114

    units angstrom      # Angstroms are the default
    no_reorient         # Geometry fixed, default
    symmetry c1         # C1 symmetry, default
}

set {
    scf_type DF         # Density fitting, faster than exact integrals
    freeze_core True    # Freeze core electrons
    basis jun-cc-pVDZ   # Jun-cc-pVDZ basis set, recommended for sSAPT0 in https://doi.org/10.1063/1.4867135
}

energy('ssapt0')        # Compute sSAPT0 energy, includes also SAPT0
--------------------------------------------------------------------------

  //              Dimer HF             //
    Molecular point group: c1
  Charge       = -1
  Multiplicity = 1
  Basis Set: JUN-CC-PVDZ
    Blend: JUN-CC-PVDZ
  Basis Set: (JUN-CC-PVDZ AUX)
    Blend: JUN-CC-PVDZ-JKFIT
  @DF-RHF Final Energy: -2478.65903793599409
    Total Energy =                      -2478.6590379359950020
 Dipole X            :         -0.0004863            0.0000481           -0.0004383
 Dipole Y            :          0.0009916           -0.0001453            0.0008463
 Dipole Z            :        -26.8027155           35.5560900            8.7533744
 Magnitude           :                                                    8.7533745
  //            Monomer A HF           //
    Molecular point group: c1
  Multiplicity = 1
  Basis Set: JUN-CC-PVDZ
    Blend: JUN-CC-PVDZ
  Basis Set: (JUN-CC-PVDZ AUX)
    Blend: JUN-CC-PVDZ-JKFIT
  @DF-RHF Final Energy:  -422.77175688735764
    Total Energy =                       -422.7717568873576397
  //            Monomer B HF           //
    Molecular point group: c1

    Geometry (in Angstrom), charge = 0, multiplicity = 1:

       Center              X                  Y                   Z               Mass
    ------------   -----------------  -----------------  -----------------  -----------------
      Gh(B)          -0.000198161052     0.000273808717    -5.129949715120    11.009305360000
      Gh(F)          -0.000000401852    -0.000000464183    -3.717164715120    18.998403162730
      Gh(F)           1.147859598148     0.675780735817    -5.601090715120    18.998403162730
      Gh(F)           0.011917658148    -1.332011464183    -5.600888715120    18.998403162730
      Gh(F)          -1.159666401852     0.656073035817    -5.600809715120    18.998403162730
         C            1.225311973413     0.707538196736     0.676153912164    12.000000000000
         C            1.225323934041    -0.707538986754     0.663823102593    12.000000000000
         C           -0.000006075942     1.414965821907     0.663289479073    12.000000000000
         C            2.456448831939     1.418327794995     0.679040769564    12.000000000000
         C            0.000010905269    -1.414976590818     0.673489036397    12.000000000000
         C           -1.225300870919     0.707545281801     0.678405432486    12.000000000000
         C            2.456437833310    -1.418323396064     0.661577945737    12.000000000000
         C           -0.000001254988     2.836800939098     0.660885928939    12.000000000000
         C            3.681826775460     0.709317863818     0.661926735534    12.000000000000
         C            2.455120126855     2.834223569306     0.661824178574    12.000000000000
         C            3.681821183209    -0.709333931612     0.677999219553    12.000000000000
         C           -1.225313520698    -0.707527607727     0.664895864020    12.000000000000
         C            1.226699659192     3.543469391811     0.678183251483    12.000000000000
         C            0.000004862847    -2.836782231419     0.678337204019    12.000000000000
         C           -2.456435954859     1.418316826102     0.678440828332    12.000000000000
         C            2.455123495769    -2.834230120772     0.677847311185    12.000000000000
         C           -1.226714286599     3.543468971567     0.678286584703    12.000000000000
         C            4.914517373191     1.427172780306     0.668407418564    12.000000000000
         C            3.693150269466     3.542795200362     0.668457218200    12.000000000000
         C           -2.456437522078    -1.418313373022     0.661552907612    12.000000000000
         C            1.226704919933    -3.543474334090     0.662213120734    12.000000000000
         C           -2.455125320518     2.834216570451     0.661830554920    12.000000000000
         C            4.914524458772    -1.427187002127     0.671380161298    12.000000000000
         C            1.221424691688     4.970133973077     0.671518595558    12.000000000000
         C            4.893008307311     2.825187907843     0.669624086923    12.000000000000
         C           -1.226696930499    -3.543471089260     0.662480325143    12.000000000000
         C           -3.681818898536     0.709324874549     0.661939416014    12.000000000000
         C            3.693147179140    -3.542801433574     0.671498051859    12.000000000000
         C           -1.221432174004     4.970128205680     0.671702090931    12.000000000000
         C            6.134771050916     0.680547854922     0.669177193114    12.000000000000
         C            3.656788958600     4.972953151384     0.669365855983    12.000000000000
         C           -2.455126829744    -2.834215185244     0.677602953387    12.000000000000
         C           -3.681819101071    -0.709325795652     0.678116841131    12.000000000000
         C            4.893012695903    -2.825200197815     0.670235238818    12.000000000000
         C           -0.000000995123     5.650447273849     0.670470782224    12.000000000000
         C            6.134775190322    -0.680554946258     0.670442513629    12.000000000000
         C            2.478131560845     5.653576659148     0.670654635633    12.000000000000
         C            1.221422482727    -4.970127147116     0.668719098535    12.000000000000
         C           -3.693162305975     3.542796862009     0.668622725659    12.000000000000
         C           -1.221428442955    -4.970118395779     0.668606336703    12.000000000000
         C           -4.914521729952     1.427175354812     0.668484363571    12.000000000000
         C            3.656787097669    -4.972955318422     0.670816356517    12.000000000000
         C           -2.478138452116     5.653574330345     0.670939160641    12.000000000000
         C           -3.693141660574    -3.542790311162     0.671381925703    12.000000000000
         C           -4.914512405063    -1.427181092211     0.671414858472    12.000000000000
         C           -0.000005930936    -5.650438379197     0.670075278103    12.000000000000
         C           -4.893020406111     2.825188506736     0.669614005062    12.000000000000
         C            2.478126071288    -5.653573636072     0.669725755724    12.000000000000
         C           -3.656798632268     4.972956089858     0.669542536357    12.000000000000
         C           -4.892999400866    -2.825191859243     0.670081203120    12.000000000000
         C           -2.478128420093    -5.653566262190     0.669450568077    12.000000000000
         C           -6.134770425341     0.680548674073     0.669151641411    12.000000000000
         C           -3.656788755199    -4.972944115154     0.670602068700    12.000000000000
         C           -6.134764964923    -0.680554007665     0.670422037834    12.000000000000
         H            5.835288573806     3.369275802771     0.673983412585     1.007825032230
         H            7.073859250737     1.228217156716     0.669638836507     1.007825032230
         H            4.600663342164     5.512380710270     0.669871056735     1.007825032230
         H            5.835283465295    -3.369306148912     0.665780771504     1.007825032230
         H           -0.000012073316     6.738530581953     0.666121537216     1.007825032230
         H            7.073861249820    -1.228227034927     0.669933775535     1.007825032230
         H            2.473313809789     6.740684199211     0.670187914702     1.007825032230
         H            4.600668569371    -5.512376221359     0.670406359348     1.007825032230
         H           -2.473318602548     6.740681627423     0.670489261327     1.007825032230
         H           -0.000010190238    -6.738528268635     0.674604963087     1.007825032230
         H           -5.835301836354     3.369270858113     0.674119434734     1.007825032230
         H            2.473308001821    -6.740685466612     0.670296086149     1.007825032230
         H           -4.600674763218     5.512377934420     0.670036385058     1.007825032230
         H           -5.835279428845    -3.369289055963     0.665501465623     1.007825032230
         H           -2.473300269450    -6.740679170323     0.669846769605     1.007825032230
         H           -7.073857688778     1.228220380657     0.669554845026     1.007825032230
         H           -4.600673708095    -5.512362761970     0.670234051326     1.007825032230
         H           -7.073856856419    -1.228220724160     0.669838919069     1.007825032230

  Charge       = 0
  Multiplicity = 1
  Basis Set: JUN-CC-PVDZ
    Blend: JUN-CC-PVDZ
  Basis Set: (JUN-CC-PVDZ AUX)
    Blend: JUN-CC-PVDZ-JKFIT

    Orbital Energies [Eh]
    ---------------------

    Doubly Occupied:

       1A    -11.260673     2A    -11.260225     3A    -11.260222
       4A    -11.259483     5A    -11.259482     6A    -11.259298
       7A    -11.259081     8A    -11.259008     9A    -11.259006
      10A    -11.258699    11A    -11.258696    12A    -11.258615
      13A    -11.258556    14A    -11.258552    15A    -11.258549
      16A    -11.258517    17A    -11.258512    18A    -11.258496
      19A    -11.258480    20A    -11.258475    21A    -11.258470
      22A    -11.258383    23A    -11.258379    24A    -11.258104
      25A    -11.257401    26A    -11.257339    27A    -11.257338
      28A    -11.257201    29A    -11.257201    30A    -11.257116
      31A    -11.256494    32A    -11.256423    33A    -11.256422
      34A    -11.256312    35A    -11.256312    36A    -11.256265
      37A    -11.252362    38A    -11.252362    39A    -11.252361
      40A    -11.252359    41A    -11.252357    42A    -11.252355
      43A    -11.251485    44A    -11.251482    45A    -11.251481
      46A    -11.251475    47A    -11.251475    48A    -11.251470
      49A    -11.250924    50A    -11.250923    51A    -11.250922
      52A    -11.250920    53A    -11.250918    54A    -11.250917
      55A     -1.244186    56A     -1.219938    57A     -1.219937
      58A     -1.189661    59A     -1.189654    60A     -1.181060
      61A     -1.157672    62A     -1.149098    63A     -1.135607
      64A     -1.135600    65A     -1.113305    66A     -1.113300
      67A     -1.082549    68A     -1.082542    69A     -1.078720
      70A     -1.066090    71A     -1.066086    72A     -1.039518
      73A     -1.024403    74A     -1.021885    75A     -1.021842
      76A     -1.017840    77A     -1.012899    78A     -0.987144
      79A     -0.987098    80A     -0.961990    81A     -0.961940
      82A     -0.894405    83A     -0.894379    84A     -0.888059
      85A     -0.886306    86A     -0.886248    87A     -0.881525
      88A     -0.881477    89A     -0.862012    90A     -0.837510
      91A     -0.818332    92A     -0.816736    93A     -0.812257
      94A     -0.812248    95A     -0.794797    96A     -0.794787
      97A     -0.746756    98A     -0.744976    99A     -0.733534
     100A     -0.733525   101A     -0.732295   102A     -0.732272
     103A     -0.716613   104A     -0.699088   105A     -0.699077
     106A     -0.693705   107A     -0.693689   108A     -0.661343
     109A     -0.653216   110A     -0.651281   111A     -0.650359
     112A     -0.650353   113A     -0.639476   114A     -0.639473
     115A     -0.629835   116A     -0.627644   117A     -0.627628
     118A     -0.606523   119A     -0.605898   120A     -0.601785
     121A     -0.599855   122A     -0.599824   123A     -0.593760
     124A     -0.591346   125A     -0.591336   126A     -0.585377
     127A     -0.576393   128A     -0.576388   129A     -0.567429
     130A     -0.567414   131A     -0.566069   132A     -0.566050
     133A     -0.558841   134A     -0.554955   135A     -0.554948
     136A     -0.538703   137A     -0.538701   138A     -0.538246
     139A     -0.538240   140A     -0.529833   141A     -0.528255
     142A     -0.522986   143A     -0.522979   144A     -0.500615
     145A     -0.495680   146A     -0.493349   147A     -0.487906
     148A     -0.485198   149A     -0.481876   150A     -0.481868
     151A     -0.470405   152A     -0.470387   153A     -0.451148
     154A     -0.451069   155A     -0.439150   156A     -0.439141
     157A     -0.404816   158A     -0.404793   159A     -0.403465
     160A     -0.375504   161A     -0.375501   162A     -0.349206
     163A     -0.337649   164A     -0.336641   165A     -0.336584
     166A     -0.311182   167A     -0.298178   168A     -0.284423
     169A     -0.284369   170A     -0.225006   171A     -0.224940

  @DF-RHF Final Energy: -2055.89240728246477

   => Energetics <=

    Nuclear Repulsion Energy =           6452.5568002797772351
    One-Electron Energy =              -15636.4477806439572305
    Two-Electron Energy =                7127.9985730817152216
    Total Energy =                      -2055.8924072824647737
 Dipole X            :          0.0000384            0.0000419            0.0000803
 Dipole Y            :          0.0000403           -0.0000426           -0.0000023
 Dipole Z            :       -433.0181191          433.0209261            0.0028070
 Magnitude           :                                                    0.0028081

    SAPT Results
  --------------------------------------------------------------------------------------------------------
    Electrostatics                  9.52438700 [mEh]       5.97664307 [kcal/mol]      25.00627462 [kJ/mol]
      Elst10,r                      9.52438700 [mEh]       5.97664307 [kcal/mol]      25.00627462 [kJ/mol]

    Exchange                        0.01928235 [mEh]       0.01209986 [kcal/mol]       0.05062581 [kJ/mol]
      Exch10                        0.01928235 [mEh]       0.01209986 [kcal/mol]       0.05062581 [kJ/mol]
      Exch10(S^2)                   0.01928282 [mEh]       0.01210015 [kcal/mol]       0.05062704 [kJ/mol]

    Induction                      -4.41743552 [mEh]      -2.77198264 [kcal/mol]     -11.59797537 [kJ/mol]
      Ind20,r                      -4.46823544 [mEh]      -2.80386007 [kcal/mol]     -11.73135052 [kJ/mol]
      Exch-Ind20,r                  0.00564258 [mEh]       0.00354077 [kcal/mol]       0.01481459 [kJ/mol]
      delta HF,r (2)                0.04515733 [mEh]       0.02833665 [kcal/mol]       0.11856056 [kJ/mol]

    Dispersion                     -1.18492511 [mEh]      -0.74355173 [kcal/mol]      -3.11102044 [kJ/mol]
      Disp20                       -1.19299883 [mEh]      -0.74861807 [kcal/mol]      -3.13221800 [kJ/mol]
      Exch-Disp20                   0.00807372 [mEh]       0.00506634 [kcal/mol]       0.02119756 [kJ/mol]
      Disp20 (SS)                  -0.59649941 [mEh]      -0.37430903 [kcal/mol]      -1.56610900 [kJ/mol]
      Disp20 (OS)                  -0.59649941 [mEh]      -0.37430903 [kcal/mol]      -1.56610900 [kJ/mol]
      Exch-Disp20 (SS)              0.00580595 [mEh]       0.00364329 [kcal/mol]       0.01524351 [kJ/mol]
      Exch-Disp20 (OS)              0.00226778 [mEh]       0.00142305 [kcal/mol]       0.00595405 [kJ/mol]

  Total HF                          5.12623383 [mEh]       3.21676029 [kcal/mol]      13.45892506 [kJ/mol]
  Total SAPT0                       3.94130872 [mEh]       2.47320856 [kcal/mol]      10.34790462 [kJ/mol]

  Special recipe for scaled SAPT0 (see Manual):
    Electrostatics sSAPT0           9.52438700 [mEh]       5.97664307 [kcal/mol]      25.00627462 [kJ/mol]
    Exchange sSAPT0                 0.01928235 [mEh]       0.01209986 [kcal/mol]       0.05062581 [kJ/mol]
    Induction sSAPT0               -4.41743593 [mEh]      -2.77198290 [kcal/mol]     -11.59797645 [kJ/mol]
    Dispersion sSAPT0              -1.18492570 [mEh]      -0.74355210 [kcal/mol]      -3.11102199 [kJ/mol]
  Total sSAPT0                      3.94130772 [mEh]       2.47320793 [kcal/mol]      10.34790199 [kJ/mol]
  --------------------------------------------------------------------------------------------------------

*** Psi4 exiting successfully. Buy a developer a beer!
