                               Psi4 1.9 release

  ==> Input File <==

--------------------------------------------------------------------------
memory 32 GB # how much memory is available ! Depends on the nodes/cores !

molecule dimer {
# monomer A
-1 1    # Charge and multiplicity
B -1.977592e-04  2.742729e-04 3.500034
F  1.123153e-16  1.430594e-17 4.912819
F  1.147860e+00  6.757812e-01 3.028893
F  1.191806e-02 -1.332011e+00 3.029095
F -1.159666e+00  6.560735e-01 3.029174
--
# monomer B
0 1     # Charge and multiplicity
C   1.22531237526482      0.70753866091955      0.00613762728373
C   1.22532433589282     -0.70753852257020     -0.00619318228664
C   -0.00000567409046      1.41496628609039     -0.00672680580738
C   2.45644923379077      1.41832825917820      0.00902448468363
C   0.00001130712078     -1.41497612663474      0.00347275151708
C   -1.22530046906674      0.70754574598412      0.00838914760619
C   2.45643823516184     -1.41832293188077     -0.00843833914343
C   -0.00000085313587      2.83680140328112     -0.00913035594137
C   3.68182717731192      0.70931832800114     -0.00808954934571
C   2.45512052870677      2.83422403348893     -0.00819210630633
C   3.68182158506039     -0.70933346742900      0.00798293467272
C   -1.22531311884624     -0.70752714354401     -0.00512042085974
C   1.22670006104402      3.54346985599427      0.00816696660346
C   0.00000526469929     -2.83678176723568      0.00832091913869
C   -2.45643555300670      1.41831729028492      0.00842454345199
C   2.45512389762097     -2.83422965658853      0.00783102630520
C   -1.22671388474763      3.54346943575023      0.00827029982280
C   4.91451777504333      1.42717324448953     -0.00160886631602
C   3.69315067131765      3.54279566454522     -0.00155906667985
C   -2.45643712022637     -1.41831290883911     -0.00846337726810
C   1.22670532178455     -3.54347386990643     -0.00780316414624
C   -2.45512491866593      2.83421703463423     -0.00818572995999
C   4.91452486062398     -1.42718653794377      0.00136387641845
C   1.22142509354026      4.97013443726031      0.00150231067809
C   4.89300870916237      2.82518837202648     -0.00039219795739
C   -1.22669652864725     -3.54347062507680     -0.00753595973677
C   -3.68181849668397      0.70932533873199     -0.00807686886569
C   3.69314758099218     -3.54280096939050      0.00148176697923
C   -1.22143177215231      4.97012866986289      0.00168580605083
C   6.13477145276790      0.68054831910577     -0.00083909176631
C   3.65678936045204      4.97295361556775     -0.00065042889723
C   -2.45512642789169     -2.83421472106065      0.00758666850712
C   -3.68181869921921     -0.70932533146830      0.00810055625144
C   4.89301309775526     -2.82519973363176      0.00021895393805
C   -0.00000059327114      5.65044773803267      0.00045449734393
C   6.13477559217374     -0.68055448207492      0.00042622874941
C   2.47813196269732      5.65357712333155      0.00063835075260
C   1.22142288457925     -4.97012668293268     -0.00129718634452
C   -3.69316190412301      3.54279732619245     -0.00139355922051
C   -1.22142804110313     -4.97011793159564     -0.00140994817719
C   -4.91452132810043      1.42717581899491     -0.00153192130862
C   3.65678749952045     -4.97295485423912      0.00080007163680
C   -2.47813805026426      5.65357479452875      0.00092287576113
C   -3.69314125872231     -3.54278984697859      0.00136564082345
C   -4.91451200321153     -1.42718062802730      0.00139857359209
C   -0.00000552908399     -5.65043791501335      0.00005899322272
C   -4.89302000425900      2.82518897091939     -0.00040227981744
C   2.47812647313991     -5.65357317188818     -0.00029052915548
C   -3.65679823041642      4.97295655404175     -0.00047374852278
C   -4.89299899901461     -2.82519139505969      0.00006491824035
C   -2.47812801824129     -5.65356579800621     -0.00056571680280
C   -6.13477002348955      0.68054913825639     -0.00086464346868
C   -3.65678835334731     -4.97294365097028      0.00058578382008
C   -6.13476456307132     -0.68055354348201      0.00040575295444
H   5.83528897565761      3.36927626695423      0.00396712770529
H   7.07385965258860      1.22821762089947     -0.00037744837300
H   4.60066374401555      5.51238117445323     -0.00014522814529
H   5.83528386714679     -3.36930568472863     -0.00423551337640
H   -0.00001167146422      6.73853104613662     -0.00389474766392
H   7.07386165167227     -1.22822657074368     -0.00008250934481
H   2.47331421164041      6.74068466339473      0.00017162982210
H   4.60066897122302     -5.51237575717576      0.00039007446835
H   -2.47331820069565      6.74068209160650      0.00047297644710
H   -0.00000978838621     -6.73852780445195      0.00458867820736
H   -5.83530143450167      3.36927132229595      0.00410314985360
H   2.47330840367253     -6.74068500242887      0.00027980126949
H   -4.60067436136587      5.51237839860371      0.00002010017831
H   -5.83527902699321     -3.36928859177951     -0.00451481925734
H   -2.47329986759855     -6.74067870613986     -0.00016951527498
H   -7.07385728692578      1.22822084484047     -0.00046143985387
H   -4.60067330624313     -5.51236229778631      0.00021776644566
H   -7.07385645456741     -1.22822025997701     -0.00017736581114

    units angstrom      # Angstroms are the default
    no_reorient         # Geometry fixed, default
    symmetry c1         # C1 symmetry, default
}

set {
    scf_type DF         # Density fitting, faster than exact integrals
    freeze_core True    # Freeze core electrons
    basis jun-cc-pVDZ   # Jun-cc-pVDZ basis set, recommended for sSAPT0 in https://doi.org/10.1063/1.4867135
}

energy('ssapt0')        # Compute sSAPT0 energy, includes also SAPT0
--------------------------------------------------------------------------

  //              Dimer HF             //
    Molecular point group: c1
  Charge       = -1
  Multiplicity = 1
  Basis Set: JUN-CC-PVDZ
    Blend: JUN-CC-PVDZ
  Basis Set: (JUN-CC-PVDZ AUX)
    Blend: JUN-CC-PVDZ-JKFIT
  @DF-RHF Final Energy: -2478.66251202991543
    Total Energy =                      -2478.6625120299158880
 Dipole X            :         -0.0005810            0.0000481           -0.0005329
 Dipole Y            :          0.0010545           -0.0001453            0.0009092
 Dipole Z            :         17.0573601          -21.4560118           -4.3986517
 Magnitude           :                                                    4.3986518
  //            Monomer A HF           //
    Molecular point group: c1
  Multiplicity = 1
  Basis Set: JUN-CC-PVDZ
    Blend: JUN-CC-PVDZ
  Basis Set: (JUN-CC-PVDZ AUX)
    Blend: JUN-CC-PVDZ-JKFIT
  @DF-RHF Final Energy:  -422.77344255789706
    Total Energy =                       -422.7734425578970558
  //            Monomer B HF           //
    Molecular point group: c1

    Geometry (in Angstrom), charge = 0, multiplicity = 1:

       Center              X                  Y                   Z               Mass
    ------------   -----------------  -----------------  -----------------  -----------------
      Gh(B)          -0.000198161052     0.000273808717     3.095717373628    11.009305360000
      Gh(F)          -0.000000401852    -0.000000464183     4.508502373628    18.998403162730
      Gh(F)           1.147859598148     0.675780735817     2.624576373628    18.998403162730
      Gh(F)           0.011917658148    -1.332011464183     2.624778373628    18.998403162730
      Gh(F)          -1.159666401852     0.656073035817     2.624857373628    18.998403162730
         C            1.225311973413     0.707538196736    -0.398178999088    12.000000000000
         C            1.225323934041    -0.707538986754    -0.410509808658    12.000000000000
         C           -0.000006075942     1.414965821907    -0.411043432179    12.000000000000
         C            2.456448831939     1.418327794995    -0.395292141688    12.000000000000
         C            0.000010905269    -1.414976590818    -0.400843874855    12.000000000000
         C           -1.225300870919     0.707545281801    -0.395927478766    12.000000000000
         C            2.456437833310    -1.418323396064    -0.412754965515    12.000000000000
         C           -0.000001254988     2.836800939098    -0.413446982313    12.000000000000
         C            3.681826775460     0.709317863818    -0.412406175718    12.000000000000
         C            2.455120126855     2.834223569306    -0.412508732678    12.000000000000
         C            3.681821183209    -0.709333931612    -0.396333691699    12.000000000000
         C           -1.225313520698    -0.707527607727    -0.409437047232    12.000000000000
         C            1.226699659192     3.543469391811    -0.396149659768    12.000000000000
         C            0.000004862847    -2.836782231419    -0.395995707233    12.000000000000
         C           -2.456435954859     1.418316826102    -0.395892082920    12.000000000000
         C            2.455123495769    -2.834230120772    -0.396485600067    12.000000000000
         C           -1.226714286599     3.543468971567    -0.396046326549    12.000000000000
         C            4.914517373191     1.427172780306    -0.405925492688    12.000000000000
         C            3.693150269466     3.542795200362    -0.405875693052    12.000000000000
         C           -2.456437522078    -1.418313373022    -0.412780003640    12.000000000000
         C            1.226704919933    -3.543474334090    -0.412119790518    12.000000000000
         C           -2.455125320518     2.834216570451    -0.412502356332    12.000000000000
         C            4.914524458772    -1.427187002127    -0.402952749953    12.000000000000
         C            1.221424691688     4.970133973077    -0.402814315694    12.000000000000
         C            4.893008307311     2.825187907843    -0.404708824329    12.000000000000
         C           -1.226696930499    -3.543471089260    -0.411852586109    12.000000000000
         C           -3.681818898536     0.709324874549    -0.412393495238    12.000000000000
         C            3.693147179140    -3.542801433574    -0.402834859393    12.000000000000
         C           -1.221432174004     4.970128205680    -0.402630820321    12.000000000000
         C            6.134771050916     0.680547854922    -0.405155718138    12.000000000000
         C            3.656788958600     4.972953151384    -0.404967055269    12.000000000000
         C           -2.455126829744    -2.834215185244    -0.396729957865    12.000000000000
         C           -3.681819101071    -0.709325795652    -0.396216070120    12.000000000000
         C            4.893012695903    -2.825200197815    -0.404097672434    12.000000000000
         C           -0.000000995123     5.650447273849    -0.403862129028    12.000000000000
         C            6.134775190322    -0.680554946258    -0.403890397622    12.000000000000
         C            2.478131560845     5.653576659148    -0.403678275619    12.000000000000
         C            1.221422482727    -4.970127147116    -0.405613812716    12.000000000000
         C           -3.693162305975     3.542796862009    -0.405710185592    12.000000000000
         C           -1.221428442955    -4.970118395779    -0.405726574549    12.000000000000
         C           -4.914521729952     1.427175354812    -0.405848547680    12.000000000000
         C            3.656787097669    -4.972955318422    -0.403516554735    12.000000000000
         C           -2.478138452116     5.653574330345    -0.403393750611    12.000000000000
         C           -3.693141660574    -3.542790311162    -0.402950985548    12.000000000000
         C           -4.914512405063    -1.427181092211    -0.402918052780    12.000000000000
         C           -0.000005930936    -5.650438379197    -0.404257633149    12.000000000000
         C           -4.893020406111     2.825188506736    -0.404718906189    12.000000000000
         C            2.478126071288    -5.653573636072    -0.404607155527    12.000000000000
         C           -3.656798632268     4.972956089858    -0.404790374895    12.000000000000
         C           -4.892999400866    -2.825191859243    -0.404251708131    12.000000000000
         C           -2.478128420093    -5.653566262190    -0.404882343175    12.000000000000
         C           -6.134770425341     0.680548674073    -0.405181269841    12.000000000000
         C           -3.656788755199    -4.972944115154    -0.403730842552    12.000000000000
         C           -6.134764964923    -0.680554007665    -0.403910873417    12.000000000000
         H            5.835288573806     3.369275802771    -0.400349498667     1.007825032230
         H            7.073859250737     1.228217156716    -0.404694074745     1.007825032230
         H            4.600663342164     5.512380710270    -0.404461854517     1.007825032230
         H            5.835283465295    -3.369306148912    -0.408552139748     1.007825032230
         H           -0.000012073316     6.738530581953    -0.408211374036     1.007825032230
         H            7.073861249820    -1.228227034927    -0.404399135717     1.007825032230
         H            2.473313809789     6.740684199211    -0.404144996550     1.007825032230
         H            4.600668569371    -5.512376221359    -0.403926551903     1.007825032230
         H           -2.473318602548     6.740681627423    -0.403843649925     1.007825032230
         H           -0.000010190238    -6.738528268635    -0.399727948164     1.007825032230
         H           -5.835301836354     3.369270858113    -0.400213476518     1.007825032230
         H            2.473308001821    -6.740685466612    -0.404036825102     1.007825032230
         H           -4.600674763218     5.512377934420    -0.404296526194     1.007825032230
         H           -5.835279428845    -3.369289055963    -0.408831445629     1.007825032230
         H           -2.473300269450    -6.740679170323    -0.404486141647     1.007825032230
         H           -7.073857688778     1.228220380657    -0.404778066226     1.007825032230
         H           -4.600673708095    -5.512362761970    -0.404098859926     1.007825032230
         H           -7.073856856419    -1.228220724160    -0.404493992183     1.007825032230

  Charge       = 0
  Multiplicity = 1
  Basis Set: JUN-CC-PVDZ
    Blend: JUN-CC-PVDZ
  Basis Set: (JUN-CC-PVDZ AUX)
    Blend: JUN-CC-PVDZ-JKFIT

    Orbital Energies [Eh]
    ---------------------

    Doubly Occupied:

       1A    -11.260685     2A    -11.260235     3A    -11.260234
       4A    -11.259486     5A    -11.259486     6A    -11.259302
       7A    -11.259051     8A    -11.258982     9A    -11.258981
      10A    -11.258644    11A    -11.258641    12A    -11.258523
      13A    -11.258467    14A    -11.258463    15A    -11.258462
      16A    -11.258425    17A    -11.258419    18A    -11.258401
      19A    -11.258399    20A    -11.258397    21A    -11.258394
      22A    -11.258332    23A    -11.258327    24A    -11.258102
      25A    -11.257326    26A    -11.257268    27A    -11.257267
      28A    -11.257139    29A    -11.257138    30A    -11.257058
      31A    -11.256423    32A    -11.256356    33A    -11.256355
      34A    -11.256248    35A    -11.256248    36A    -11.256202
      37A    -11.252269    38A    -11.252269    39A    -11.252267
      40A    -11.252266    41A    -11.252264    42A    -11.252262
      43A    -11.251372    44A    -11.251370    45A    -11.251368
      46A    -11.251362    47A    -11.251362    48A    -11.251358
      49A    -11.250831    50A    -11.250830    51A    -11.250829
      52A    -11.250826    53A    -11.250825    54A    -11.250823
      55A     -1.244011    56A     -1.219777    57A     -1.219776
      58A     -1.189510    59A     -1.189503    60A     -1.180890
      61A     -1.157533    62A     -1.148952    63A     -1.135447
      64A     -1.135441    65A     -1.113169    66A     -1.113164
      67A     -1.082397    68A     -1.082390    69A     -1.078556
      70A     -1.065960    71A     -1.065957    72A     -1.039370
      73A     -1.024234    74A     -1.021711    75A     -1.021669
      76A     -1.017708    77A     -1.012781    78A     -0.986984
      79A     -0.986939    80A     -0.961856    81A     -0.961807
      82A     -0.894267    83A     -0.894241    84A     -0.887875
      85A     -0.886132    86A     -0.886074    87A     -0.881353
      88A     -0.881305    89A     -0.861876    90A     -0.837401
      91A     -0.818178    92A     -0.816567    93A     -0.812094
      94A     -0.812085    95A     -0.794668    96A     -0.794657
      97A     -0.746573    98A     -0.744818    99A     -0.733365
     100A     -0.733356   101A     -0.732157   102A     -0.732134
     103A     -0.716455   104A     -0.698947   105A     -0.698936
     106A     -0.693547   107A     -0.693532   108A     -0.661207
     109A     -0.653055   110A     -0.651102   111A     -0.650231
     112A     -0.650225   113A     -0.639336   114A     -0.639333
     115A     -0.629672   116A     -0.627480   117A     -0.627464
     118A     -0.606442   119A     -0.605800   120A     -0.601620
     121A     -0.599700   122A     -0.599669   123A     -0.593601
     124A     -0.591154   125A     -0.591143   126A     -0.585266
     127A     -0.576400   128A     -0.576394   129A     -0.567306
     130A     -0.567291   131A     -0.565912   132A     -0.565893
     133A     -0.558671   134A     -0.554817   135A     -0.554810
     136A     -0.538571   137A     -0.538569   138A     -0.538216
     139A     -0.538210   140A     -0.529690   141A     -0.528167
     142A     -0.522841   143A     -0.522834   144A     -0.500481
     145A     -0.495595   146A     -0.493208   147A     -0.487836
     148A     -0.485032   149A     -0.481720   150A     -0.481712
     151A     -0.470343   152A     -0.470325   153A     -0.450962
     154A     -0.450884   155A     -0.439059   156A     -0.439050
     157A     -0.404742   158A     -0.404719   159A     -0.403364
     160A     -0.375403   161A     -0.375401   162A     -0.349119
     163A     -0.337641   164A     -0.336546   165A     -0.336489
     166A     -0.311051   167A     -0.298110   168A     -0.284342
     169A     -0.284288   170A     -0.224890   171A     -0.224824

  @DF-RHF Final Energy: -2055.89413368625947

   => Energetics <=

    Nuclear Repulsion Energy =           6452.5568002797781446
    One-Electron Energy =              -15636.4899708691245905
    Two-Electron Energy =                7128.0390369030865259
    Total Energy =                      -2055.8941336862590106
 Dipole X            :          0.0000188            0.0000419            0.0000607
 Dipole Y            :          0.0000538           -0.0000426            0.0000112
 Dipole Z            :        261.3069961         -261.3057536            0.0012425
 Magnitude           :                                                    0.0012441

    SAPT Results
  --------------------------------------------------------------------------------------------------------
    Electrostatics                  8.86497635 [mEh]       5.56285665 [kcal/mol]      23.27499221 [kJ/mol]
      Elst10,r                      8.86497635 [mEh]       5.56285665 [kcal/mol]      23.27499221 [kJ/mol]

    Exchange                       12.82619651 [mEh]       8.04855982 [kcal/mol]      33.67517430 [kJ/mol]
      Exch10                       12.82619651 [mEh]       8.04855982 [kcal/mol]      33.67517430 [kJ/mol]
      Exch10(S^2)                  12.81095108 [mEh]       8.03899317 [kcal/mol]      33.63514742 [kJ/mol]

    Induction                     -16.62695862 [mEh]     -10.43357406 [kcal/mol]     -43.65407385 [kJ/mol]
      Ind20,r                     -19.81182925 [mEh]     -12.43211055 [kcal/mol]     -52.01595053 [kJ/mol]
      Exch-Ind20,r                  4.14663598 [mEh]       2.60205336 [kcal/mol]      10.88699127 [kJ/mol]
      delta HF,r (2)               -0.96176536 [mEh]      -0.60351687 [kcal/mol]      -2.52511459 [kJ/mol]

    Dispersion                    -11.62948841 [mEh]      -7.29761416 [kcal/mol]     -30.53321763 [kJ/mol]
      Disp20                      -13.36254712 [mEh]      -8.38512491 [kcal/mol]     -35.08336263 [kJ/mol]
      Exch-Disp20                   1.73305871 [mEh]       1.08751076 [kcal/mol]       4.55014501 [kJ/mol]
      Disp20 (SS)                  -6.68127356 [mEh]      -4.19256246 [kcal/mol]     -17.54168132 [kJ/mol]
      Disp20 (OS)                  -6.68127356 [mEh]      -4.19256246 [kcal/mol]     -17.54168132 [kJ/mol]
      Exch-Disp20 (SS)              1.01162230 [mEh]       0.63480258 [kcal/mol]       2.65601399 [kJ/mol]
      Exch-Disp20 (OS)              0.72143640 [mEh]       0.45270818 [kcal/mol]       1.89413102 [kJ/mol]

  Total HF                          5.06421424 [mEh]       3.17784241 [kcal/mol]      13.29609266 [kJ/mol]
  Total SAPT0                      -6.56527417 [mEh]      -4.11977174 [kcal/mol]     -17.23712497 [kJ/mol]

  Special recipe for scaled SAPT0 (see Manual):
    Electrostatics sSAPT0           8.86497635 [mEh]       5.56285665 [kcal/mol]      23.27499221 [kJ/mol]
    Exchange sSAPT0                12.82619651 [mEh]       8.04855982 [kcal/mol]      33.67517430 [kJ/mol]
    Induction sSAPT0              -16.61213712 [mEh]     -10.42427342 [kcal/mol]     -43.61516000 [kJ/mol]
    Dispersion sSAPT0             -11.62329387 [mEh]      -7.29372702 [kcal/mol]     -30.51695384 [kJ/mol]
  Total sSAPT0                     -6.54425812 [mEh]      -4.10658397 [kcal/mol]     -17.18194734 [kJ/mol]
  --------------------------------------------------------------------------------------------------------

*** Psi4 exiting successfully. Buy a developer a beer!
