                               Psi4 1.9 release

  ==> Input File <==

--------------------------------------------------------------------------
memory 47 GB # how much memory is available ! Depends on the nodes/cores !

molecule dimer {
# monomer A
+1 1    # Charge and multiplicity
C  0.680067 1.417258 -8.815929
C -0.680504 1.419286 -8.815545
N -1.085635 1.420284 -7.497221
C  0.000108 1.423560 -6.715820
C -2.477365 1.469690 -7.029242
N  1.085222 1.420284 -7.497221
H  1.385146 1.409430 -9.633368
H -1.385302 1.419096 -9.633214
H -0.000009 1.425307 -5.634731
C  2.478117 1.403392 -7.032123
H  2.490592 1.430737 -5.941870
H  2.967028 0.489946 -7.379299
H  3.001428 2.278875 -7.423595
H -2.857359 2.491761 -7.109201
H -3.082679 0.799606 -7.642306
H -2.518128 1.142706 -5.989294
--
# monomer B
0 1     # Charge and multiplicity
C   -3.66844126402057      7.80375217008252      0.00190004133558
C   -4.84759871934653      7.13124183134024     -0.00046653359696
C   -4.89495929917518      5.69633040353158     -0.00103944469517
C   -3.65374067877320      4.98073034095895      0.00662099703436
C   -2.40942512149445      7.11398103667468      0.00209438359570
C   -2.42547734410473      5.68112195090346     -0.00491050527438
C   -1.19474401643570      7.78614419430947      0.00356656413763
C   0.03795902893699      7.09942164575698      0.00139585983271
C   0.03033258741920      5.66948955970466     -0.00408752508301
C   -1.20098450790502      4.96927034791531      0.00488220885047
C   1.27795782581485      7.77285944319479      0.00277170839332
C   2.48535808472416      7.08769688523756      0.00049722048857
C   2.48612868491717      5.65477081024076     -0.00644052849921
C   1.25408291964399      4.95607811366431      0.00518741308898
C   3.75171459140595      7.76391215098033      0.00062407186893
C   4.92356605618520      7.07878077698995     -0.00143240883900
C   4.95560727132542      5.64344746336949     -0.00159282164606
C   3.70680153420475      4.94121020833308      0.00349873852374
H   -3.65852113775815      8.89082741913536      0.00358502958574
H   -1.18921332975660      8.87412108735996      0.00753844057883
H   1.28429423888630      8.86083343548850      0.00693053253426
H   3.75354208679975      8.85103527897216      0.00214659618464
H   5.86995870320703      7.61379483465560     -0.00235777588134
H   -5.78823170750226      7.67630221293400     -0.00202638095293
C   -6.09197395869619      4.99326001364347     -0.00291168518608
C   -6.12866148031747      3.58258016879823     -0.00171050815740
C   -3.66457974004527      3.56418217974434     -0.00463560277484
C   -4.89429820469869      2.86108077590057      0.00453338221034
C   -2.43733499489796      2.84761165708481      0.00719617576166
C   -1.20922785759670      3.54788693497833     -0.00648285103018
C   1.24714157216223      3.53468075142962     -0.00729145743546
C   0.01517603956900      2.83311183930540      0.00439272578912
C   2.46764517244071      2.82128997725533      0.00449278391269
C   3.70254947457969      3.52466015442405     -0.00899517692985
C   6.14498038638375      4.92757236613191     -0.00282626685777
C   6.16658835886151      3.51658447594213     -0.00065971342101
C   4.92460995845939      2.80840792535402      0.00587903281610
H   7.08990550964105      5.46688776622306     -0.00658814770723
H   -7.03104175110130      5.54268795285765     -0.00714490013730
C   -7.33969804112295      2.85841153457957     -0.00333767559888
C   -7.36488195805880      1.47032337158330     -0.00157213747140
C   -4.90350460894690      1.44442681216000     -0.00628840166334
C   -6.13225715261081      0.73993935705394      0.00600164231964
C   -3.67687480051673      0.72669714267312      0.00433931473643
C   -2.44565658606518      1.42964113326212     -0.00597039546461
C   -1.22360068130162      0.71532450163492      0.00545886906656
C   0.00763786931376      1.41738314923765      0.00392452278437
C   1.23121980774686      0.70211669058719     -0.01490206287210
C   2.46082110053113      1.40329203612573      0.00460244601878
C   3.68443025419614      0.68719842821222      0.00377365974158
C   4.91870890153864      1.39173456118907     -0.00862816189375
C   7.36980207796101      2.77948220318441     -0.00242013321349
C   7.38016266612146      1.39121750785509     -0.00087345036788
C   6.13979953912259      0.67411862320065      0.00545489144369
H   -8.27919079934664      3.40711804112415     -0.00763522772059
H   8.31511347147953      3.31811809662368     -0.00663070901292
C   -8.59175593758115      0.72483255304480     -0.00123170985383
C   -8.59902460370342     -0.63263980622873      0.00089141472904
C   -6.13981313911873     -0.67413663715361     -0.00609792660607
C   -7.38018411213749     -1.39126618958160      0.00131813493501
C   -4.91868448025621     -1.39175501803000      0.00624257154343
C   -3.68443829568458     -0.68723731573599     -0.00478966852105
C   -2.46081704024768     -1.40334517882457      0.00575341766833
C   -1.23116201232071     -0.70217386488055     -0.00636696112346
C   -0.00756962538737     -1.41741884941102      0.00108956317991
C   1.22364771588843     -0.71527537726392      0.01109518512883
C   2.44567064933149     -1.42964328900682     -0.00065482763106
C   3.67686670284649     -0.72670743155550     -0.00479541202602
C   6.13224884641929     -0.73997883984993     -0.00632338623858
C   4.90351914550401     -1.44445752054090      0.00751768830159
C   8.59901484869081      0.63260386666793     -0.00101133422380
C   8.59174548810050     -0.72485086719319      0.00072504603735
C   7.36486276438985     -1.47033266560598      0.00049486934466
H   -9.52830597181814      1.27684744919284     -0.00270163681798
H   9.54141097460619      1.17457248844457     -0.00206336648518
C   -7.36983790976868     -2.77954514593389      0.00312634335708
C   -4.92459910905015     -2.80843725734101     -0.00460528907921
C   -6.16662249566744     -3.51665219282533      0.00169655107992
C   -3.70251035970491     -3.52468154912026      0.00571878010666
C   -2.46764698511392     -2.82132596280400     -0.00632585824990
C   -0.01513347410770     -2.83314164539971     -0.00604426974092
C   -1.24712184122656     -3.53473217556300      0.00551968366725
C   1.20924506964357     -3.54791467864352      0.00805871345849
C   2.43733602215464     -2.84764173817541     -0.00608104485234
C   4.89430234377080     -2.86112296828604     -0.00526030478103
C   3.66461525504104     -3.56421984553201      0.00761911515957
C   6.12863901474565     -3.58258405771778      0.00096495711699
C   7.33967266469532     -2.85841330737039      0.00248018319869
H   -9.54144911125902     -1.17456346666430      0.00226083090216
H   9.52826186807155     -1.27691907390448      0.00197485379837
H   -8.31516504384864     -3.31814985321231      0.00729857188773
H   8.27915514249207     -3.40714078989363      0.00681973918158
C   -6.14499418870218     -4.92764727278338      0.00302254913999
C   -3.70678334799751     -4.94126171411716     -0.00679841894792
C   -4.95559005800169     -5.64349397349412      0.00116871569699
C   -2.48612132622665     -5.65478557440947      0.00614125209662
C   -1.25405833548005     -4.95612205000132     -0.00503435388927
C   1.20101257386816     -4.96928038819302     -0.00385322963129
C   -0.03033667441341     -5.66952030313900      0.00398997003238
C   3.65375010132847     -4.98074377541453     -0.00309522988330
C   2.42549269587528     -5.68117463552727      0.00628170066869
C   6.09196561781097     -4.99325796338655      0.00325918379042
C   4.89497644461045     -5.69634842095790      0.00202298796027
H   -7.08989238804069     -5.46699984223871      0.00742531082125
H   7.03105520920009     -5.54265853633254      0.00683896355417
C   -4.92354532219813     -7.07882109967734      0.00061394679214
C   -2.48534208823777     -7.08772807792913     -0.00189594564379
C   -3.75168589177895     -7.76394715763627     -0.00170126671874
C   -0.03794895698805     -7.09946487446944     -0.00168022049625
C   -1.27795610040136     -7.77290438466689     -0.00366491325785
C   2.40944432072629     -7.11402201200282     -0.00081701968533
C   1.19474993715296     -7.78618536556242     -0.00296931056689
C   4.84762105249800     -7.13126211057943      0.00168979497423
C   3.66847160587561     -7.80378799294376     -0.00065863938960
H   -5.86994035041618     -7.61383059804164      0.00215798365757
H   5.78824962538815     -7.67633218931421      0.00281691445618
H   -3.75352693944918     -8.85107156923607     -0.00353718114765
H   -1.28430440589466     -8.86087539249706     -0.00809229711623
H   1.18922157469537     -8.87416062058945     -0.00706194725726
H   3.65854661482387     -8.89086063405326     -0.00231318081200

    units angstrom      # Angstroms are the default
    no_reorient         # Geometry fixed, default
    symmetry c1         # C1 symmetry, default
}

set {
    scf_type DF         # Density fitting, faster than exact integrals
    freeze_core True    # Freeze core electrons
    basis jun-cc-pVDZ   # Jun-cc-pVDZ basis set, recommended for sSAPT0 in https://doi.org/10.1063/1.4867135
}

energy('ssapt0')        # Compute sSAPT0 energy, includes also SAPT0
--------------------------------------------------------------------------

  //              Dimer HF             //
    Molecular point group: c1
  Charge       = 1
  Multiplicity = 1
  Basis Set: JUN-CC-PVDZ
    Blend: JUN-CC-PVDZ
  Basis Set: (JUN-CC-PVDZ AUX)
    Blend: JUN-CC-PVDZ-JKFIT
  @DF-RHF Final Energy: -3953.64565706973644
    Total Energy =                      -3953.6456570697373536
 Dipole X            :         -0.0023708            0.0004804           -0.0018904
 Dipole Y            :         -6.8106438            8.7122315            1.9015877
 Dipole Z            :         32.4649959          -44.2701202          -11.8051242
 Magnitude           :                                                   11.9572989
  //            Monomer A HF           //
    Molecular point group: c1
  Multiplicity = 1
  Basis Set: JUN-CC-PVDZ
    Blend: JUN-CC-PVDZ
  Basis Set: (JUN-CC-PVDZ AUX)
    Blend: JUN-CC-PVDZ-JKFIT
  @DF-RHF Final Energy:  -303.29722216299979
    Total Energy =                       -303.2972221629997875
  //            Monomer B HF           //
    Molecular point group: c1

    Geometry (in Angstrom), charge = 0, multiplicity = 1:

       Center              X                  Y                   Z               Mass
    ------------   -----------------  -----------------  -----------------  -----------------
      Gh(C)           0.680062820275     1.308604348936    -8.236493483346    12.000000000000
      Gh(C)          -0.680508179725     1.310632348936    -8.236109483346    12.000000000000
      Gh(N)          -1.085639179725     1.311630348936    -6.917785483346    14.003074004430
      Gh(C)           0.000103820275     1.314906348936    -6.136384483346    12.000000000000
      Gh(C)          -2.477369179725     1.361036348936    -6.449806483346    12.000000000000
      Gh(N)           1.085217820275     1.311630348936    -6.917785483346    14.003074004430
      Gh(H)           1.385141820275     1.300776348936    -9.053932483346     1.007825032230
      Gh(H)          -1.385306179725     1.310442348936    -9.053778483346     1.007825032230
      Gh(H)          -0.000013179725     1.316653348936    -5.055295483346     1.007825032230
      Gh(C)           2.478112820275     1.294738348936    -6.452687483346    12.000000000000
      Gh(H)           2.490587820275     1.322083348936    -5.362434483346     1.007825032230
      Gh(H)           2.967023820275     0.381292348936    -6.799863483346     1.007825032230
      Gh(H)           3.001423820275     2.170221348936    -6.844159483346     1.007825032230
      Gh(H)          -2.857363179725     2.383107348936    -6.529765483346     1.007825032230
      Gh(H)          -3.082683179725     0.690952348936    -7.062870483346     1.007825032230
      Gh(H)          -2.518132179725     1.034052348936    -5.409858483346     1.007825032230
         C           -3.668445443746     7.695098519018     0.581335557989    12.000000000000
         C           -4.847602899072     7.022588180276     0.578968983057    12.000000000000
         C           -4.894963478901     5.587676752467     0.578396071958    12.000000000000
         C           -3.653744858499     4.872076689895     0.586056513688    12.000000000000
         C           -2.409429301220     7.005327385610     0.581529900249    12.000000000000
         C           -2.425481523830     5.572468299839     0.574525011379    12.000000000000
         C           -1.194748196161     7.677490543245     0.583002080791    12.000000000000
         C            0.037954849212     6.990767994693     0.580831376486    12.000000000000
         C            0.030328407694     5.560835908640     0.575347991571    12.000000000000
         C           -1.200988687630     4.860616696851     0.584317725504    12.000000000000
         C            1.277953646089     7.664205792130     0.582207225047    12.000000000000
         C            2.485353904999     6.979043234173     0.579932737142    12.000000000000
         C            2.486124505192     5.546117159176     0.572994988154    12.000000000000
         C            1.254078739919     4.847424462600     0.584622929743    12.000000000000
         C            3.751710411681     7.655258499916     0.580059588522    12.000000000000
         C            4.923561876460     6.970127125926     0.578003107815    12.000000000000
         C            4.955603091600     5.534793812305     0.577842695007    12.000000000000
         C            3.706797354479     4.832556557269     0.582934255177    12.000000000000
         H           -3.658525317484     8.782173768071     0.583020546239     1.007825032230
         H           -1.189217509482     8.765467436296     0.586973957232     1.007825032230
         H            1.284290059161     8.752179784424     0.586366049188     1.007825032230
         H            3.753537907074     8.742381627908     0.581582112838     1.007825032230
         H            5.869954523482     7.505141183591     0.577077740772     1.007825032230
         H           -5.788235887228     7.567648561870     0.577409135701     1.007825032230
         C           -6.091978138422     4.884606362579     0.576523831467    12.000000000000
         C           -6.128665660043     3.473926517734     0.577725008496    12.000000000000
         C           -3.664583919771     3.455528528680     0.574799913879    12.000000000000
         C           -4.894302384424     2.752427124836     0.583968898864    12.000000000000
         C           -2.437339174623     2.738958006020     0.586631692415    12.000000000000
         C           -1.209232037322     3.439233283914     0.572952665623    12.000000000000
         C            1.247137392437     3.426027100365     0.572144059218    12.000000000000
         C            0.015171859844     2.724458188241     0.583828242443    12.000000000000
         C            2.467640992715     2.712636326191     0.583928300566    12.000000000000
         C            3.702545294854     3.416006503360     0.570440339724    12.000000000000
         C            6.144976206658     4.818918715067     0.576609249796    12.000000000000
         C            6.166584179136     3.407930824878     0.578775803233    12.000000000000
         C            4.924605778734     2.699754274290     0.585314549470    12.000000000000
         H            7.089901329916     5.358234115159     0.572847368946     1.007825032230
         H           -7.031045930827     5.434034301793     0.572290616516     1.007825032230
         C           -7.339702220848     2.749757883515     0.576097841055    12.000000000000
         C           -7.364886137784     1.361669720519     0.577863379182    12.000000000000
         C           -4.903508788672     1.335773161096     0.573147114990    12.000000000000
         C           -6.132261332336     0.631285705989     0.585437158973    12.000000000000
         C           -3.676878980242     0.618043491609     0.583774831390    12.000000000000
         C           -2.445660765791     1.320987482198     0.573465121189    12.000000000000
         C           -1.223604861027     0.606670850570     0.584894385720    12.000000000000
         C            0.007633689588     1.308729498173     0.583360039438    12.000000000000
         C            1.231215628021     0.593463039523     0.564533453781    12.000000000000
         C            2.460816920806     1.294638385061     0.584037962672    12.000000000000
         C            3.684426074471     0.578544777148     0.583209176395    12.000000000000
         C            4.918704721813     1.283080910125     0.570807354760    12.000000000000
         C            7.369797898236     2.670828552120     0.577015383440    12.000000000000
         C            7.380158486396     1.282563856791     0.578562066286    12.000000000000
         C            6.139795359397     0.565464972136     0.584890408097    12.000000000000
         H           -8.279194979072     3.298464390060     0.571800288933     1.007825032230
         H            8.315109291754     3.209464445559     0.572804807641     1.007825032230
         C           -8.591760117307     0.616178901980     0.578203806800    12.000000000000
         C           -8.599028783429    -0.741293457293     0.580326931383    12.000000000000
         C           -6.139817318844    -0.782790288218     0.573337590047    12.000000000000
         C           -7.380188291863    -1.499919840646     0.580753651589    12.000000000000
         C           -4.918688659982    -1.500408669094     0.585678088197    12.000000000000
         C           -3.684442475410    -0.795890966800     0.574645848132    12.000000000000
         C           -2.460821219973    -1.511998829889     0.585188934322    12.000000000000
         C           -1.231166192046    -0.810827515945     0.573068555530    12.000000000000
         C           -0.007573805113    -1.526072500475     0.580525079833    12.000000000000
         C            1.223643536163    -0.823929028328     0.590530701782    12.000000000000
         C            2.445666469606    -1.538296940071     0.578780689022    12.000000000000
         C            3.676862523121    -0.835361082620     0.574640104628    12.000000000000
         C            6.132244666694    -0.848632490914     0.573112130415    12.000000000000
         C            4.903514965779    -1.553111171605     0.586953204955    12.000000000000
         C            8.599010668965     0.523950215603     0.578424182430    12.000000000000
         C            8.591741308375    -0.833504518258     0.580160562691    12.000000000000
         C            7.364858584664    -1.578986316670     0.579930385998    12.000000000000
         H           -9.528310151544     1.168193798128     0.576733879836     1.007825032230
         H            9.541406794881     1.065918837380     0.577372150168     1.007825032230
         C           -7.369842089494    -2.888198796998     0.582561860011    12.000000000000
         C           -4.924603288776    -2.917090908405     0.574830227574    12.000000000000
         C           -6.166626675393    -3.625305843890     0.581132067733    12.000000000000
         C           -3.702514539430    -3.633335200185     0.585154296760    12.000000000000
         C           -2.467651164839    -2.929979613868     0.573109658404    12.000000000000
         C           -0.015137653833    -2.941795296464     0.573391246913    12.000000000000
         C           -1.247126020952    -3.643385826627     0.584955200321    12.000000000000
         C            1.209240889918    -3.656568329708     0.587494230112    12.000000000000
         C            2.437331842429    -2.956295389240     0.573354471801    12.000000000000
         C            4.894298164045    -2.969776619350     0.574175211873    12.000000000000
         C            3.664611075316    -3.672873496596     0.587054631813    12.000000000000
         C            6.128634835020    -3.691237708782     0.580400473771    12.000000000000
         C            7.339668484970    -2.967066958435     0.581915699852    12.000000000000
         H           -9.541453290984    -1.283217117729     0.581696347556     1.007825032230
         H            9.528257688346    -1.385572724969     0.581410370452     1.007825032230
         H           -8.315169223574    -3.426803504277     0.586734088541     1.007825032230
         H            8.279150962767    -3.515794440958     0.586255255835     1.007825032230
         C           -6.144998368428    -5.036300923848     0.582458065794    12.000000000000
         C           -3.706787527723    -5.049915365182     0.572637097706    12.000000000000
         C           -4.955594237727    -5.752147624559     0.580604232351    12.000000000000
         C           -2.486125505952    -5.763439225474     0.585576768750    12.000000000000
         C           -1.254062515205    -5.064775701066     0.574401162764    12.000000000000
         C            1.201008394143    -5.077934039257     0.575582287022    12.000000000000
         C           -0.030340854139    -5.778173954203     0.583425486686    12.000000000000
         C            3.653745921603    -5.089397426479     0.576340286770    12.000000000000
         C            2.425488516150    -5.789828286592     0.585717217322    12.000000000000
         C            6.091961438086    -5.101911614451     0.582694700444    12.000000000000
         C            4.894972264885    -5.805002072022     0.581458504614    12.000000000000
         H           -7.089896567766    -5.575653493303     0.586860827475     1.007825032230
         H            7.031051029475    -5.651312187397     0.586274480208     1.007825032230
         C           -4.923549501924    -7.187474750742     0.580049463446    12.000000000000
         C           -2.485346267963    -7.196381728994     0.577539571010    12.000000000000
         C           -3.751690071504    -7.872600808701     0.577734249935    12.000000000000
         C           -0.037953136713    -7.208118525534     0.577755296157    12.000000000000
         C           -1.277960280127    -7.881558035731     0.575770603396    12.000000000000
         C            2.409440141001    -7.222675663067     0.578618496968    12.000000000000
         C            1.194745757428    -7.894839016627     0.576466206087    12.000000000000
         C            4.847616872773    -7.239915761644     0.581125311628    12.000000000000
         C            3.668467426150    -7.912441644008     0.578776877264    12.000000000000
         H           -5.869944530142    -7.722484249106     0.581593500311     1.007825032230
         H            5.788245445663    -7.784985840379     0.582252431110     1.007825032230
         H           -3.753531119175    -8.959725220301     0.575898335506     1.007825032230
         H           -1.284308585620    -8.969529043562     0.571343219537     1.007825032230
         H            1.189217394970    -8.982814271654     0.572373569396     1.007825032230
         H            3.658542435098    -8.999514285118     0.577122335842     1.007825032230

  Charge       = 0
  Multiplicity = 1
  Basis Set: JUN-CC-PVDZ
    Blend: JUN-CC-PVDZ
  Basis Set: (JUN-CC-PVDZ AUX)
    Blend: JUN-CC-PVDZ-JKFIT

    Orbital Energies [Eh]
    ---------------------

    Doubly Occupied:

       1A    -11.264046     2A    -11.263732     3A    -11.263730
       4A    -11.263389     5A    -11.263387     6A    -11.263352
       7A    -11.263194     8A    -11.263168     9A    -11.263165
      10A    -11.263009    11A    -11.262850    12A    -11.262844
      13A    -11.262367    14A    -11.262363    15A    -11.262289
      16A    -11.262289    17A    -11.262238    18A    -11.262203
      19A    -11.262158    20A    -11.262120    21A    -11.262118
      22A    -11.261964    23A    -11.261960    24A    -11.261842
      25A    -11.261827    26A    -11.261812    27A    -11.261809
      28A    -11.261761    29A    -11.261754    30A    -11.261681
      31A    -11.261655    32A    -11.261651    33A    -11.261625
      34A    -11.261624    35A    -11.261603    36A    -11.261555
      37A    -11.261417    38A    -11.261406    39A    -11.261400
      40A    -11.261392    41A    -11.261388    42A    -11.261379
      43A    -11.261375    44A    -11.261360    45A    -11.261355
      46A    -11.261333    47A    -11.261329    48A    -11.261324
      49A    -11.261170    50A    -11.261139    51A    -11.261136
      52A    -11.261056    53A    -11.261055    54A    -11.260984
      55A    -11.260018    56A    -11.260004    57A    -11.260001
      58A    -11.259972    59A    -11.259971    60A    -11.259954
      61A    -11.259395    62A    -11.259369    63A    -11.259367
      64A    -11.259315    65A    -11.259313    66A    -11.259284
      67A    -11.259022    68A    -11.259004    69A    -11.259002
      70A    -11.258974    71A    -11.258973    72A    -11.258960
      73A    -11.254591    74A    -11.254591    75A    -11.254589
      76A    -11.254587    77A    -11.254580    78A    -11.254578
      79A    -11.253742    80A    -11.253740    81A    -11.253738
      82A    -11.253736    83A    -11.253735    84A    -11.253727
      85A    -11.253658    86A    -11.253656    87A    -11.253654
      88A    -11.253652    89A    -11.253650    90A    -11.253643
      91A    -11.253119    92A    -11.253119    93A    -11.253117
      94A    -11.253115    95A    -11.253108    96A    -11.253106
      97A     -1.254136    98A     -1.239143    99A     -1.239142
     100A     -1.220586   101A     -1.220582   102A     -1.215611
     103A     -1.201148   104A     -1.195717   105A     -1.188302
     106A     -1.188300   107A     -1.173867   108A     -1.173865
     109A     -1.155775   110A     -1.155771   111A     -1.152880
     112A     -1.144821   113A     -1.144818   114A     -1.128699
     115A     -1.114857   116A     -1.113263   117A     -1.112642
     118A     -1.112627   119A     -1.111711   120A     -1.088560
     121A     -1.088545   122A     -1.077059   123A     -1.077057
     124A     -1.067754   125A     -1.067724   126A     -1.065124
     127A     -1.046919   128A     -1.046912   129A     -1.040608
     130A     -1.038831   131A     -1.038830   132A     -1.025392
     133A     -1.021563   134A     -1.021512   135A     -1.007291
     136A     -1.006934   137A     -1.003910   138A     -1.000634
     139A     -1.000586   140A     -0.991167   141A     -0.971123
     142A     -0.971074   143A     -0.955991   144A     -0.955936
     145A     -0.905762   146A     -0.905720   147A     -0.905639
     148A     -0.905598   149A     -0.904517   150A     -0.892532
     151A     -0.892473   152A     -0.890517   153A     -0.890460
     154A     -0.889592   155A     -0.872321   156A     -0.869135
     157A     -0.851650   158A     -0.848013   159A     -0.847991
     160A     -0.845749   161A     -0.843153   162A     -0.834684
     163A     -0.834671   164A     -0.828213   165A     -0.828209
     166A     -0.784674   167A     -0.784663   168A     -0.783800
     169A     -0.783774   170A     -0.782419   171A     -0.782399
     172A     -0.782183   173A     -0.767108   174A     -0.760955
     175A     -0.750730   176A     -0.733586   177A     -0.727191
     178A     -0.727177   179A     -0.725215   180A     -0.724657
     181A     -0.724639   182A     -0.718658   183A     -0.713921
     184A     -0.713915   185A     -0.699693   186A     -0.699681
     187A     -0.686291   188A     -0.686060   189A     -0.686057
     190A     -0.682282   191A     -0.682272   192A     -0.678916
     193A     -0.653746   194A     -0.650994   195A     -0.650964
     196A     -0.649967   197A     -0.649952   198A     -0.649668
     199A     -0.641087   200A     -0.641060   201A     -0.640192
     202A     -0.639257   203A     -0.636160   204A     -0.636134
     205A     -0.629261   206A     -0.617678   207A     -0.615401
     208A     -0.615381   209A     -0.608913   210A     -0.608906
     211A     -0.599183   212A     -0.599145   213A     -0.598870
     214A     -0.598744   215A     -0.598718   216A     -0.598197
     217A     -0.595168   218A     -0.595156   219A     -0.594840
     220A     -0.594400   221A     -0.592087   222A     -0.592084
     223A     -0.587556   224A     -0.577876   225A     -0.577866
     226A     -0.575734   227A     -0.575729   228A     -0.573488
     229A     -0.569572   230A     -0.568295   231A     -0.568271
     232A     -0.566877   233A     -0.566866   234A     -0.560995
     235A     -0.558854   236A     -0.558835   237A     -0.558512
     238A     -0.554488   239A     -0.550627   240A     -0.547554
     241A     -0.544337   242A     -0.535036   243A     -0.535002
     244A     -0.533651   245A     -0.533628   246A     -0.528178
     247A     -0.528163   248A     -0.527953   249A     -0.517314
     250A     -0.517280   251A     -0.515422   252A     -0.515417
     253A     -0.509741   254A     -0.509725   255A     -0.498135
     256A     -0.496567   257A     -0.496540   258A     -0.493840
     259A     -0.493831   260A     -0.489474   261A     -0.481549
     262A     -0.477485   263A     -0.477482   264A     -0.474101
     265A     -0.469569   266A     -0.466647   267A     -0.466642
     268A     -0.458873   269A     -0.446856   270A     -0.446795
     271A     -0.441097   272A     -0.440823   273A     -0.440798
     274A     -0.434753   275A     -0.433970   276A     -0.407445
     277A     -0.407421   278A     -0.386482   279A     -0.386434
     280A     -0.385794   281A     -0.385793   282A     -0.383825
     283A     -0.354396   284A     -0.354379   285A     -0.350734
     286A     -0.338164   287A     -0.335664   288A     -0.335596
     289A     -0.332777   290A     -0.332771   291A     -0.307160
     292A     -0.302022   293A     -0.301961   294A     -0.300909
     295A     -0.286239   296A     -0.256524   297A     -0.253573
     298A     -0.253522   299A     -0.204332   300A     -0.204244

  @DF-RHF Final Energy: -3650.33774974283824

   => Energetics <=

    Nuclear Repulsion Energy =          15611.4211649754306563
    One-Electron Energy =              -36072.0805909120026627
    Two-Electron Energy =               16810.3216761937364936
    Total Energy =                      -3650.3377497428373317
 Dipole X            :         -0.0009288            0.0002112           -0.0007176
 Dipole Y            :        123.2132452         -123.2131634            0.0000818
 Dipole Z            :       -656.9840559          656.9880522            0.0039963
 Magnitude           :                                                    0.0040610

    SAPT Results
  --------------------------------------------------------------------------------------------------------
    Electrostatics                 -7.79913079 [mEh]      -4.89402846 [kcal/mol]     -20.47661506 [kJ/mol]
      Elst10,r                     -7.79913079 [mEh]      -4.89402846 [kcal/mol]     -20.47661506 [kJ/mol]

    Exchange                       -0.00022224 [mEh]      -0.00013946 [kcal/mol]      -0.00058349 [kJ/mol]
      Exch10                       -0.00022224 [mEh]      -0.00013946 [kcal/mol]      -0.00058349 [kJ/mol]
      Exch10(S^2)                  -0.00022224 [mEh]      -0.00013946 [kcal/mol]      -0.00058349 [kJ/mol]

    Induction                      -2.88581087 [mEh]      -1.81087366 [kcal/mol]      -7.57669541 [kJ/mol]
      Ind20,r                      -2.83979258 [mEh]      -1.78199675 [kcal/mol]      -7.45587439 [kJ/mol]
      Exch-Ind20,r                  0.00032488 [mEh]       0.00020386 [kcal/mol]       0.00085296 [kJ/mol]
      delta HF,r (2)               -0.04634317 [mEh]      -0.02908078 [kcal/mol]      -0.12167399 [kJ/mol]

    Dispersion                     -1.24072081 [mEh]      -0.77856406 [kcal/mol]      -3.25751203 [kJ/mol]
      Disp20                       -1.24082525 [mEh]      -0.77862960 [kcal/mol]      -3.25778624 [kJ/mol]
      Exch-Disp20                   0.00010444 [mEh]       0.00006554 [kcal/mol]       0.00027421 [kJ/mol]
      Disp20 (SS)                  -0.62041262 [mEh]      -0.38931480 [kcal/mol]      -1.62889312 [kJ/mol]
      Disp20 (OS)                  -0.62041262 [mEh]      -0.38931480 [kcal/mol]      -1.62889312 [kJ/mol]
      Exch-Disp20 (SS)              0.00007858 [mEh]       0.00004931 [kcal/mol]       0.00020630 [kJ/mol]
      Exch-Disp20 (OS)              0.00002586 [mEh]       0.00001623 [kcal/mol]       0.00006791 [kJ/mol]

  Total HF                        -10.68516390 [mEh]      -6.70504158 [kcal/mol]     -28.05389395 [kJ/mol]
  Total SAPT0                     -11.92588471 [mEh]      -7.48360564 [kcal/mol]     -31.31140598 [kJ/mol]

  Special recipe for scaled SAPT0 (see Manual):
    Electrostatics sSAPT0          -7.79913079 [mEh]      -4.89402846 [kcal/mol]     -20.47661506 [kJ/mol]
    Exchange sSAPT0                -0.00022224 [mEh]      -0.00013946 [kcal/mol]      -0.00058349 [kJ/mol]
    Induction sSAPT0               -2.88581087 [mEh]      -1.81087366 [kcal/mol]      -7.57669541 [kJ/mol]
    Dispersion sSAPT0              -1.24072081 [mEh]      -0.77856406 [kcal/mol]      -3.25751203 [kJ/mol]
  Total sSAPT0                    -11.92588471 [mEh]      -7.48360564 [kcal/mol]     -31.31140598 [kJ/mol]
  --------------------------------------------------------------------------------------------------------

*** Psi4 exiting successfully. Buy a developer a beer!
