                               Psi4 1.9 release

  ==> Input File <==

--------------------------------------------------------------------------
memory 64 GB # how much memory is available ! Depends on the nodes/cores !

molecule dimer {
# monomer A
+1 1    # Charge and multiplicity
C  0.680067 -1.215929 3.808042
C -0.680504 -1.215545 3.806014
N -1.085635  0.102779 3.805016
C  0.000108  0.884180 3.801740
C -2.477365  0.570758 3.755610
N  1.085222  0.102779 3.805016
H  1.385146 -2.033368 3.815870
H -1.385302 -2.033214 3.806204
H -0.000009  1.965269 3.799993
C  2.478117  0.567877 3.821908
H  2.490592  1.658130 3.794563
H  2.967028  0.220701 4.735354
H  3.001428  0.176405 2.946425
H -2.857359  0.490799 2.733539
H -3.082679 -0.042306 4.425694
H -2.518128  1.610706 4.082594
--
# monomer B
0 1     # Charge and multiplicity
C   -3.66844126402057      7.80375217008252      0.00190004133558
C   -4.84759871934653      7.13124183134024     -0.00046653359696
C   -4.89495929917518      5.69633040353158     -0.00103944469517
C   -3.65374067877320      4.98073034095895      0.00662099703436
C   -2.40942512149445      7.11398103667468      0.00209438359570
C   -2.42547734410473      5.68112195090346     -0.00491050527438
C   -1.19474401643570      7.78614419430947      0.00356656413763
C   0.03795902893699      7.09942164575698      0.00139585983271
C   0.03033258741920      5.66948955970466     -0.00408752508301
C   -1.20098450790502      4.96927034791531      0.00488220885047
C   1.27795782581485      7.77285944319479      0.00277170839332
C   2.48535808472416      7.08769688523756      0.00049722048857
C   2.48612868491717      5.65477081024076     -0.00644052849921
C   1.25408291964399      4.95607811366431      0.00518741308898
C   3.75171459140595      7.76391215098033      0.00062407186893
C   4.92356605618520      7.07878077698995     -0.00143240883900
C   4.95560727132542      5.64344746336949     -0.00159282164606
C   3.70680153420475      4.94121020833308      0.00349873852374
H   -3.65852113775815      8.89082741913536      0.00358502958574
H   -1.18921332975660      8.87412108735996      0.00753844057883
H   1.28429423888630      8.86083343548850      0.00693053253426
H   3.75354208679975      8.85103527897216      0.00214659618464
H   5.86995870320703      7.61379483465560     -0.00235777588134
H   -5.78823170750226      7.67630221293400     -0.00202638095293
C   -6.09197395869619      4.99326001364347     -0.00291168518608
C   -6.12866148031747      3.58258016879823     -0.00171050815740
C   -3.66457974004527      3.56418217974434     -0.00463560277484
C   -4.89429820469869      2.86108077590057      0.00453338221034
C   -2.43733499489796      2.84761165708481      0.00719617576166
C   -1.20922785759670      3.54788693497833     -0.00648285103018
C   1.24714157216223      3.53468075142962     -0.00729145743546
C   0.01517603956900      2.83311183930540      0.00439272578912
C   2.46764517244071      2.82128997725533      0.00449278391269
C   3.70254947457969      3.52466015442405     -0.00899517692985
C   6.14498038638375      4.92757236613191     -0.00282626685777
C   6.16658835886151      3.51658447594213     -0.00065971342101
C   4.92460995845939      2.80840792535402      0.00587903281610
H   7.08990550964105      5.46688776622306     -0.00658814770723
H   -7.03104175110130      5.54268795285765     -0.00714490013730
C   -7.33969804112295      2.85841153457957     -0.00333767559888
C   -7.36488195805880      1.47032337158330     -0.00157213747140
C   -4.90350460894690      1.44442681216000     -0.00628840166334
C   -6.13225715261081      0.73993935705394      0.00600164231964
C   -3.67687480051673      0.72669714267312      0.00433931473643
C   -2.44565658606518      1.42964113326212     -0.00597039546461
C   -1.22360068130162      0.71532450163492      0.00545886906656
C   0.00763786931376      1.41738314923765      0.00392452278437
C   1.23121980774686      0.70211669058719     -0.01490206287210
C   2.46082110053113      1.40329203612573      0.00460244601878
C   3.68443025419614      0.68719842821222      0.00377365974158
C   4.91870890153864      1.39173456118907     -0.00862816189375
C   7.36980207796101      2.77948220318441     -0.00242013321349
C   7.38016266612146      1.39121750785509     -0.00087345036788
C   6.13979953912259      0.67411862320065      0.00545489144369
H   -8.27919079934664      3.40711804112415     -0.00763522772059
H   8.31511347147953      3.31811809662368     -0.00663070901292
C   -8.59175593758115      0.72483255304480     -0.00123170985383
C   -8.59902460370342     -0.63263980622873      0.00089141472904
C   -6.13981313911873     -0.67413663715361     -0.00609792660607
C   -7.38018411213749     -1.39126618958160      0.00131813493501
C   -4.91868448025621     -1.39175501803000      0.00624257154343
C   -3.68443829568458     -0.68723731573599     -0.00478966852105
C   -2.46081704024768     -1.40334517882457      0.00575341766833
C   -1.23116201232071     -0.70217386488055     -0.00636696112346
C   -0.00756962538737     -1.41741884941102      0.00108956317991
C   1.22364771588843     -0.71527537726392      0.01109518512883
C   2.44567064933149     -1.42964328900682     -0.00065482763106
C   3.67686670284649     -0.72670743155550     -0.00479541202602
C   6.13224884641929     -0.73997883984993     -0.00632338623858
C   4.90351914550401     -1.44445752054090      0.00751768830159
C   8.59901484869081      0.63260386666793     -0.00101133422380
C   8.59174548810050     -0.72485086719319      0.00072504603735
C   7.36486276438985     -1.47033266560598      0.00049486934466
H   -9.52830597181814      1.27684744919284     -0.00270163681798
H   9.54141097460619      1.17457248844457     -0.00206336648518
C   -7.36983790976868     -2.77954514593389      0.00312634335708
C   -4.92459910905015     -2.80843725734101     -0.00460528907921
C   -6.16662249566744     -3.51665219282533      0.00169655107992
C   -3.70251035970491     -3.52468154912026      0.00571878010666
C   -2.46764698511392     -2.82132596280400     -0.00632585824990
C   -0.01513347410770     -2.83314164539971     -0.00604426974092
C   -1.24712184122656     -3.53473217556300      0.00551968366725
C   1.20924506964357     -3.54791467864352      0.00805871345849
C   2.43733602215464     -2.84764173817541     -0.00608104485234
C   4.89430234377080     -2.86112296828604     -0.00526030478103
C   3.66461525504104     -3.56421984553201      0.00761911515957
C   6.12863901474565     -3.58258405771778      0.00096495711699
C   7.33967266469532     -2.85841330737039      0.00248018319869
H   -9.54144911125902     -1.17456346666430      0.00226083090216
H   9.52826186807155     -1.27691907390448      0.00197485379837
H   -8.31516504384864     -3.31814985321231      0.00729857188773
H   8.27915514249207     -3.40714078989363      0.00681973918158
C   -6.14499418870218     -4.92764727278338      0.00302254913999
C   -3.70678334799751     -4.94126171411716     -0.00679841894792
C   -4.95559005800169     -5.64349397349412      0.00116871569699
C   -2.48612132622665     -5.65478557440947      0.00614125209662
C   -1.25405833548005     -4.95612205000132     -0.00503435388927
C   1.20101257386816     -4.96928038819302     -0.00385322963129
C   -0.03033667441341     -5.66952030313900      0.00398997003238
C   3.65375010132847     -4.98074377541453     -0.00309522988330
C   2.42549269587528     -5.68117463552727      0.00628170066869
C   6.09196561781097     -4.99325796338655      0.00325918379042
C   4.89497644461045     -5.69634842095790      0.00202298796027
H   -7.08989238804069     -5.46699984223871      0.00742531082125
H   7.03105520920009     -5.54265853633254      0.00683896355417
C   -4.92354532219813     -7.07882109967734      0.00061394679214
C   -2.48534208823777     -7.08772807792913     -0.00189594564379
C   -3.75168589177895     -7.76394715763627     -0.00170126671874
C   -0.03794895698805     -7.09946487446944     -0.00168022049625
C   -1.27795610040136     -7.77290438466689     -0.00366491325785
C   2.40944432072629     -7.11402201200282     -0.00081701968533
C   1.19474993715296     -7.78618536556242     -0.00296931056689
C   4.84762105249800     -7.13126211057943      0.00168979497423
C   3.66847160587561     -7.80378799294376     -0.00065863938960
H   -5.86994035041618     -7.61383059804164      0.00215798365757
H   5.78824962538815     -7.67633218931421      0.00281691445618
H   -3.75352693944918     -8.85107156923607     -0.00353718114765
H   -1.28430440589466     -8.86087539249706     -0.00809229711623
H   1.18922157469537     -8.87416062058945     -0.00706194725726
H   3.65854661482387     -8.89086063405326     -0.00231318081200

    units angstrom      # Angstroms are the default
    no_reorient         # Geometry fixed, default
    symmetry c1         # C1 symmetry, default
}

set {
    scf_type DF         # Density fitting, faster than exact integrals
    freeze_core True    # Freeze core electrons
    basis jun-cc-pVDZ   # Jun-cc-pVDZ basis set, recommended for sSAPT0 in https://doi.org/10.1063/1.4867135
}

energy('ssapt0')        # Compute sSAPT0 energy, includes also SAPT0
--------------------------------------------------------------------------

  //              Dimer HF             //
    Molecular point group: c1
  Charge       = 1
  Multiplicity = 1
  Basis Set: JUN-CC-PVDZ
    Blend: JUN-CC-PVDZ
  Basis Set: (JUN-CC-PVDZ AUX)
    Blend: JUN-CC-PVDZ-JKFIT
  @DF-RHF Final Energy: -3953.66098680451478
    Total Energy =                      -3953.6609868045161420
 Dipole X            :          0.0018520            0.0004804            0.0023324
 Dipole Y            :         -1.6161368            1.8866171            0.2704803
 Dipole Z            :        -18.0706888           23.0216353            4.9509465
 Magnitude           :                                                    4.9583300
  //            Monomer A HF           //
    Molecular point group: c1
  Multiplicity = 1
  Basis Set: JUN-CC-PVDZ
    Blend: JUN-CC-PVDZ
  Basis Set: (JUN-CC-PVDZ AUX)
    Blend: JUN-CC-PVDZ-JKFIT
  @DF-RHF Final Energy:  -303.29881328892321
    Total Energy =                       -303.2988132889232133
  //            Monomer B HF           //
    Molecular point group: c1

    Geometry (in Angstrom), charge = 0, multiplicity = 1:

       Center              X                  Y                   Z               Mass
    ------------   -----------------  -----------------  -----------------  -----------------
      Gh(C)           0.680062820275    -1.215917226251     3.518318241726    12.000000000000
      Gh(C)          -0.680508179725    -1.215533226251     3.516290241726    12.000000000000
      Gh(N)          -1.085639179725     0.102790773749     3.515292241726    14.003074004430
      Gh(C)           0.000103820275     0.884191773749     3.512016241726    12.000000000000
      Gh(C)          -2.477369179725     0.570769773749     3.465886241726    12.000000000000
      Gh(N)           1.085217820275     0.102790773749     3.515292241726    14.003074004430
      Gh(H)           1.385141820275    -2.033356226251     3.526146241726     1.007825032230
      Gh(H)          -1.385306179725    -2.033202226251     3.516480241726     1.007825032230
      Gh(H)          -0.000013179725     1.965280773749     3.510269241726     1.007825032230
      Gh(C)           2.478112820275     0.567888773749     3.532184241726    12.000000000000
      Gh(H)           2.490587820275     1.658141773750     3.504839241726     1.007825032230
      Gh(H)           2.967023820275     0.220712773749     4.445630241726     1.007825032230
      Gh(H)           3.001423820275     0.176416773749     2.656701241726     1.007825032230
      Gh(H)          -2.857363179725     0.490810773749     2.443815241726     1.007825032230
      Gh(H)          -3.082683179725    -0.042294226251     4.135970241726     1.007825032230
      Gh(H)          -2.518132179725     1.610717773749     3.792870241726     1.007825032230
         C           -3.668445443746     7.803763943832    -0.287823716939    12.000000000000
         C           -4.847602899072     7.131253605090    -0.290190291871    12.000000000000
         C           -4.894963478901     5.696342177281    -0.290763202969    12.000000000000
         C           -3.653744858499     4.980742114708    -0.283102761240    12.000000000000
         C           -2.409429301220     7.113992810424    -0.287629374679    12.000000000000
         C           -2.425481523830     5.681133724653    -0.294634263549    12.000000000000
         C           -1.194748196161     7.786155968059    -0.286157194137    12.000000000000
         C            0.037954849212     7.099433419506    -0.288327898442    12.000000000000
         C            0.030328407694     5.669501333454    -0.293811283357    12.000000000000
         C           -1.200988687630     4.969282121665    -0.284841549424    12.000000000000
         C            1.277953646089     7.772871216944    -0.286952049881    12.000000000000
         C            2.485353904999     7.087708658987    -0.289226537786    12.000000000000
         C            2.486124505192     5.654782583990    -0.296164286773    12.000000000000
         C            1.254078739919     4.956089887414    -0.284536345185    12.000000000000
         C            3.751710411681     7.763923924730    -0.289099686405    12.000000000000
         C            4.923561876460     7.078792550739    -0.291156167113    12.000000000000
         C            4.955603091600     5.643459237119    -0.291316579920    12.000000000000
         C            3.706797354479     4.941221982083    -0.286225019751    12.000000000000
         H           -3.658525317484     8.890839192885    -0.286138728689     1.007825032230
         H           -1.189217509482     8.874132861109    -0.282185317695     1.007825032230
         H            1.284290059161     8.860845209238    -0.282793225740     1.007825032230
         H            3.753537907074     8.851047052722    -0.287577162090     1.007825032230
         H            5.869954523482     7.613806608405    -0.292081534156     1.007825032230
         H           -5.788235887228     7.676313986684    -0.291750139227     1.007825032230
         C           -6.091978138422     4.993271787393    -0.292635443460    12.000000000000
         C           -6.128665660043     3.582591942548    -0.291434266432    12.000000000000
         C           -3.664583919771     3.564193953494    -0.294359361049    12.000000000000
         C           -4.894302384424     2.861092549650    -0.285190376064    12.000000000000
         C           -2.437339174623     2.847623430834    -0.282527582513    12.000000000000
         C           -1.209232037322     3.547898708728    -0.296206609304    12.000000000000
         C            1.247137392437     3.534692525179    -0.297015215710    12.000000000000
         C            0.015171859844     2.833123613055    -0.285331032485    12.000000000000
         C            2.467640992715     2.821301751005    -0.285230974362    12.000000000000
         C            3.702545294854     3.524671928174    -0.298718935204    12.000000000000
         C            6.144976206658     4.927584139881    -0.292550025132    12.000000000000
         C            6.166584179136     3.516596249692    -0.290383471695    12.000000000000
         C            4.924605778734     2.808419699104    -0.283844725458    12.000000000000
         H            7.089901329916     5.466899539973    -0.296311905982     1.007825032230
         H           -7.031045930827     5.542699726607    -0.296868658412     1.007825032230
         C           -7.339702220848     2.858423308329    -0.293061433873    12.000000000000
         C           -7.364886137784     1.470335145333    -0.291295895746    12.000000000000
         C           -4.903508788672     1.444438585909    -0.296012159938    12.000000000000
         C           -6.132261332336     0.739951130803    -0.283722115955    12.000000000000
         C           -3.676878980242     0.726708916423    -0.285384443538    12.000000000000
         C           -2.445660765791     1.429652907012    -0.295694153739    12.000000000000
         C           -1.223604861027     0.715336275384    -0.284264889208    12.000000000000
         C            0.007633689588     1.417394922987    -0.285799235490    12.000000000000
         C            1.231215628021     0.702128464337    -0.304625821146    12.000000000000
         C            2.460816920806     1.403303809875    -0.285121312256    12.000000000000
         C            3.684426074471     0.687210201962    -0.285950098533    12.000000000000
         C            4.918704721813     1.391746334939    -0.298351920168    12.000000000000
         C            7.369797898236     2.779493976934    -0.292143891488    12.000000000000
         C            7.380158486396     1.391229281605    -0.290597208642    12.000000000000
         C            6.139795359397     0.674130396950    -0.284268866831    12.000000000000
         H           -8.279194979072     3.407129814874    -0.297358985995     1.007825032230
         H            8.315109291754     3.318129870373    -0.296354467287     1.007825032230
         C           -8.591760117307     0.724844326794    -0.290955468128    12.000000000000
         C           -8.599028783429    -0.632628032479    -0.288832343545    12.000000000000
         C           -6.139817318844    -0.674124863404    -0.295821684880    12.000000000000
         C           -7.380188291863    -1.391254415832    -0.288405623339    12.000000000000
         C           -4.918688659982    -1.391743244281    -0.283481186731    12.000000000000
         C           -3.684442475410    -0.687225541986    -0.294513426795    12.000000000000
         C           -2.460821219973    -1.403333405075    -0.283970340606    12.000000000000
         C           -1.231166192046    -0.702162091131    -0.296090719398    12.000000000000
         C           -0.007573805113    -1.417407075662    -0.288634195094    12.000000000000
         C            1.223643536163    -0.715263603514    -0.278628573145    12.000000000000
         C            2.445666469606    -1.429631515257    -0.290378585905    12.000000000000
         C            3.676862523121    -0.726695657806    -0.294519170300    12.000000000000
         C            6.132244666694    -0.739967066100    -0.296047144513    12.000000000000
         C            4.903514965779    -1.444445746791    -0.282206069973    12.000000000000
         C            8.599010668965     0.632615640417    -0.290735092498    12.000000000000
         C            8.591741308375    -0.724839093444    -0.288998712237    12.000000000000
         C            7.364858584664    -1.470320891856    -0.289228888930    12.000000000000
         H           -9.528310151544     1.276859222942    -0.292425395092     1.007825032230
         H            9.541406794881     1.174584262194    -0.291787124759     1.007825032230
         C           -7.369842089494    -2.779533372184    -0.286597414917    12.000000000000
         C           -4.924603288776    -2.808425483592    -0.294329047353    12.000000000000
         C           -6.166626675393    -3.516640419076    -0.288027207194    12.000000000000
         C           -3.702514539430    -3.524669775371    -0.284004978168    12.000000000000
         C           -2.467651164839    -2.821314189055    -0.296049616524    12.000000000000
         C           -0.015137653833    -2.833129871650    -0.295768028015    12.000000000000
         C           -1.247126020952    -3.534720401814    -0.284204074607    12.000000000000
         C            1.209240889918    -3.547902904894    -0.281665044816    12.000000000000
         C            2.437331842429    -2.847629964426    -0.295804803127    12.000000000000
         C            4.894298164045    -2.861111194537    -0.294984063055    12.000000000000
         C            3.664611075316    -3.564208071783    -0.282104643115    12.000000000000
         C            6.128634835020    -3.582572283968    -0.288758801157    12.000000000000
         C            7.339668484970    -2.858401533621    -0.287243575076    12.000000000000
         H           -9.541453290984    -1.174551692915    -0.287462927372     1.007825032230
         H            9.528257688346    -1.276907300155    -0.287748904476     1.007825032230
         H           -8.315169223574    -3.318138079463    -0.282425186387     1.007825032230
         H            8.279150962767    -3.407129016144    -0.282904019093     1.007825032230
         C           -6.144998368428    -4.927635499034    -0.286701209134    12.000000000000
         C           -3.706787527723    -4.941249940368    -0.296522177222    12.000000000000
         C           -4.955594237727    -5.643482199745    -0.288555042577    12.000000000000
         C           -2.486125505952    -5.654773800660    -0.283582506178    12.000000000000
         C           -1.254062515205    -4.956110276252    -0.294758112164    12.000000000000
         C            1.201008394143    -4.969268614444    -0.293576987906    12.000000000000
         C           -0.030340854139    -5.669508529390    -0.285733788242    12.000000000000
         C            3.653745921603    -4.980732001665    -0.292818988158    12.000000000000
         C            2.425488516150    -5.681162861778    -0.283442057606    12.000000000000
         C            6.091961438086    -4.993246189637    -0.286464574484    12.000000000000
         C            4.894972264885    -5.696336647208    -0.287700770314    12.000000000000
         H           -7.089896567766    -5.466988068489    -0.282298447453     1.007825032230
         H            7.031051029475    -5.542646762583    -0.282884794720     1.007825032230
         C           -4.923549501924    -7.078809325928    -0.289109811482    12.000000000000
         C           -2.485346267963    -7.087716304180    -0.291619703918    12.000000000000
         C           -3.751690071504    -7.763935383887    -0.291425024993    12.000000000000
         C           -0.037953136713    -7.099453100720    -0.291403978771    12.000000000000
         C           -1.277960280127    -7.772892610917    -0.293388671532    12.000000000000
         C            2.409440141001    -7.114010238253    -0.290540777960    12.000000000000
         C            1.194745757428    -7.786173591813    -0.292693068841    12.000000000000
         C            4.847616872773    -7.131250336830    -0.288033963300    12.000000000000
         C            3.668467426150    -7.803776219194    -0.290382397664    12.000000000000
         H           -5.869944530142    -7.613818824292    -0.287565774617     1.007825032230
         H            5.788245445663    -7.676320415565    -0.286906843818     1.007825032230
         H           -3.753531119175    -8.851059795487    -0.293260939422     1.007825032230
         H           -1.284308585620    -8.860863618748    -0.297816055391     1.007825032230
         H            1.189217394970    -8.874148846840    -0.296785705532     1.007825032230
         H            3.658542435098    -8.890848860304    -0.292036939086     1.007825032230

  Charge       = 0
  Multiplicity = 1
  Basis Set: JUN-CC-PVDZ
    Blend: JUN-CC-PVDZ
  Basis Set: (JUN-CC-PVDZ AUX)
    Blend: JUN-CC-PVDZ-JKFIT

    Orbital Energies [Eh]
    ---------------------

    Doubly Occupied:

       1A    -11.264045     2A    -11.263714     3A    -11.263679
       4A    -11.263315     5A    -11.263312     6A    -11.263233
       7A    -11.263122     8A    -11.263115     9A    -11.263069
      10A    -11.262870    11A    -11.262753    12A    -11.262725
      13A    -11.262249    14A    -11.262240    15A    -11.262208
      16A    -11.262182    17A    -11.262089    18A    -11.262073
      19A    -11.262036    20A    -11.261986    21A    -11.261981
      22A    -11.261871    23A    -11.261866    24A    -11.261711
      25A    -11.261703    26A    -11.261680    27A    -11.261676
      28A    -11.261636    29A    -11.261628    30A    -11.261533
      31A    -11.261514    32A    -11.261513    33A    -11.261506
      34A    -11.261492    35A    -11.261476    36A    -11.261466
      37A    -11.261286    38A    -11.261276    39A    -11.261271
      40A    -11.261266    41A    -11.261254    42A    -11.261251
      43A    -11.261239    44A    -11.261225    45A    -11.261219
      46A    -11.261195    47A    -11.261192    48A    -11.261183
      49A    -11.261038    50A    -11.261013    51A    -11.260983
      52A    -11.260946    53A    -11.260904    54A    -11.260865
      55A    -11.259858    56A    -11.259847    57A    -11.259838
      58A    -11.259815    59A    -11.259808    60A    -11.259793
      61A    -11.259231    62A    -11.259207    63A    -11.259199
      64A    -11.259151    65A    -11.259146    66A    -11.259117
      67A    -11.258860    68A    -11.258844    69A    -11.258837
      70A    -11.258814    71A    -11.258807    72A    -11.258795
      73A    -11.254488    74A    -11.254486    75A    -11.254482
      76A    -11.254480    77A    -11.254471    78A    -11.254471
      79A    -11.253610    80A    -11.253605    81A    -11.253594
      82A    -11.253593    83A    -11.253591    84A    -11.253590
      85A    -11.253526    86A    -11.253521    87A    -11.253509
      88A    -11.253508    89A    -11.253506    90A    -11.253505
      91A    -11.253016    92A    -11.253014    93A    -11.253010
      94A    -11.253008    95A    -11.252999    96A    -11.252999
      97A     -1.253831    98A     -1.238913    99A     -1.238887
     100A     -1.220382   101A     -1.220374   102A     -1.215338
     103A     -1.200970   104A     -1.195525   105A     -1.188051
     106A     -1.188032   107A     -1.173693   108A     -1.173690
     109A     -1.155532   110A     -1.155530   111A     -1.152613
     112A     -1.144654   113A     -1.144653   114A     -1.128480
     115A     -1.114616   116A     -1.113094   117A     -1.112393
     118A     -1.112364   119A     -1.111554   120A     -1.088340
     121A     -1.088325   122A     -1.076896   123A     -1.076894
     124A     -1.067527   125A     -1.067489   126A     -1.064871
     127A     -1.046719   128A     -1.046708   129A     -1.040396
     130A     -1.038672   131A     -1.038666   132A     -1.025139
     133A     -1.021279   134A     -1.021217   135A     -1.007100
     136A     -1.006717   137A     -1.003716   138A     -1.000396
     139A     -1.000342   140A     -0.991015   141A     -0.970899
     142A     -0.970845   143A     -0.955812   144A     -0.955754
     145A     -0.905489   146A     -0.905471   147A     -0.905446
     148A     -0.905438   149A     -0.904210   150A     -0.892250
     151A     -0.892192   152A     -0.890257   153A     -0.890205
     154A     -0.889356   155A     -0.872146   156A     -0.869002
     157A     -0.851460   158A     -0.847760   159A     -0.847747
     160A     -0.845493   161A     -0.842916   162A     -0.834474
     163A     -0.834462   164A     -0.828053   165A     -0.828044
     166A     -0.784467   167A     -0.784459   168A     -0.783563
     169A     -0.783549   170A     -0.782193   171A     -0.782173
     172A     -0.781931   173A     -0.766903   174A     -0.760680
     175A     -0.750473   176A     -0.733414   177A     -0.726990
     178A     -0.726956   179A     -0.724985   180A     -0.724459
     181A     -0.724427   182A     -0.718381   183A     -0.713667
     184A     -0.713661   185A     -0.699496   186A     -0.699474
     187A     -0.686011   188A     -0.685878   189A     -0.685869
     190A     -0.682087   191A     -0.682081   192A     -0.678686
     193A     -0.653542   194A     -0.650785   195A     -0.650753
     196A     -0.649699   197A     -0.649695   198A     -0.649488
     199A     -0.640827   200A     -0.640782   201A     -0.640003
     202A     -0.639085   203A     -0.635926   204A     -0.635892
     205A     -0.629048   206A     -0.617712   207A     -0.615230
     208A     -0.615203   209A     -0.608714   210A     -0.608708
     211A     -0.599111   212A     -0.599080   213A     -0.598649
     214A     -0.598493   215A     -0.598480   216A     -0.597929
     217A     -0.594988   218A     -0.594974   219A     -0.594632
     220A     -0.594111   221A     -0.591858   222A     -0.591855
     223A     -0.587272   224A     -0.577734   225A     -0.577717
     226A     -0.575665   227A     -0.575658   228A     -0.573293
     229A     -0.569545   230A     -0.568037   231A     -0.568010
     232A     -0.566657   233A     -0.566650   234A     -0.560848
     235A     -0.558624   236A     -0.558584   237A     -0.558359
     238A     -0.554275   239A     -0.550527   240A     -0.547409
     241A     -0.544221   242A     -0.534987   243A     -0.534963
     244A     -0.533448   245A     -0.533433   246A     -0.527997
     247A     -0.527980   248A     -0.527674   249A     -0.517060
     250A     -0.517031   251A     -0.515305   252A     -0.515300
     253A     -0.509559   254A     -0.509548   255A     -0.497935
     256A     -0.496363   257A     -0.496322   258A     -0.493759
     259A     -0.493731   260A     -0.489391   261A     -0.481369
     262A     -0.477363   263A     -0.477362   264A     -0.473905
     265A     -0.469329   266A     -0.466422   267A     -0.466420
     268A     -0.458752   269A     -0.446554   270A     -0.446502
     271A     -0.440978   272A     -0.440721   273A     -0.440689
     274A     -0.434634   275A     -0.433846   276A     -0.407316
     277A     -0.407294   278A     -0.386345   279A     -0.386287
     280A     -0.385673   281A     -0.385671   282A     -0.383692
     283A     -0.354259   284A     -0.354232   285A     -0.350600
     286A     -0.338041   287A     -0.335535   288A     -0.335479
     289A     -0.332652   290A     -0.332646   291A     -0.306994
     292A     -0.301873   293A     -0.301807   294A     -0.300772
     295A     -0.286104   296A     -0.256421   297A     -0.253423
     298A     -0.253375   299A     -0.204196   300A     -0.204109

  @DF-RHF Final Energy: -3650.34151134670947

   => Energetics <=

    Nuclear Repulsion Energy =          15611.4211649754324753
    One-Electron Energy =              -36072.1914025749210850
    Two-Electron Energy =               16810.4287262527795974
    Total Energy =                      -3650.3415113467090123
 Dipole X            :          0.0001201            0.0002112            0.0003313
 Dipole Y            :          0.0041308           -0.0044281           -0.0002973
 Dipole Z            :        328.4876362         -328.4957412           -0.0081050
 Magnitude           :                                                    0.0081172

    SAPT Results
  --------------------------------------------------------------------------------------------------------
    Electrostatics                -15.18022395 [mEh]      -9.52573434 [kcal/mol]     -39.85567249 [kJ/mol]
      Elst10,r                    -15.18022395 [mEh]      -9.52573434 [kcal/mol]     -39.85567249 [kJ/mol]

    Exchange                        7.33805881 [mEh]       4.60470142 [kcal/mol]      19.26607076 [kJ/mol]
      Exch10                        7.33805881 [mEh]       4.60470142 [kcal/mol]      19.26607076 [kJ/mol]
      Exch10(S^2)                   7.33238043 [mEh]       4.60113819 [kcal/mol]      19.25116217 [kJ/mol]

    Induction                     -12.82000375 [mEh]      -8.04467380 [kcal/mol]     -33.65891520 [kJ/mol]
      Ind20,r                     -13.71143446 [mEh]      -8.60405503 [kcal/mol]     -35.99936623 [kJ/mol]
      Exch-Ind20,r                  2.01521696 [mEh]       1.26456773 [kcal/mol]       5.29095139 [kJ/mol]
      delta HF,r (2)               -1.12378624 [mEh]      -0.70518651 [kcal/mol]      -2.95050036 [kJ/mol]

    Dispersion                    -23.39041527 [mEh]     -14.67770718 [kcal/mol]     -61.41152683 [kJ/mol]
      Disp20                      -24.36765010 [mEh]     -15.29093129 [kcal/mol]     -63.97725653 [kJ/mol]
      Exch-Disp20                   0.97723483 [mEh]       0.61322412 [kcal/mol]       2.56572970 [kJ/mol]
      Disp20 (SS)                 -12.18382505 [mEh]      -7.64546565 [kcal/mol]     -31.98862826 [kJ/mol]
      Disp20 (OS)                 -12.18382505 [mEh]      -7.64546565 [kcal/mol]     -31.98862826 [kJ/mol]
      Exch-Disp20 (SS)              0.61039254 [mEh]       0.38302710 [kcal/mol]       1.60258539 [kJ/mol]
      Exch-Disp20 (OS)              0.36684229 [mEh]       0.23019702 [kcal/mol]       0.96314431 [kJ/mol]

  Total HF                        -20.66216888 [mEh]     -12.96570672 [kcal/mol]     -54.24851693 [kJ/mol]
  Total SAPT0                     -44.05258415 [mEh]     -27.64341390 [kcal/mol]    -115.66004376 [kJ/mol]

  Special recipe for scaled SAPT0 (see Manual):
    Electrostatics sSAPT0         -15.18022395 [mEh]      -9.52573434 [kcal/mol]     -39.85567249 [kJ/mol]
    Exchange sSAPT0                 7.33805881 [mEh]       4.60470142 [kcal/mol]      19.26607076 [kJ/mol]
    Induction sSAPT0              -12.81531821 [mEh]      -8.04173359 [kcal/mol]     -33.64661333 [kJ/mol]
    Dispersion sSAPT0             -23.38814312 [mEh]     -14.67628138 [kcal/mol]     -61.40556131 [kJ/mol]
  Total sSAPT0                    -44.04562647 [mEh]     -27.63904789 [kcal/mol]    -115.64177638 [kJ/mol]
  --------------------------------------------------------------------------------------------------------

*** Psi4 exiting successfully. Buy a developer a beer!
