                               Psi4 1.9 release

  ==> Input File <==

--------------------------------------------------------------------------
memory 32 GB # how much memory is available ! Depends on the nodes/cores !

molecule dimer {
# monomer A
-1 1    # Charge and multiplicity
B -0.000046  0.000337 2.599994
F -1.153597  0.000048 3.415641
F  1.153661 -0.000581 3.415641
F -0.000019 -1.153637 1.784360
F -0.000019  1.153978 1.784360
--
# monomer B
0 1     # Charge and multiplicity
C   1.22531237526482      0.70753866091955      0.00613762728373
C   1.22532433589282     -0.70753852257020     -0.00619318228664
C   -0.00000567409046      1.41496628609039     -0.00672680580738
C   2.45644923379077      1.41832825917820      0.00902448468363
C   0.00001130712078     -1.41497612663474      0.00347275151708
C   -1.22530046906674      0.70754574598412      0.00838914760619
C   2.45643823516184     -1.41832293188077     -0.00843833914343
C   -0.00000085313587      2.83680140328112     -0.00913035594137
C   3.68182717731192      0.70931832800114     -0.00808954934571
C   2.45512052870677      2.83422403348893     -0.00819210630633
C   3.68182158506039     -0.70933346742900      0.00798293467272
C   -1.22531311884624     -0.70752714354401     -0.00512042085974
C   1.22670006104402      3.54346985599427      0.00816696660346
C   0.00000526469929     -2.83678176723568      0.00832091913869
C   -2.45643555300670      1.41831729028492      0.00842454345199
C   2.45512389762097     -2.83422965658853      0.00783102630520
C   -1.22671388474763      3.54346943575023      0.00827029982280
C   4.91451777504333      1.42717324448953     -0.00160886631602
C   3.69315067131765      3.54279566454522     -0.00155906667985
C   -2.45643712022637     -1.41831290883911     -0.00846337726810
C   1.22670532178455     -3.54347386990643     -0.00780316414624
C   -2.45512491866593      2.83421703463423     -0.00818572995999
C   4.91452486062398     -1.42718653794377      0.00136387641845
C   1.22142509354026      4.97013443726031      0.00150231067809
C   4.89300870916237      2.82518837202648     -0.00039219795739
C   -1.22669652864725     -3.54347062507680     -0.00753595973677
C   -3.68181849668397      0.70932533873199     -0.00807686886569
C   3.69314758099218     -3.54280096939050      0.00148176697923
C   -1.22143177215231      4.97012866986289      0.00168580605083
C   6.13477145276790      0.68054831910577     -0.00083909176631
C   3.65678936045204      4.97295361556775     -0.00065042889723
C   -2.45512642789169     -2.83421472106065      0.00758666850712
C   -3.68181869921921     -0.70932533146830      0.00810055625144
C   4.89301309775526     -2.82519973363176      0.00021895393805
C   -0.00000059327114      5.65044773803267      0.00045449734393
C   6.13477559217374     -0.68055448207492      0.00042622874941
C   2.47813196269732      5.65357712333155      0.00063835075260
C   1.22142288457925     -4.97012668293268     -0.00129718634452
C   -3.69316190412301      3.54279732619245     -0.00139355922051
C   -1.22142804110313     -4.97011793159564     -0.00140994817719
C   -4.91452132810043      1.42717581899491     -0.00153192130862
C   3.65678749952045     -4.97295485423912      0.00080007163680
C   -2.47813805026426      5.65357479452875      0.00092287576113
C   -3.69314125872231     -3.54278984697859      0.00136564082345
C   -4.91451200321153     -1.42718062802730      0.00139857359209
C   -0.00000552908399     -5.65043791501335      0.00005899322272
C   -4.89302000425900      2.82518897091939     -0.00040227981744
C   2.47812647313991     -5.65357317188818     -0.00029052915548
C   -3.65679823041642      4.97295655404175     -0.00047374852278
C   -4.89299899901461     -2.82519139505969      0.00006491824035
C   -2.47812801824129     -5.65356579800621     -0.00056571680280
C   -6.13477002348955      0.68054913825639     -0.00086464346868
C   -3.65678835334731     -4.97294365097028      0.00058578382008
C   -6.13476456307132     -0.68055354348201      0.00040575295444
H   5.83528897565761      3.36927626695423      0.00396712770529
H   7.07385965258860      1.22821762089947     -0.00037744837300
H   4.60066374401555      5.51238117445323     -0.00014522814529
H   5.83528386714679     -3.36930568472863     -0.00423551337640
H   -0.00001167146422      6.73853104613662     -0.00389474766392
H   7.07386165167227     -1.22822657074368     -0.00008250934481
H   2.47331421164041      6.74068466339473      0.00017162982210
H   4.60066897122302     -5.51237575717576      0.00039007446835
H   -2.47331820069565      6.74068209160650      0.00047297644710
H   -0.00000978838621     -6.73852780445195      0.00458867820736
H   -5.83530143450167      3.36927132229595      0.00410314985360
H   2.47330840367253     -6.74068500242887      0.00027980126949
H   -4.60067436136587      5.51237839860371      0.00002010017831
H   -5.83527902699321     -3.36928859177951     -0.00451481925734
H   -2.47329986759855     -6.74067870613986     -0.00016951527498
H   -7.07385728692578      1.22822084484047     -0.00046143985387
H   -4.60067330624313     -5.51236229778631      0.00021776644566
H   -7.07385645456741     -1.22822025997701     -0.00017736581114

    units angstrom      # Angstroms are the default
    no_reorient         # Geometry fixed, default
    symmetry c1         # C1 symmetry, default
}

set {
    scf_type DF         # Density fitting, faster than exact integrals
    freeze_core True    # Freeze core electrons
    basis jun-cc-pVDZ   # Jun-cc-pVDZ basis set, recommended for sSAPT0 in https://doi.org/10.1063/1.4867135
}

energy('ssapt0')        # Compute sSAPT0 energy, includes also SAPT0
--------------------------------------------------------------------------

  //              Dimer HF             //
    Molecular point group: c1
  Charge       = -1
  Multiplicity = 1
  Basis Set: JUN-CC-PVDZ
    Blend: JUN-CC-PVDZ
  Basis Set: (JUN-CC-PVDZ AUX)
    Blend: JUN-CC-PVDZ-JKFIT
  @DF-RHF Final Energy: -2478.46731193527467
    Total Energy =                      -2478.4673119352755748
 Dipole X            :         -0.0003810           -0.0000160           -0.0003970
 Dipole Y            :         -0.0083955           -0.0001716           -0.0085672
 Dipole Z            :         13.6716961          -15.9386926           -2.2669965
 Magnitude           :                                                    2.2670128
  //            Monomer A HF           //
    Molecular point group: c1
  Multiplicity = 1
  Basis Set: JUN-CC-PVDZ
    Blend: JUN-CC-PVDZ
  Basis Set: (JUN-CC-PVDZ AUX)
    Blend: JUN-CC-PVDZ-JKFIT
  @DF-RHF Final Energy:  -422.77678759873470
    Total Energy =                       -422.7767875987346997
  //            Monomer B HF           //
    Molecular point group: c1

    Geometry (in Angstrom), charge = 0, multiplicity = 1:

       Center              X                  Y                   Z               Mass
    ------------   -----------------  -----------------  -----------------  -----------------
      Gh(B)          -0.000046449334     0.000336519434     2.299645129694    11.009305360000
      Gh(F)          -1.153597449334     0.000047519434     3.115292129694    18.998403162730
      Gh(F)           1.153660550666    -0.000581480566     3.115292129694    18.998403162730
      Gh(F)          -0.000019449334    -1.153637480566     1.484011129694    18.998403162730
      Gh(F)          -0.000019449334     1.153977519434     1.484011129694    18.998403162730
         C            1.225311925931     0.707538180353    -0.294211243022    12.000000000000
         C            1.225323886559    -0.707539003137    -0.306542052592    12.000000000000
         C           -0.000006123424     1.414965805524    -0.307075676113    12.000000000000
         C            2.456448784457     1.418327778612    -0.291324385622    12.000000000000
         C            0.000010857787    -1.414976607201    -0.296876118789    12.000000000000
         C           -1.225300918401     0.707545265418    -0.291959722700    12.000000000000
         C            2.456437785828    -1.418323412447    -0.308787209449    12.000000000000
         C           -0.000001302470     2.836800922715    -0.309479226247    12.000000000000
         C            3.681826727978     0.709317847435    -0.308438419651    12.000000000000
         C            2.455120079373     2.834223552923    -0.308540976612    12.000000000000
         C            3.681821135726    -0.709333947995    -0.292365935633    12.000000000000
         C           -1.225313568180    -0.707527624110    -0.305469291165    12.000000000000
         C            1.226699611710     3.543469375428    -0.292181903702    12.000000000000
         C            0.000004815365    -2.836782247802    -0.292027951167    12.000000000000
         C           -2.456436002341     1.418316809719    -0.291924326854    12.000000000000
         C            2.455123448287    -2.834230137155    -0.292517844001    12.000000000000
         C           -1.226714334082     3.543468955184    -0.292078570483    12.000000000000
         C            4.914517325709     1.427172763923    -0.301957736622    12.000000000000
         C            3.693150221984     3.542795183979    -0.301907936986    12.000000000000
         C           -2.456437569560    -1.418313389406    -0.308812247574    12.000000000000
         C            1.226704872451    -3.543474350473    -0.308152034452    12.000000000000
         C           -2.455125368000     2.834216554068    -0.308534600266    12.000000000000
         C            4.914524411290    -1.427187018510    -0.298984993887    12.000000000000
         C            1.221424644206     4.970133956694    -0.298846559628    12.000000000000
         C            4.893008259828     2.825187891460    -0.300741068263    12.000000000000
         C           -1.226696977981    -3.543471105643    -0.307884830042    12.000000000000
         C           -3.681818946018     0.709324858166    -0.308425739171    12.000000000000
         C            3.693147131658    -3.542801449957    -0.298867103326    12.000000000000
         C           -1.221432221486     4.970128189296    -0.298663064255    12.000000000000
         C            6.134771003434     0.680547838539    -0.301187962072    12.000000000000
         C            3.656788911118     4.972953135001    -0.300999299203    12.000000000000
         C           -2.455126877226    -2.834215201627    -0.292762201799    12.000000000000
         C           -3.681819148553    -0.709325812035    -0.292248314054    12.000000000000
         C            4.893012648421    -2.825200214198    -0.300129916368    12.000000000000
         C           -0.000001042605     5.650447257466    -0.299894372962    12.000000000000
         C            6.134775142840    -0.680554962641    -0.299922641556    12.000000000000
         C            2.478131513363     5.653576642765    -0.299710519553    12.000000000000
         C            1.221422435245    -4.970127163499    -0.301646056650    12.000000000000
         C           -3.693162353457     3.542796845626    -0.301742429526    12.000000000000
         C           -1.221428490437    -4.970118412162    -0.301758818483    12.000000000000
         C           -4.914521777434     1.427175338429    -0.301880791614    12.000000000000
         C            3.656787050187    -4.972955334806    -0.299548798669    12.000000000000
         C           -2.478138499598     5.653574313962    -0.299425994545    12.000000000000
         C           -3.693141708056    -3.542790327545    -0.298983229482    12.000000000000
         C           -4.914512452545    -1.427181108594    -0.298950296714    12.000000000000
         C           -0.000005978418    -5.650438395580    -0.300289877083    12.000000000000
         C           -4.893020453593     2.825188490353    -0.300751150123    12.000000000000
         C            2.478126023806    -5.653573652455    -0.300639399461    12.000000000000
         C           -3.656798679750     4.972956073475    -0.300822618829    12.000000000000
         C           -4.892999448349    -2.825191875626    -0.300283952065    12.000000000000
         C           -2.478128467575    -5.653566278573    -0.300914587109    12.000000000000
         C           -6.134770472823     0.680548657690    -0.301213513774    12.000000000000
         C           -3.656788802681    -4.972944131537    -0.299763086486    12.000000000000
         C           -6.134765012405    -0.680554024048    -0.299943117351    12.000000000000
         H            5.835288526324     3.369275786388    -0.296381742600     1.007825032230
         H            7.073859203255     1.228217140333    -0.300726318679     1.007825032230
         H            4.600663294682     5.512380693887    -0.300494098451     1.007825032230
         H            5.835283417813    -3.369306165295    -0.304584383682     1.007825032230
         H           -0.000012120798     6.738530565570    -0.304243617970     1.007825032230
         H            7.073861202338    -1.228227051310    -0.300431379651     1.007825032230
         H            2.473313762307     6.740684182828    -0.300177240484     1.007825032230
         H            4.600668521889    -5.512376237742    -0.299958795837     1.007825032230
         H           -2.473318650030     6.740681611040    -0.299875893859     1.007825032230
         H           -0.000010237720    -6.738528285018    -0.295760192098     1.007825032230
         H           -5.835301883836     3.369270841730    -0.296245720452     1.007825032230
         H            2.473307954339    -6.740685482995    -0.300069069036     1.007825032230
         H           -4.600674810700     5.512377918037    -0.300328770127     1.007825032230
         H           -5.835279476327    -3.369289072346    -0.304863689563     1.007825032230
         H           -2.473300316932    -6.740679186706    -0.300518385581     1.007825032230
         H           -7.073857736260     1.228220364274    -0.300810310160     1.007825032230
         H           -4.600673755577    -5.512362778353    -0.300131103860     1.007825032230
         H           -7.073856903901    -1.228220740543    -0.300526236117     1.007825032230

  Charge       = 0
  Multiplicity = 1
  Basis Set: JUN-CC-PVDZ
    Blend: JUN-CC-PVDZ
  Basis Set: (JUN-CC-PVDZ AUX)
    Blend: JUN-CC-PVDZ-JKFIT

    Orbital Energies [Eh]
    ---------------------

    Doubly Occupied:

       1A    -11.260723     2A    -11.260355     3A    -11.260161
       4A    -11.259522     5A    -11.259394     6A    -11.259247
       7A    -11.258999     8A    -11.258958     9A    -11.258893
      10A    -11.258654    11A    -11.258587    12A    -11.258483
      13A    -11.258441    14A    -11.258438    15A    -11.258422
      16A    -11.258399    17A    -11.258375    18A    -11.258365
      19A    -11.258363    20A    -11.258359    21A    -11.258354
      22A    -11.258320    23A    -11.258279    24A    -11.258091
      25A    -11.257256    26A    -11.257209    27A    -11.257181
      28A    -11.257063    29A    -11.257062    30A    -11.256981
      31A    -11.256345    32A    -11.256287    33A    -11.256264
      34A    -11.256175    35A    -11.256160    36A    -11.256121
      37A    -11.252269    38A    -11.252268    39A    -11.252255
      40A    -11.252254    41A    -11.252252    42A    -11.252250
      43A    -11.251357    44A    -11.251355    45A    -11.251350
      46A    -11.251348    47A    -11.251314    48A    -11.251313
      49A    -11.250831    50A    -11.250829    51A    -11.250816
      52A    -11.250815    53A    -11.250813    54A    -11.250811
      55A     -1.243937    56A     -1.219740    57A     -1.219705
      58A     -1.189478    59A     -1.189460    60A     -1.180839
      61A     -1.157514    62A     -1.148913    63A     -1.135392
      64A     -1.135373    65A     -1.113148    66A     -1.113136
      67A     -1.082335    68A     -1.082334    69A     -1.078507
      70A     -1.065940    71A     -1.065935    72A     -1.039333
      73A     -1.024157    74A     -1.021644    75A     -1.021616
      76A     -1.017689    77A     -1.012757    78A     -0.986932
      79A     -0.986884    80A     -0.961822    81A     -0.961780
      82A     -0.894235    83A     -0.894212    84A     -0.887827
      85A     -0.886071    86A     -0.886009    87A     -0.881309
      88A     -0.881264    89A     -0.861838    90A     -0.837386
      91A     -0.818143    92A     -0.816502    93A     -0.812054
      94A     -0.812037    95A     -0.794636    96A     -0.794629
      97A     -0.746531    98A     -0.744765    99A     -0.733311
     100A     -0.733302   101A     -0.732130   102A     -0.732103
     103A     -0.716416   104A     -0.698914   105A     -0.698908
     106A     -0.693504   107A     -0.693500   108A     -0.661171
     109A     -0.652989   110A     -0.651040   111A     -0.650208
     112A     -0.650202   113A     -0.639311   114A     -0.639305
     115A     -0.629633   116A     -0.627441   117A     -0.627414
     118A     -0.606488   119A     -0.605792   120A     -0.601573
     121A     -0.599663   122A     -0.599644   123A     -0.593567
     124A     -0.591094   125A     -0.591083   126A     -0.585250
     127A     -0.576385   128A     -0.576361   129A     -0.567285
     130A     -0.567272   131A     -0.565865   132A     -0.565836
     133A     -0.558617   134A     -0.554784   135A     -0.554782
     136A     -0.538544   137A     -0.538541   138A     -0.538157
     139A     -0.538138   140A     -0.529657   141A     -0.528196
     142A     -0.522805   143A     -0.522804   144A     -0.500452
     145A     -0.495563   146A     -0.493180   147A     -0.487806
     148A     -0.484997   149A     -0.481681   150A     -0.481675
     151A     -0.470377   152A     -0.470317   153A     -0.450914
     154A     -0.450828   155A     -0.439040   156A     -0.439038
     157A     -0.404698   158A     -0.404657   159A     -0.403325
     160A     -0.375405   161A     -0.375397   162A     -0.349089
     163A     -0.337516   164A     -0.336520   165A     -0.336447
     166A     -0.311028   167A     -0.298095   168A     -0.284253
     169A     -0.284207   170A     -0.224856   171A     -0.224789

  @DF-RHF Final Energy: -2055.89477288344006

   => Energetics <=

    Nuclear Repulsion Energy =           6452.5568002797781446
    One-Electron Energy =              -15636.5037776873959956
    Two-Electron Energy =                7128.0522045241768865
    Total Energy =                      -2055.8947728834400550
 Dipole X            :          0.0000446            0.0000112            0.0000558
 Dipole Y            :          0.0001502           -0.0000531            0.0000971
 Dipole Z            :        194.1168266         -194.1128136            0.0040131
 Magnitude           :                                                    0.0040146

    SAPT Results
  --------------------------------------------------------------------------------------------------------
    Electrostatics               -192.42146772 [mEh]    -120.74629395 [kcal/mol]    -505.20249390 [kJ/mol]
      Elst10,r                   -192.42146772 [mEh]    -120.74629395 [kcal/mol]    -505.20249390 [kJ/mol]

    Exchange                      464.38717201 [mEh]     291.40734993 [kcal/mol]    1219.24835212 [kJ/mol]
      Exch10                      464.38717201 [mEh]     291.40734993 [kcal/mol]    1219.24835212 [kJ/mol]
      Exch10(S^2)                 435.52860738 [mEh]     273.29832724 [kcal/mol]    1143.48020115 [kJ/mol]

    Induction                     -67.71715739 [mEh]     -42.49315780 [kcal/mol]    -177.79137222 [kJ/mol]
      Ind20,r                    -308.84511790 [mEh]    -193.80323742 [kcal/mol]    -810.87274534 [kJ/mol]
      Exch-Ind20,r                238.72484512 [mEh]     149.80210194 [kcal/mol]     626.77199452 [kJ/mol]
      delta HF,r (2)                2.40311540 [mEh]       1.50797768 [kcal/mol]       6.30937861 [kJ/mol]

    Dispersion                    -55.07247039 [mEh]     -34.55849692 [kcal/mol]    -144.59275110 [kJ/mol]
      Disp20                      -85.07341874 [mEh]     -53.38437622 [kcal/mol]    -223.36023012 [kJ/mol]
      Exch-Disp20                  30.00094834 [mEh]      18.82587931 [kcal/mol]      78.76747902 [kJ/mol]
      Disp20 (SS)                 -42.53670937 [mEh]     -26.69218811 [kcal/mol]    -111.68011506 [kJ/mol]
      Disp20 (OS)                 -42.53670937 [mEh]     -26.69218811 [kcal/mol]    -111.68011506 [kJ/mol]
      Exch-Disp20 (SS)             14.75663541 [mEh]       9.25992852 [kcal/mol]      38.74354092 [kJ/mol]
      Exch-Disp20 (OS)             15.24431294 [mEh]       9.56595079 [kcal/mol]      40.02393810 [kJ/mol]

  Total HF                        204.24854690 [mEh]     128.16789819 [kcal/mol]     536.25448601 [kJ/mol]
  Total SAPT0                     149.17607651 [mEh]      93.60940127 [kcal/mol]     391.66173491 [kJ/mol]

  Special recipe for scaled SAPT0 (see Manual):
    Electrostatics sSAPT0        -192.42146772 [mEh]    -120.74629395 [kcal/mol]    -505.20249390 [kJ/mol]
    Exchange sSAPT0               464.38717201 [mEh]     291.40734993 [kcal/mol]    1219.24835212 [kJ/mol]
    Induction sSAPT0              -17.04888123 [mEh]     -10.69833449 [kcal/mol]     -44.76183150 [kJ/mol]
    Dispersion sSAPT0             -48.70490386 [mEh]     -30.56278859 [kcal/mol]    -127.87470746 [kJ/mol]
  Total sSAPT0                    206.21191920 [mEh]     129.39993290 [kcal/mol]     541.40931927 [kJ/mol]
  --------------------------------------------------------------------------------------------------------

*** Psi4 exiting successfully. Buy a developer a beer!
