                               Psi4 1.9 release

  ==> Input File <==

--------------------------------------------------------------------------
memory 32 GB # how much memory is available ! Depends on the nodes/cores !

molecule dimer {
# monomer A
-1 1    # Charge and multiplicity
B -1.977592e-04  2.742729e-04 -4.599966
F  1.123153e-16  1.430594e-17 -3.187181
F  1.147860e+00  6.757812e-01 -5.071107
F  1.191806e-02 -1.332011e+00 -5.070905
F -1.159666e+00  6.560735e-01 -5.070826
--
# monomer B
0 1     # Charge and multiplicity
C   1.22531237526482      0.70753866091955      0.00613762728373
C   1.22532433589282     -0.70753852257020     -0.00619318228664
C   -0.00000567409046      1.41496628609039     -0.00672680580738
C   2.45644923379077      1.41832825917820      0.00902448468363
C   0.00001130712078     -1.41497612663474      0.00347275151708
C   -1.22530046906674      0.70754574598412      0.00838914760619
C   2.45643823516184     -1.41832293188077     -0.00843833914343
C   -0.00000085313587      2.83680140328112     -0.00913035594137
C   3.68182717731192      0.70931832800114     -0.00808954934571
C   2.45512052870677      2.83422403348893     -0.00819210630633
C   3.68182158506039     -0.70933346742900      0.00798293467272
C   -1.22531311884624     -0.70752714354401     -0.00512042085974
C   1.22670006104402      3.54346985599427      0.00816696660346
C   0.00000526469929     -2.83678176723568      0.00832091913869
C   -2.45643555300670      1.41831729028492      0.00842454345199
C   2.45512389762097     -2.83422965658853      0.00783102630520
C   -1.22671388474763      3.54346943575023      0.00827029982280
C   4.91451777504333      1.42717324448953     -0.00160886631602
C   3.69315067131765      3.54279566454522     -0.00155906667985
C   -2.45643712022637     -1.41831290883911     -0.00846337726810
C   1.22670532178455     -3.54347386990643     -0.00780316414624
C   -2.45512491866593      2.83421703463423     -0.00818572995999
C   4.91452486062398     -1.42718653794377      0.00136387641845
C   1.22142509354026      4.97013443726031      0.00150231067809
C   4.89300870916237      2.82518837202648     -0.00039219795739
C   -1.22669652864725     -3.54347062507680     -0.00753595973677
C   -3.68181849668397      0.70932533873199     -0.00807686886569
C   3.69314758099218     -3.54280096939050      0.00148176697923
C   -1.22143177215231      4.97012866986289      0.00168580605083
C   6.13477145276790      0.68054831910577     -0.00083909176631
C   3.65678936045204      4.97295361556775     -0.00065042889723
C   -2.45512642789169     -2.83421472106065      0.00758666850712
C   -3.68181869921921     -0.70932533146830      0.00810055625144
C   4.89301309775526     -2.82519973363176      0.00021895393805
C   -0.00000059327114      5.65044773803267      0.00045449734393
C   6.13477559217374     -0.68055448207492      0.00042622874941
C   2.47813196269732      5.65357712333155      0.00063835075260
C   1.22142288457925     -4.97012668293268     -0.00129718634452
C   -3.69316190412301      3.54279732619245     -0.00139355922051
C   -1.22142804110313     -4.97011793159564     -0.00140994817719
C   -4.91452132810043      1.42717581899491     -0.00153192130862
C   3.65678749952045     -4.97295485423912      0.00080007163680
C   -2.47813805026426      5.65357479452875      0.00092287576113
C   -3.69314125872231     -3.54278984697859      0.00136564082345
C   -4.91451200321153     -1.42718062802730      0.00139857359209
C   -0.00000552908399     -5.65043791501335      0.00005899322272
C   -4.89302000425900      2.82518897091939     -0.00040227981744
C   2.47812647313991     -5.65357317188818     -0.00029052915548
C   -3.65679823041642      4.97295655404175     -0.00047374852278
C   -4.89299899901461     -2.82519139505969      0.00006491824035
C   -2.47812801824129     -5.65356579800621     -0.00056571680280
C   -6.13477002348955      0.68054913825639     -0.00086464346868
C   -3.65678835334731     -4.97294365097028      0.00058578382008
C   -6.13476456307132     -0.68055354348201      0.00040575295444
H   5.83528897565761      3.36927626695423      0.00396712770529
H   7.07385965258860      1.22821762089947     -0.00037744837300
H   4.60066374401555      5.51238117445323     -0.00014522814529
H   5.83528386714679     -3.36930568472863     -0.00423551337640
H   -0.00001167146422      6.73853104613662     -0.00389474766392
H   7.07386165167227     -1.22822657074368     -0.00008250934481
H   2.47331421164041      6.74068466339473      0.00017162982210
H   4.60066897122302     -5.51237575717576      0.00039007446835
H   -2.47331820069565      6.74068209160650      0.00047297644710
H   -0.00000978838621     -6.73852780445195      0.00458867820736
H   -5.83530143450167      3.36927132229595      0.00410314985360
H   2.47330840367253     -6.74068500242887      0.00027980126949
H   -4.60067436136587      5.51237839860371      0.00002010017831
H   -5.83527902699321     -3.36928859177951     -0.00451481925734
H   -2.47329986759855     -6.74067870613986     -0.00016951527498
H   -7.07385728692578      1.22822084484047     -0.00046143985387
H   -4.60067330624313     -5.51236229778631      0.00021776644566
H   -7.07385645456741     -1.22822025997701     -0.00017736581114

    units angstrom      # Angstroms are the default
    no_reorient         # Geometry fixed, default
    symmetry c1         # C1 symmetry, default
}

set {
    scf_type DF         # Density fitting, faster than exact integrals
    freeze_core True    # Freeze core electrons
    basis jun-cc-pVDZ   # Jun-cc-pVDZ basis set, recommended for sSAPT0 in https://doi.org/10.1063/1.4867135
}

energy('ssapt0')        # Compute sSAPT0 energy, includes also SAPT0
--------------------------------------------------------------------------

  //              Dimer HF             //
    Molecular point group: c1
  Charge       = -1
  Multiplicity = 1
  Basis Set: JUN-CC-PVDZ
    Blend: JUN-CC-PVDZ
  Basis Set: (JUN-CC-PVDZ AUX)
    Blend: JUN-CC-PVDZ-JKFIT
  @DF-RHF Final Energy: -2478.66114630631955
    Total Energy =                      -2478.6611463063200063
 Dipole X            :         -0.0004334            0.0000481           -0.0003853
 Dipole Y            :          0.0008994           -0.0001453            0.0007541
 Dipole Z            :        -21.6851614           28.1996898            6.5145284
 Magnitude           :                                                    6.5145284
  //            Monomer A HF           //
    Molecular point group: c1
  Multiplicity = 1
  Basis Set: JUN-CC-PVDZ
    Blend: JUN-CC-PVDZ
  Basis Set: (JUN-CC-PVDZ AUX)
    Blend: JUN-CC-PVDZ-JKFIT
  @DF-RHF Final Energy:  -422.77217350524143
    Total Energy =                       -422.7721735052414260
  //            Monomer B HF           //
    Molecular point group: c1

    Geometry (in Angstrom), charge = 0, multiplicity = 1:

       Center              X                  Y                   Z               Mass
    ------------   -----------------  -----------------  -----------------  -----------------
      Gh(B)          -0.000198161052     0.000273808717    -4.068573316572    11.009305360000
      Gh(F)          -0.000000401852    -0.000000464183    -2.655788316572    18.998403162730
      Gh(F)           1.147859598148     0.675780735817    -4.539714316572    18.998403162730
      Gh(F)           0.011917658148    -1.332011464183    -4.539512316572    18.998403162730
      Gh(F)          -1.159666401852     0.656073035817    -4.539433316572    18.998403162730
         C            1.225311973413     0.707538196736     0.537530310712    12.000000000000
         C            1.225323934041    -0.707538986754     0.525199501141    12.000000000000
         C           -0.000006075942     1.414965821907     0.524665877621    12.000000000000
         C            2.456448831939     1.418327794995     0.540417168112    12.000000000000
         C            0.000010905269    -1.414976590818     0.534865434945    12.000000000000
         C           -1.225300870919     0.707545281801     0.539781831034    12.000000000000
         C            2.456437833310    -1.418323396064     0.522954344285    12.000000000000
         C           -0.000001254988     2.836800939098     0.522262327487    12.000000000000
         C            3.681826775460     0.709317863818     0.523303134082    12.000000000000
         C            2.455120126855     2.834223569306     0.523200577122    12.000000000000
         C            3.681821183209    -0.709333931612     0.539375618101    12.000000000000
         C           -1.225313520698    -0.707527607727     0.526272262568    12.000000000000
         C            1.226699659192     3.543469391811     0.539559650032    12.000000000000
         C            0.000004862847    -2.836782231419     0.539713602567    12.000000000000
         C           -2.456435954859     1.418316826102     0.539817226880    12.000000000000
         C            2.455123495769    -2.834230120772     0.539223709733    12.000000000000
         C           -1.226714286599     3.543468971567     0.539662983251    12.000000000000
         C            4.914517373191     1.427172780306     0.529783817112    12.000000000000
         C            3.693150269466     3.542795200362     0.529833616748    12.000000000000
         C           -2.456437522078    -1.418313373022     0.522929306160    12.000000000000
         C            1.226704919933    -3.543474334090     0.523589519282    12.000000000000
         C           -2.455125320518     2.834216570451     0.523206953468    12.000000000000
         C            4.914524458772    -1.427187002127     0.532756559847    12.000000000000
         C            1.221424691688     4.970133973077     0.532894994106    12.000000000000
         C            4.893008307311     2.825187907843     0.531000485471    12.000000000000
         C           -1.226696930499    -3.543471089260     0.523856723691    12.000000000000
         C           -3.681818898536     0.709324874549     0.523315814562    12.000000000000
         C            3.693147179140    -3.542801433574     0.532874450407    12.000000000000
         C           -1.221432174004     4.970128205680     0.533078489479    12.000000000000
         C            6.134771050916     0.680547854922     0.530553591662    12.000000000000
         C            3.656788958600     4.972953151384     0.530742254531    12.000000000000
         C           -2.455126829744    -2.834215185244     0.538979351935    12.000000000000
         C           -3.681819101071    -0.709325795652     0.539493239680    12.000000000000
         C            4.893012695903    -2.825200197815     0.531611637366    12.000000000000
         C           -0.000000995123     5.650447273849     0.531847180772    12.000000000000
         C            6.134775190322    -0.680554946258     0.531818912178    12.000000000000
         C            2.478131560845     5.653576659148     0.532031034181    12.000000000000
         C            1.221422482727    -4.970127147116     0.530095497084    12.000000000000
         C           -3.693162305975     3.542796862009     0.529999124208    12.000000000000
         C           -1.221428442955    -4.970118395779     0.529982735251    12.000000000000
         C           -4.914521729952     1.427175354812     0.529860762119    12.000000000000
         C            3.656787097669    -4.972955318422     0.532192755065    12.000000000000
         C           -2.478138452116     5.653574330345     0.532315559189    12.000000000000
         C           -3.693141660574    -3.542790311162     0.532758324252    12.000000000000
         C           -4.914512405063    -1.427181092211     0.532791257020    12.000000000000
         C           -0.000005930936    -5.650438379197     0.531451676651    12.000000000000
         C           -4.893020406111     2.825188506736     0.530990403611    12.000000000000
         C            2.478126071288    -5.653573636072     0.531102154273    12.000000000000
         C           -3.656798632268     4.972956089858     0.530918934905    12.000000000000
         C           -4.892999400866    -2.825191859243     0.531457601668    12.000000000000
         C           -2.478128420093    -5.653566262190     0.530826966625    12.000000000000
         C           -6.134770425341     0.680548674073     0.530528039959    12.000000000000
         C           -3.656788755199    -4.972944115154     0.531978467248    12.000000000000
         C           -6.134764964923    -0.680554007665     0.531798436383    12.000000000000
         H            5.835288573806     3.369275802771     0.535359811133     1.007825032230
         H            7.073859250737     1.228217156716     0.531015235055     1.007825032230
         H            4.600663342164     5.512380710270     0.531247455283     1.007825032230
         H            5.835283465295    -3.369306148912     0.527157170052     1.007825032230
         H           -0.000012073316     6.738530581953     0.527497935764     1.007825032230
         H            7.073861249820    -1.228227034927     0.531310174083     1.007825032230
         H            2.473313809789     6.740684199211     0.531564313250     1.007825032230
         H            4.600668569371    -5.512376221359     0.531782757896     1.007825032230
         H           -2.473318602548     6.740681627423     0.531865659875     1.007825032230
         H           -0.000010190238    -6.738528268635     0.535981361635     1.007825032230
         H           -5.835301836354     3.369270858113     0.535495833282     1.007825032230
         H            2.473308001821    -6.740685466612     0.531672484698     1.007825032230
         H           -4.600674763218     5.512377934420     0.531412783606     1.007825032230
         H           -5.835279428845    -3.369289055963     0.526877864171     1.007825032230
         H           -2.473300269450    -6.740679170323     0.531223168153     1.007825032230
         H           -7.073857688778     1.228220380657     0.530931243574     1.007825032230
         H           -4.600673708095    -5.512362761970     0.531610449874     1.007825032230
         H           -7.073856856419    -1.228220724160     0.531215317617     1.007825032230

  Charge       = 0
  Multiplicity = 1
  Basis Set: JUN-CC-PVDZ
    Blend: JUN-CC-PVDZ
  Basis Set: (JUN-CC-PVDZ AUX)
    Blend: JUN-CC-PVDZ-JKFIT

    Orbital Energies [Eh]
    ---------------------

    Doubly Occupied:

       1A    -11.260689     2A    -11.260238     3A    -11.260235
       4A    -11.259479     5A    -11.259478     6A    -11.259286
       7A    -11.259056     8A    -11.258984     9A    -11.258983
      10A    -11.258677    11A    -11.258673    12A    -11.258577
      13A    -11.258521    14A    -11.258519    15A    -11.258515
      16A    -11.258481    17A    -11.258475    18A    -11.258459
      19A    -11.258448    20A    -11.258444    21A    -11.258438
      22A    -11.258366    23A    -11.258362    24A    -11.258108
      25A    -11.257359    26A    -11.257297    27A    -11.257296
      28A    -11.257162    29A    -11.257161    30A    -11.257077
      31A    -11.256450    32A    -11.256380    33A    -11.256379
      34A    -11.256270    35A    -11.256270    36A    -11.256223
      37A    -11.252333    38A    -11.252333    39A    -11.252331
      40A    -11.252330    41A    -11.252328    42A    -11.252326
      43A    -11.251445    44A    -11.251443    45A    -11.251441
      46A    -11.251435    47A    -11.251434    48A    -11.251430
      49A    -11.250895    50A    -11.250894    51A    -11.250892
      52A    -11.250890    53A    -11.250889    54A    -11.250887
      55A     -1.244113    56A     -1.219880    57A     -1.219880
      58A     -1.189609    59A     -1.189602    60A     -1.180993
      61A     -1.157628    62A     -1.149045    63A     -1.135546
      64A     -1.135540    65A     -1.113259    66A     -1.113254
      67A     -1.082494    68A     -1.082487    69A     -1.078657
      70A     -1.066045    71A     -1.066041    72A     -1.039469
      73A     -1.024339    74A     -1.021820    75A     -1.021777
      76A     -1.017795    77A     -1.012858    78A     -0.987087
      79A     -0.987042    80A     -0.961942    81A     -0.961892
      82A     -0.894356    83A     -0.894329    84A     -0.887991
      85A     -0.886240    86A     -0.886182    87A     -0.881464
      88A     -0.881416    89A     -0.861964    90A     -0.837474
      91A     -0.818278    92A     -0.816674    93A     -0.812198
      94A     -0.812189    95A     -0.794754    96A     -0.794743
      97A     -0.746691    98A     -0.744918    99A     -0.733470
     100A     -0.733462   101A     -0.732248   102A     -0.732225
     103A     -0.716557   104A     -0.699041   105A     -0.699030
     106A     -0.693648   107A     -0.693633   108A     -0.661296
     109A     -0.653155   110A     -0.651215   111A     -0.650316
     112A     -0.650310   113A     -0.639427   114A     -0.639425
     115A     -0.629775   116A     -0.627586   117A     -0.627570
     118A     -0.606480   119A     -0.605868   120A     -0.601725
     121A     -0.599805   122A     -0.599773   123A     -0.593707
     124A     -0.591274   125A     -0.591263   126A     -0.585341
     127A     -0.576397   128A     -0.576391   129A     -0.567387
     130A     -0.567373   131A     -0.566009   132A     -0.565990
     133A     -0.558779   134A     -0.554906   135A     -0.554900
     136A     -0.538658   137A     -0.538656   138A     -0.538215
     139A     -0.538209   140A     -0.529785   141A     -0.528219
     142A     -0.522935   143A     -0.522929   144A     -0.500570
     145A     -0.495644   146A     -0.493301   147A     -0.487879
     148A     -0.485140   149A     -0.481822   150A     -0.481814
     151A     -0.470388   152A     -0.470370   153A     -0.451079
     154A     -0.451000   155A     -0.439120   156A     -0.439111
     157A     -0.404776   158A     -0.404753   159A     -0.403430
     160A     -0.375469   161A     -0.375466   162A     -0.349168
     163A     -0.337621   164A     -0.336620   165A     -0.336563
     166A     -0.311134   167A     -0.298154   168A     -0.284383
     169A     -0.284329   170A     -0.224964   171A     -0.224898

  @DF-RHF Final Energy: -2055.89296434216294

   => Energetics <=

    Nuclear Repulsion Energy =           6452.5568002797772351
    One-Electron Energy =              -15636.4633784914985881
    Two-Electron Energy =                7128.0136138695579575
    Total Energy =                      -2055.8929643421633955
 Dipole X            :          0.0000311            0.0000419            0.0000730
 Dipole Y            :          0.0000467           -0.0000426            0.0000041
 Dipole Z            :       -343.4282552          343.4303868            0.0021316
 Magnitude           :                                                    0.0021328

    SAPT Results
  --------------------------------------------------------------------------------------------------------
    Electrostatics                 11.22366186 [mEh]       7.04295415 [kcal/mol]      29.46772015 [kJ/mol]
      Elst10,r                     11.22366186 [mEh]       7.04295415 [kcal/mol]      29.46772015 [kJ/mol]

    Exchange                        1.84587478 [mEh]       1.15830391 [kcal/mol]       4.84634357 [kJ/mol]
      Exch10                        1.84587478 [mEh]       1.15830391 [kcal/mol]       4.84634357 [kJ/mol]
      Exch10(S^2)                   1.84611483 [mEh]       1.15845455 [kcal/mol]       4.84697382 [kJ/mol]

    Induction                      -9.07799556 [mEh]      -5.69652821 [kcal/mol]     -23.83427405 [kJ/mol]
      Ind20,r                      -9.39486819 [mEh]      -5.89536880 [kcal/mol]     -24.66622304 [kJ/mol]
      Exch-Ind20,r                  0.35148785 [mEh]       0.22056195 [kcal/mol]       0.92283121 [kJ/mol]
      delta HF,r (2)               -0.03461521 [mEh]      -0.02172137 [kcal/mol]      -0.09088222 [kJ/mol]

    Dispersion                     -4.14771492 [mEh]      -2.60273041 [kcal/mol]     -10.88982403 [kJ/mol]
      Disp20                       -4.43869748 [mEh]      -2.78532472 [kcal/mol]     -11.65379863 [kJ/mol]
      Exch-Disp20                   0.29098256 [mEh]       0.18259431 [kcal/mol]       0.76397460 [kJ/mol]
      Disp20 (SS)                  -2.21934874 [mEh]      -1.39266236 [kcal/mol]      -5.82689932 [kJ/mol]
      Disp20 (OS)                  -2.21934874 [mEh]      -1.39266236 [kcal/mol]      -5.82689932 [kJ/mol]
      Exch-Disp20 (SS)              0.17519855 [mEh]       0.10993875 [kcal/mol]       0.45998373 [kJ/mol]
      Exch-Disp20 (OS)              0.11578401 [mEh]       0.07265556 [kcal/mol]       0.30399087 [kJ/mol]

  Total HF                          3.99154108 [mEh]       2.50472985 [kcal/mol]      10.47978967 [kJ/mol]
  Total SAPT0                      -0.15617384 [mEh]      -0.09800056 [kcal/mol]      -0.41003435 [kJ/mol]

  Special recipe for scaled SAPT0 (see Manual):
    Electrostatics sSAPT0          11.22366186 [mEh]       7.04295415 [kcal/mol]      29.46772015 [kJ/mol]
    Exchange sSAPT0                 1.84587478 [mEh]       1.15830391 [kcal/mol]       4.84634357 [kJ/mol]
    Induction sSAPT0               -9.07813265 [mEh]      -5.69661424 [kcal/mol]     -23.83463399 [kJ/mol]
    Dispersion sSAPT0              -4.14782842 [mEh]      -2.60280163 [kcal/mol]     -10.89012201 [kJ/mol]
  Total sSAPT0                     -0.15642443 [mEh]      -0.09815781 [kcal/mol]      -0.41069227 [kJ/mol]
  --------------------------------------------------------------------------------------------------------

*** Psi4 exiting successfully. Buy a developer a beer!
