                               Psi4 1.9 release

  ==> Input File <==

--------------------------------------------------------------------------
memory 32 GB # how much memory is available ! Depends on the nodes/cores !

molecule dimer {
# monomer A
+1 1    # Charge and multiplicity
C  0.680067 1.417258 -7.415929
C -0.680504 1.419286 -7.415545
N -1.085635 1.420284 -6.097221
C  0.000108 1.423560 -5.315820
C -2.477365 1.469690 -5.629242
N  1.085222 1.420284 -6.097221
H  1.385146 1.409430 -8.233368
H -1.385302 1.419096 -8.233214
H -0.000009 1.425307 -4.234731
C  2.478117 1.403392 -5.632123
H  2.490592 1.430737 -4.541870
H  2.967028 0.489946 -5.979299
H  3.001428 2.278875 -6.023595
H -2.857359 2.491761 -5.709201
H -3.082679 0.799606 -6.242306
H -2.518128 1.142706 -4.589294
--
# monomer B
0 1     # Charge and multiplicity
C   1.22531237526482      0.70753866091955      0.00613762728373
C   1.22532433589282     -0.70753852257020     -0.00619318228664
C   -0.00000567409046      1.41496628609039     -0.00672680580738
C   2.45644923379077      1.41832825917820      0.00902448468363
C   0.00001130712078     -1.41497612663474      0.00347275151708
C   -1.22530046906674      0.70754574598412      0.00838914760619
C   2.45643823516184     -1.41832293188077     -0.00843833914343
C   -0.00000085313587      2.83680140328112     -0.00913035594137
C   3.68182717731192      0.70931832800114     -0.00808954934571
C   2.45512052870677      2.83422403348893     -0.00819210630633
C   3.68182158506039     -0.70933346742900      0.00798293467272
C   -1.22531311884624     -0.70752714354401     -0.00512042085974
C   1.22670006104402      3.54346985599427      0.00816696660346
C   0.00000526469929     -2.83678176723568      0.00832091913869
C   -2.45643555300670      1.41831729028492      0.00842454345199
C   2.45512389762097     -2.83422965658853      0.00783102630520
C   -1.22671388474763      3.54346943575023      0.00827029982280
C   4.91451777504333      1.42717324448953     -0.00160886631602
C   3.69315067131765      3.54279566454522     -0.00155906667985
C   -2.45643712022637     -1.41831290883911     -0.00846337726810
C   1.22670532178455     -3.54347386990643     -0.00780316414624
C   -2.45512491866593      2.83421703463423     -0.00818572995999
C   4.91452486062398     -1.42718653794377      0.00136387641845
C   1.22142509354026      4.97013443726031      0.00150231067809
C   4.89300870916237      2.82518837202648     -0.00039219795739
C   -1.22669652864725     -3.54347062507680     -0.00753595973677
C   -3.68181849668397      0.70932533873199     -0.00807686886569
C   3.69314758099218     -3.54280096939050      0.00148176697923
C   -1.22143177215231      4.97012866986289      0.00168580605083
C   6.13477145276790      0.68054831910577     -0.00083909176631
C   3.65678936045204      4.97295361556775     -0.00065042889723
C   -2.45512642789169     -2.83421472106065      0.00758666850712
C   -3.68181869921921     -0.70932533146830      0.00810055625144
C   4.89301309775526     -2.82519973363176      0.00021895393805
C   -0.00000059327114      5.65044773803267      0.00045449734393
C   6.13477559217374     -0.68055448207492      0.00042622874941
C   2.47813196269732      5.65357712333155      0.00063835075260
C   1.22142288457925     -4.97012668293268     -0.00129718634452
C   -3.69316190412301      3.54279732619245     -0.00139355922051
C   -1.22142804110313     -4.97011793159564     -0.00140994817719
C   -4.91452132810043      1.42717581899491     -0.00153192130862
C   3.65678749952045     -4.97295485423912      0.00080007163680
C   -2.47813805026426      5.65357479452875      0.00092287576113
C   -3.69314125872231     -3.54278984697859      0.00136564082345
C   -4.91451200321153     -1.42718062802730      0.00139857359209
C   -0.00000552908399     -5.65043791501335      0.00005899322272
C   -4.89302000425900      2.82518897091939     -0.00040227981744
C   2.47812647313991     -5.65357317188818     -0.00029052915548
C   -3.65679823041642      4.97295655404175     -0.00047374852278
C   -4.89299899901461     -2.82519139505969      0.00006491824035
C   -2.47812801824129     -5.65356579800621     -0.00056571680280
C   -6.13477002348955      0.68054913825639     -0.00086464346868
C   -3.65678835334731     -4.97294365097028      0.00058578382008
C   -6.13476456307132     -0.68055354348201      0.00040575295444
H   5.83528897565761      3.36927626695423      0.00396712770529
H   7.07385965258860      1.22821762089947     -0.00037744837300
H   4.60066374401555      5.51238117445323     -0.00014522814529
H   5.83528386714679     -3.36930568472863     -0.00423551337640
H   -0.00001167146422      6.73853104613662     -0.00389474766392
H   7.07386165167227     -1.22822657074368     -0.00008250934481
H   2.47331421164041      6.74068466339473      0.00017162982210
H   4.60066897122302     -5.51237575717576      0.00039007446835
H   -2.47331820069565      6.74068209160650      0.00047297644710
H   -0.00000978838621     -6.73852780445195      0.00458867820736
H   -5.83530143450167      3.36927132229595      0.00410314985360
H   2.47330840367253     -6.74068500242887      0.00027980126949
H   -4.60067436136587      5.51237839860371      0.00002010017831
H   -5.83527902699321     -3.36928859177951     -0.00451481925734
H   -2.47329986759855     -6.74067870613986     -0.00016951527498
H   -7.07385728692578      1.22822084484047     -0.00046143985387
H   -4.60067330624313     -5.51236229778631      0.00021776644566
H   -7.07385645456741     -1.22822025997701     -0.00017736581114

    units angstrom      # Angstroms are the default
    no_reorient         # Geometry fixed, default
    symmetry c1         # C1 symmetry, default
}

set {
    scf_type DF         # Density fitting, faster than exact integrals
    freeze_core True    # Freeze core electrons
    basis jun-cc-pVDZ   # Jun-cc-pVDZ basis set, recommended for sSAPT0 in https://doi.org/10.1063/1.4867135
}

energy('ssapt0')        # Compute sSAPT0 energy, includes also SAPT0
--------------------------------------------------------------------------

  //              Dimer HF             //
    Molecular point group: c1
  Charge       = 1
  Multiplicity = 1
  Basis Set: JUN-CC-PVDZ
    Blend: JUN-CC-PVDZ
  Basis Set: (JUN-CC-PVDZ AUX)
    Blend: JUN-CC-PVDZ-JKFIT
  @DF-RHF Final Energy: -2359.20332906352451
    Total Energy =                      -2359.2033290635245066
 Dipole X            :         -0.0019155            0.0006313           -0.0012842
 Dipole Y            :         -5.7255185            7.4856329            1.7601144
 Dipole Z            :         21.7151268          -30.4317957           -8.7166688
 Magnitude           :                                                    8.8925991
  //            Monomer A HF           //
    Molecular point group: c1
  Multiplicity = 1
  Basis Set: JUN-CC-PVDZ
    Blend: JUN-CC-PVDZ
  Basis Set: (JUN-CC-PVDZ AUX)
    Blend: JUN-CC-PVDZ-JKFIT
  @DF-RHF Final Energy:  -303.29738541914213
    Total Energy =                       -303.2973854191421310
  //            Monomer B HF           //
    Molecular point group: c1

    Geometry (in Angstrom), charge = 0, multiplicity = 1:

       Center              X                  Y                   Z               Mass
    ------------   -----------------  -----------------  -----------------  -----------------
      Gh(C)           0.680066520158     1.235968212970    -6.627329311776    12.000000000000
      Gh(C)          -0.680504479842     1.237996212970    -6.626945311776    12.000000000000
      Gh(N)          -1.085635479842     1.238994212970    -5.308621311776    14.003074004430
      Gh(C)           0.000107520158     1.242270212970    -4.527220311776    12.000000000000
      Gh(C)          -2.477365479842     1.288400212970    -4.840642311776    12.000000000000
      Gh(N)           1.085221520158     1.238994212970    -5.308621311776    14.003074004430
      Gh(H)           1.385145520158     1.228140212970    -7.444768311776     1.007825032230
      Gh(H)          -1.385302479842     1.237806212970    -7.444614311776     1.007825032230
      Gh(H)          -0.000009479842     1.244017212970    -3.446131311776     1.007825032230
      Gh(C)           2.478116520158     1.222102212970    -4.843523311776    12.000000000000
      Gh(H)           2.490591520158     1.249447212970    -3.753270311776     1.007825032230
      Gh(H)           2.967027520158     0.308656212970    -5.190699311776     1.007825032230
      Gh(H)           3.001427520158     2.097585212970    -5.234995311776     1.007825032230
      Gh(H)          -2.857359479842     2.310471212970    -4.920601311776     1.007825032230
      Gh(H)          -3.082679479842     0.618316212970    -5.453706311776     1.007825032230
      Gh(H)          -2.518128479842     0.961416212970    -3.800694311776     1.007825032230
         C            1.225311895423     0.526248873889     0.794737315507    12.000000000000
         C            1.225323856051    -0.888828309601     0.782406505937    12.000000000000
         C           -0.000006153932     1.233676499060     0.781872882416    12.000000000000
         C            2.456448753949     1.237038472148     0.797624172907    12.000000000000
         C            0.000010827279    -1.596265913665     0.792072439741    12.000000000000
         C           -1.225300948908     0.526255958954     0.796988835830    12.000000000000
         C            2.456437755320    -1.599612718911     0.780161349080    12.000000000000
         C           -0.000001332978     2.655511616251     0.779469332282    12.000000000000
         C            3.681826697470     0.528028540971     0.780510138878    12.000000000000
         C            2.455120048865     2.652934246459     0.780407581917    12.000000000000
         C            3.681821105219    -0.890623254459     0.796582622896    12.000000000000
         C           -1.225313598688    -0.888816930574     0.783479267364    12.000000000000
         C            1.226699581202     3.362180068964     0.796766654827    12.000000000000
         C            0.000004784858    -3.018071554266     0.796920607362    12.000000000000
         C           -2.456436032848     1.237027503255     0.797024231676    12.000000000000
         C            2.455123417779    -3.015519443619     0.796430714529    12.000000000000
         C           -1.226714364589     3.362179648720     0.796869988046    12.000000000000
         C            4.914517295202     1.245883457459     0.786990821908    12.000000000000
         C            3.693150191476     3.361505877515     0.787040621544    12.000000000000
         C           -2.456437600068    -1.599602695869     0.780136310956    12.000000000000
         C            1.226704841943    -3.724763656937     0.780796524077    12.000000000000
         C           -2.455125398508     2.652927247604     0.780413958264    12.000000000000
         C            4.914524380782    -1.608476324974     0.789963564642    12.000000000000
         C            1.221424613699     4.788844650230     0.790101998902    12.000000000000
         C            4.893008229321     2.643898584996     0.788207490266    12.000000000000
         C           -1.226697008489    -3.724760412107     0.781063728487    12.000000000000
         C           -3.681818976526     0.528035551702     0.780522819358    12.000000000000
         C            3.693147101150    -3.724090756421     0.790081455203    12.000000000000
         C           -1.221432251994     4.788838882833     0.790285494274    12.000000000000
         C            6.134770972926     0.499258532075     0.787760596457    12.000000000000
         C            3.656788880610     4.791663828537     0.787949259326    12.000000000000
         C           -2.455126907733    -3.015504508091     0.796186356731    12.000000000000
         C           -3.681819179061    -0.890615118499     0.796700244475    12.000000000000
         C            4.893012617914    -3.006489520662     0.788818642162    12.000000000000
         C           -0.000001073113     5.469157951002     0.789054185568    12.000000000000
         C            6.134775112332    -0.861844269105     0.789025916973    12.000000000000
         C            2.478131482856     5.472287336301     0.789238038976    12.000000000000
         C            1.221422404738    -5.151416469963     0.787302501879    12.000000000000
         C           -3.693162383965     3.361507539162     0.787206129003    12.000000000000
         C           -1.221428520945    -5.151407718626     0.787189740046    12.000000000000
         C           -4.914521807942     1.245886031965     0.787067766915    12.000000000000
         C            3.656787019679    -5.154244641269     0.789399759860    12.000000000000
         C           -2.478138530106     5.472285007498     0.789522563985    12.000000000000
         C           -3.693141738564    -3.724079634009     0.789965329047    12.000000000000
         C           -4.914512483053    -1.608470415058     0.789998261816    12.000000000000
         C           -0.000006008926    -5.831727702044     0.788658681446    12.000000000000
         C           -4.893020484101     2.643899183889     0.788197408406    12.000000000000
         C            2.478125993298    -5.834862958919     0.788309159068    12.000000000000
         C           -3.656798710258     4.791666767011     0.788125939701    12.000000000000
         C           -4.892999478856    -3.006481182090     0.788664606464    12.000000000000
         C           -2.478128498083    -5.834855585037     0.788033971421    12.000000000000
         C           -6.134770503331     0.499259351226     0.787735044755    12.000000000000
         C           -3.656788833189    -5.154233438001     0.789185472044    12.000000000000
         C           -6.134765042913    -0.861843330512     0.789005441178    12.000000000000
         H            5.835288495816     3.187986479924     0.792566815929     1.007825032230
         H            7.073859172747     1.046927833869     0.788222239851     1.007825032230
         H            4.600663264174     5.331091387423     0.788454460078     1.007825032230
         H            5.835283387305    -3.550595471759     0.784364174847     1.007825032230
         H           -0.000012151306     6.557241259106     0.784704940560     1.007825032230
         H            7.073861171831    -1.409516357774     0.788517178879     1.007825032230
         H            2.473313731799     6.559394876364     0.788771318046     1.007825032230
         H            4.600668491381    -5.693665544206     0.788989762692     1.007825032230
         H           -2.473318680537     6.559392304576     0.789072664671     1.007825032230
         H           -0.000010268228    -6.919817591482     0.793188366431     1.007825032230
         H           -5.835301914343     3.187981535266     0.792702838077     1.007825032230
         H            2.473307923831    -6.921974789459     0.788879489493     1.007825032230
         H           -4.600674841208     5.331088611573     0.788619788402     1.007825032230
         H           -5.835279506835    -3.550578378810     0.784084868966     1.007825032230
         H           -2.473300347440    -6.921968493170     0.788430172949     1.007825032230
         H           -7.073857766768     1.046931057810     0.788138248370     1.007825032230
         H           -4.600673786085    -5.693652084817     0.788817454669     1.007825032230
         H           -7.073856934409    -1.409510047007     0.788422322412     1.007825032230

  Charge       = 0
  Multiplicity = 1
  Basis Set: JUN-CC-PVDZ
    Blend: JUN-CC-PVDZ
  Basis Set: (JUN-CC-PVDZ AUX)
    Blend: JUN-CC-PVDZ-JKFIT

    Orbital Energies [Eh]
    ---------------------

    Doubly Occupied:

       1A    -11.260592     2A    -11.260157     3A    -11.260138
       4A    -11.259443     5A    -11.259431     6A    -11.259266
       7A    -11.259057     8A    -11.258984     9A    -11.258975
      10A    -11.258657    11A    -11.258651    12A    -11.258583
      13A    -11.258521    14A    -11.258520    15A    -11.258511
      16A    -11.258485    17A    -11.258479    18A    -11.258460
      19A    -11.258452    20A    -11.258441    21A    -11.258438
      22A    -11.258343    23A    -11.258332    24A    -11.258036
      25A    -11.257376    26A    -11.257317    27A    -11.257310
      28A    -11.257180    29A    -11.257176    30A    -11.257093
      31A    -11.256470    32A    -11.256401    33A    -11.256398
      34A    -11.256293    35A    -11.256286    36A    -11.256242
      37A    -11.252342    38A    -11.252339    39A    -11.252321
      40A    -11.252320    41A    -11.252318    42A    -11.252316
      43A    -11.251465    44A    -11.251452    45A    -11.251450
      46A    -11.251442    47A    -11.251438    48A    -11.251427
      49A    -11.250903    50A    -11.250900    51A    -11.250882
      52A    -11.250881    53A    -11.250879    54A    -11.250877
      55A     -1.244148    56A     -1.219893    57A     -1.219887
      58A     -1.189612    59A     -1.189602    60A     -1.181028
      61A     -1.157621    62A     -1.149046    63A     -1.135576
      64A     -1.135564    65A     -1.113255    66A     -1.113249
      67A     -1.082503    68A     -1.082497    69A     -1.078680
      70A     -1.066040    71A     -1.066036    72A     -1.039464
      73A     -1.024354    74A     -1.021853    75A     -1.021806
      76A     -1.017786    77A     -1.012852    78A     -0.987097
      79A     -0.987046    80A     -0.961942    81A     -0.961892
      82A     -0.894355    83A     -0.894330    84A     -0.888018
      85A     -0.886266    86A     -0.886213    87A     -0.881470
      88A     -0.881423    89A     -0.861963    90A     -0.837461
      91A     -0.818274    92A     -0.816694    93A     -0.812209
      94A     -0.812202    95A     -0.794750    96A     -0.794738
      97A     -0.746699    98A     -0.744932    99A     -0.733492
     100A     -0.733490   101A     -0.732244   102A     -0.732221
     103A     -0.716571   104A     -0.699040   105A     -0.699022
     106A     -0.693657   107A     -0.693635   108A     -0.661292
     109A     -0.653194   110A     -0.651238   111A     -0.650313
     112A     -0.650307   113A     -0.639422   114A     -0.639414
     115A     -0.629785   116A     -0.627596   117A     -0.627581
     118A     -0.606474   119A     -0.605856   120A     -0.601733
     121A     -0.599807   122A     -0.599766   123A     -0.593699
     124A     -0.591306   125A     -0.591291   126A     -0.585329
     127A     -0.576423   128A     -0.576391   129A     -0.567380
     130A     -0.567364   131A     -0.566031   132A     -0.566015
     133A     -0.558803   134A     -0.554911   135A     -0.554908
     136A     -0.538653   137A     -0.538651   138A     -0.538240
     139A     -0.538237   140A     -0.529779   141A     -0.528180
     142A     -0.522939   143A     -0.522925   144A     -0.500563
     145A     -0.495659   146A     -0.493297   147A     -0.487889
     148A     -0.485139   149A     -0.481822   150A     -0.481817
     151A     -0.470379   152A     -0.470359   153A     -0.451101
     154A     -0.451026   155A     -0.439123   156A     -0.439113
     157A     -0.404794   158A     -0.404774   159A     -0.403419
     160A     -0.375476   161A     -0.375469   162A     -0.349173
     163A     -0.337638   164A     -0.336611   165A     -0.336538
     166A     -0.311150   167A     -0.298144   168A     -0.284397
     169A     -0.284345   170A     -0.224971   171A     -0.224904

  @DF-RHF Final Energy: -2055.89270710882101

   => Energetics <=

    Nuclear Repulsion Energy =           6452.5568002797781446
    One-Electron Energy =              -15636.4620486436197098
    Two-Electron Energy =                7128.0125412550196415
    Total Energy =                      -2055.8927071088210141
 Dipole X            :          0.0001774           -0.0000085            0.0001689
 Dipole Y            :        117.1679906         -117.1648546            0.0031360
 Dipole Z            :       -509.6514374          509.6597592            0.0083219
 Magnitude           :                                                    0.0088948

    SAPT Results
  --------------------------------------------------------------------------------------------------------
    Electrostatics                 -9.08709865 [mEh]      -5.70224049 [kcal/mol]     -23.85817422 [kJ/mol]
      Elst10,r                     -9.08709865 [mEh]      -5.70224049 [kcal/mol]     -23.85817422 [kJ/mol]

    Exchange                        0.02024601 [mEh]       0.01270457 [kcal/mol]       0.05315590 [kJ/mol]
      Exch10                        0.02024601 [mEh]       0.01270457 [kcal/mol]       0.05315590 [kJ/mol]
      Exch10(S^2)                   0.02024580 [mEh]       0.01270443 [kcal/mol]       0.05315533 [kJ/mol]

    Induction                      -4.16968293 [mEh]      -2.61651554 [kcal/mol]     -10.94750101 [kJ/mol]
      Ind20,r                      -4.02980561 [mEh]      -2.52874120 [kcal/mol]     -10.58025316 [kJ/mol]
      Exch-Ind20,r                  0.00578760 [mEh]       0.00363178 [kcal/mol]       0.01519535 [kJ/mol]
      delta HF,r (2)               -0.14566492 [mEh]      -0.09140612 [kcal/mol]      -0.38244320 [kJ/mol]

    Dispersion                     -2.90235219 [mEh]      -1.82125350 [kcal/mol]      -7.62012463 [kJ/mol]
      Disp20                       -2.90584579 [mEh]      -1.82344577 [kcal/mol]      -7.62929708 [kJ/mol]
      Exch-Disp20                   0.00349360 [mEh]       0.00219227 [kcal/mol]       0.00917246 [kJ/mol]
      Disp20 (SS)                  -1.45292290 [mEh]      -0.91172288 [kcal/mol]      -3.81464854 [kJ/mol]
      Disp20 (OS)                  -1.45292290 [mEh]      -0.91172288 [kcal/mol]      -3.81464854 [kJ/mol]
      Exch-Disp20 (SS)              0.00240487 [mEh]       0.00150908 [kcal/mol]       0.00631399 [kJ/mol]
      Exch-Disp20 (OS)              0.00108873 [mEh]       0.00068319 [kcal/mol]       0.00285847 [kJ/mol]

  Total HF                        -13.23653556 [mEh]      -8.30605146 [kcal/mol]     -34.75251933 [kJ/mol]
  Total SAPT0                     -16.13888775 [mEh]     -10.12730496 [kcal/mol]     -42.37264395 [kJ/mol]

  Special recipe for scaled SAPT0 (see Manual):
    Electrostatics sSAPT0          -9.08709865 [mEh]      -5.70224049 [kcal/mol]     -23.85817422 [kJ/mol]
    Exchange sSAPT0                 0.02024601 [mEh]       0.01270457 [kcal/mol]       0.05315590 [kJ/mol]
    Induction sSAPT0               -4.16968274 [mEh]      -2.61651542 [kcal/mol]     -10.94750053 [kJ/mol]
    Dispersion sSAPT0              -2.90235208 [mEh]      -1.82125343 [kcal/mol]      -7.62012433 [kJ/mol]
  Total sSAPT0                    -16.13888745 [mEh]     -10.12730477 [kcal/mol]     -42.37264317 [kJ/mol]
  --------------------------------------------------------------------------------------------------------

*** Psi4 exiting successfully. Buy a developer a beer!
